LAMMPS (23 Jun 2022 - Update 1)
OMP_NUM_THREADS environment is not set. Defaulting to 1 thread. (src/comm.cpp:98)
  using 1 OpenMP thread(s) per MPI task

# Init #
dimension   3
boundary    p p p
units       real
atom_style  atomic

# Atom Definition #
read_data ${input_data}
read_data ./pgnpmf/4060/dat4060.dat
Reading data file ...
  orthogonal box = (-100 -100 -100) to (4100 4100 4100)
  1 by 2 by 2 MPI processor grid
  reading atoms ...
  1000 atoms
  read_data CPU = 0.007 seconds

# Settings #
pair_style table spline 9941

pair_coeff 1 1 ./pgnpmf/N20.txt DE_GNP 75.6
pair_coeff 2 2 ./pgnpmf/N100.txt DE_GNP 115.92
WARNING: 3 of 9941 force values in table DE_GNP are inconsistent with -dE/dr.
WARNING:  Should only be flagged at inflection points (src/pair_table.cpp:463)
pair_coeff 1 2 ./pgnpmf/mixed_potential.txt DE_GNP 95.66
WARNING: 1562 of 9941 force values in table DE_GNP are inconsistent with -dE/dr.
WARNING:  Should only be flagged at inflection points (src/pair_table.cpp:463)

# Neighbor list calc frequency #
neigh_modify delay 0 every 1 check yes

# Saving frequency #
variable ts_save equal floor(${steps_gen}*0.01)
variable ts_save equal floor(5000*0.01)

# Dump #
dump 1 all custom 10000 ./pgnpmf/${folder}/generation/trajectory/trajectory_${usic}_${trial}.gen.custom type x y z ix iy iz
dump 1 all custom 10000 ./pgnpmf/4060/generation/trajectory/trajectory_${usic}_${trial}.gen.custom type x y z ix iy iz
dump 1 all custom 10000 ./pgnpmf/4060/generation/trajectory/trajectory_1_${trial}.gen.custom type x y z ix iy iz
dump 1 all custom 10000 ./pgnpmf/4060/generation/trajectory/trajectory_1_1.gen.custom type x y z ix iy iz
dump_modify 1 first no sort id
dump 2 all cfg 10000 ./pgnpmf/${folder}/generation/trajectory/dumpgen.tens_*.cfg mass type xs ys zs fx fy fz
dump 2 all cfg 10000 ./pgnpmf/4060/generation/trajectory/dumpgen.tens_*.cfg mass type xs ys zs fx fy fz
dump_modify 2 element N20 N100

# Fix #
fix 1 all momentum 1000 linear 1 1 1 angular

variable T equal ${Temp}
variable T equal 300

# Velocity #
velocity all create ${T} ${Vseed} mom yes rot yes dist gaussian
velocity all create 300 ${Vseed} mom yes rot yes dist gaussian
velocity all create 300 57138 mom yes rot yes dist gaussian

fix 2 all nvt temp ${T} 370000 100.0 #iso 1.0 1.0 1000.0
fix 2 all nvt temp 300 370000 100.0 
run ${steps_gen}
run 5000
Generated 0 of 1 mixed pair_coeff terms from geometric mixing rule
Neighbor list info ...
  update every 1 steps, delay 0 steps, check yes
  max neighbors/atom: 2000, page size: 100000
  master list distance cutoff = 117.92
  ghost atom cutoff = 117.92
  binsize = 58.96, bins = 72 72 72
  1 neighbor lists, perpetual/occasional/extra = 1 0 0
  (1) pair table, perpetual
      attributes: half, newton on
      pair build: half/bin/atomonly/newton
      stencil: half/bin/3d
      bin: standard
Per MPI rank memory allocation (min/avg/max) = 6.143 | 6.144 | 6.145 Mbytes
   Step          Temp          E_pair         E_mol          TotEng         Press     
         0   300           -53091.787      0             -52198.438     -0.012216892  
      5000   357417.14     -138094.75      0              926232.47      0.62412582   
Loop time of 0.0935951 on 4 procs for 5000 steps with 1000 atoms

Performance: 4615.627 ns/day, 0.005 hours/ns, 53421.611 timesteps/s
99.4% CPU use with 4 MPI tasks x 1 OpenMP threads

MPI task timing breakdown:
Section |  min time  |  avg time  |  max time  |%varavg| %total
---------------------------------------------------------------
Pair    | 0.0035292  | 0.0041021  | 0.0054124  |   1.2 |  4.38
Neigh   | 0.0014452  | 0.0015168  | 0.0015895  |   0.1 |  1.62
Comm    | 0.049915   | 0.052381   | 0.055326   |   0.9 | 55.97
Output  | 1.5217e-05 | 1.9369e-05 | 2.9355e-05 |   0.0 |  0.02
Modify  | 0.020764   | 0.024368   | 0.028689   |   2.2 | 26.04
Other   |            | 0.01121    |            |       | 11.98

Nlocal:            250 ave         287 max         231 min
Histogram: 2 0 0 1 0 0 0 0 0 1
Nghost:            108 ave         144 max          87 min
Histogram: 2 0 0 0 1 0 0 0 0 1
Neighs:            7.5 ave          20 max           1 min
Histogram: 1 1 1 0 0 0 0 0 0 1

Total # of neighbors = 30
Ave neighs/atom = 0.03
Neighbor list builds = 13
Dangerous builds = 0

unfix 2

fix 3 all nvt temp 370000 370000 100.0
run 500000
Generated 0 of 1 mixed pair_coeff terms from geometric mixing rule
Per MPI rank memory allocation (min/avg/max) = 6.143 | 6.144 | 6.145 Mbytes
   Step          Temp          E_pair         E_mol          TotEng         Press     
      5000   357417.14     -138094.75      0              926232.47      0.62412582   
    505000   386082.37     -928212.71      0              221474.67      0.67081048   
Loop time of 9.58133 on 4 procs for 500000 steps with 1000 atoms

Performance: 4508.767 ns/day, 0.005 hours/ns, 52184.806 timesteps/s
99.5% CPU use with 4 MPI tasks x 1 OpenMP threads

MPI task timing breakdown:
Section |  min time  |  avg time  |  max time  |%varavg| %total
---------------------------------------------------------------
Pair    | 0.63359    | 0.83799    | 0.91324    |  12.9 |  8.75
Neigh   | 0.2176     | 0.23175    | 0.256      |   3.1 |  2.42
Comm    | 4.5667     | 4.7053     | 4.9684     |   7.2 | 49.11
Output  | 0.10095    | 0.10698    | 0.12305    |   2.8 |  1.12
Modify  | 2.2462     | 2.44       | 2.7437     |  12.2 | 25.47
Other   |            | 1.259      |            |       | 13.14

Nlocal:            250 ave         331 max         186 min
Histogram: 1 0 0 2 0 0 0 0 0 1
Nghost:          96.25 ave         119 max          75 min
Histogram: 1 0 0 1 0 0 1 0 0 1
Neighs:          30.25 ave          39 max          26 min
Histogram: 1 2 0 0 0 0 0 0 0 1

Total # of neighbors = 121
Ave neighs/atom = 0.121
Neighbor list builds = 2009
Dangerous builds = 0

unfix 3

fix 4 all nvt temp 370000 3700000 $(100*dt)
fix 4 all nvt temp 370000 3700000 100
run 500000
Generated 0 of 1 mixed pair_coeff terms from geometric mixing rule
Per MPI rank memory allocation (min/avg/max) = 6.154 | 6.155 | 6.156 Mbytes
   Step          Temp          E_pair         E_mol          TotEng         Press     
    505000   386082.37     -928212.71      0              221474.67      0.67081048   
   1005000   3756745.5     -200206.06      0              10986740       6.9867329    
Loop time of 9.3246 on 4 procs for 500000 steps with 1000 atoms

Performance: 4632.904 ns/day, 0.005 hours/ns, 53621.577 timesteps/s
99.4% CPU use with 4 MPI tasks x 1 OpenMP threads

MPI task timing breakdown:
Section |  min time  |  avg time  |  max time  |%varavg| %total
---------------------------------------------------------------
Pair    | 0.47996    | 0.61638    | 0.7441     |  12.4 |  6.61
Neigh   | 0.52853    | 0.56793    | 0.60115    |   3.4 |  6.09
Comm    | 4.2961     | 4.3969     | 4.499      |   3.4 | 47.15
Output  | 0.10362    | 0.11101    | 0.13078    |   3.4 |  1.19
Modify  | 2.3775     | 2.4613     | 2.5411     |   4.7 | 26.40
Other   |            | 1.171      |            |       | 12.56

Nlocal:            250 ave         279 max         229 min
Histogram: 1 0 1 0 1 0 0 0 0 1
Nghost:          76.75 ave          83 max          68 min
Histogram: 1 0 0 0 1 0 0 0 1 1
Neighs:            8.5 ave          13 max           6 min
Histogram: 2 0 0 0 1 0 0 0 0 1

Total # of neighbors = 34
Ave neighs/atom = 0.034
Neighbor list builds = 4985
Dangerous builds = 0

unfix 4

fix 5 all nvt temp 3700000 ${T} 100.0
fix 5 all nvt temp 3700000 300 100.0
run ${steps_gen}
run 5000
Generated 0 of 1 mixed pair_coeff terms from geometric mixing rule
Per MPI rank memory allocation (min/avg/max) = 6.154 | 6.155 | 6.156 Mbytes
   Step          Temp          E_pair         E_mol          TotEng         Press     
   1005000   3756745.5     -200206.06      0              10986740       6.9867329    
   1010000   70273.972     -201625.95      0              7637.9355      0.095547735  
Loop time of 0.0886649 on 4 procs for 5000 steps with 1000 atoms

Performance: 4872.277 ns/day, 0.005 hours/ns, 56392.095 timesteps/s
99.5% CPU use with 4 MPI tasks x 1 OpenMP threads

MPI task timing breakdown:
Section |  min time  |  avg time  |  max time  |%varavg| %total
---------------------------------------------------------------
Pair    | 0.0045421  | 0.0050386  | 0.0054657  |   0.5 |  5.68
Neigh   | 0.0057304  | 0.0059374  | 0.0061536  |   0.2 |  6.70
Comm    | 0.041212   | 0.041873   | 0.042414   |   0.2 | 47.23
Output  | 0.0017679  | 0.001771   | 0.00178    |   0.0 |  2.00
Modify  | 0.022334   | 0.023284   | 0.025178   |   0.8 | 26.26
Other   |            | 0.01076    |            |       | 12.14

Nlocal:            250 ave         280 max         231 min
Histogram: 1 0 1 1 0 0 0 0 0 1
Nghost:           77.5 ave          85 max          71 min
Histogram: 1 0 1 0 0 0 1 0 0 1
Neighs:              9 ave          13 max           6 min
Histogram: 1 1 0 0 0 1 0 0 0 1

Total # of neighbors = 36
Ave neighs/atom = 0.036
Neighbor list builds = 53
Dangerous builds = 0

# Thermo #
thermo_style custom step temp press pe ke etotal epair lx ly lz xlo xhi ylo yhi zlo zhi vol density dt time

# Run stle #
run_style verlet

# Run #
timestep ${ts}
timestep 1
thermo ${ts_save}
thermo 50
# run ${steps_gen}

# write restart #
write_restart ${write_restart}
write_restart ./pgnpmf/4060/genpmf.res
System init for write_restart ...
Generated 0 of 1 mixed pair_coeff terms from geometric mixing rule


Total wall time: 0:00:19
