ITEM: TIMESTEP
0
ITEM: NUMBER OF ATOMS
1000
ITEM: BOX BOUNDS pp pp pp
-1.0000000000000000e+02 4.1000000000000000e+03
-1.0000000000000000e+02 4.1000000000000000e+03
-1.0000000000000000e+02 4.1000000000000000e+03
ITEM: ATOMS type x y z ix iy iz
1 505.243 304.431 193.592 0 0 0
1 371.676 627.876 425.658 0 0 0
1 179.469 491.015 592.241 0 0 0
1 829.026 889.345 117.704 0 0 0
1 702.927 174.627 628.439 0 0 0
1 871.84 299.339 871.066 0 0 0
1 597.643 851.143 495.01 0 0 0
1 525.329 939.296 42.192 0 0 0
1 643.02 643.408 991.202 0 0 0
1 835.826 844.489 643.652 0 0 0
1 81.996 228.568 640.213 0 0 0
1 894.549 136.18 988.486 0 0 0
1 798.354 541.559 373.948 0 0 0
1 793.668 315.033 690.523 0 0 0
1 714.711 22.413 603.005 0 0 0
1 447.933 570.197 619.277 0 0 0
1 365.279 976.051 227.802 0 0 0
1 787.543 20.508 899.653 0 0 0
1 64.533 548.346 755.866 0 0 0
1 435.147 575.084 71.92 0 0 0
1 804.281 14.331 266.907 0 0 0
1 756.223 437.65 275.657 0 0 0
1 294.3 214.446 976.725 0 0 0
1 310.621 297.374 338.753 0 0 0
1 670.772 660.404 400.442 0 0 0
1 231.646 916.611 495.797 0 0 0
1 514.819 496.448 484.735 0 0 0
1 43.009 788.511 499.043 0 0 0
1 730.51 753.937 23.478 0 0 0
1 415.639 48.142 429.357 0 0 0
1 349.209 11.546 917.192 0 0 0
1 263.444 686.272 860.531 0 0 0
1 481.328 666.046 525.824 0 0 0
1 880.745 366.321 42.283 0 0 0
1 162.46 964.515 186.019 0 0 0
1 354.808 154.551 816.136 0 0 0
1 194.097 452.866 474.884 0 0 0
1 56.874 967.972 71.927 0 0 0
1 674.348 421.892 759.473 0 0 0
1 844.031 753.33 916.938 0 0 0
1 964.141 231.758 465.513 0 0 0
1 582.886 578.954 314.966 0 0 0
1 161.133 686.49 184.564 0 0 0
1 993.818 583.5 449.78 0 0 0
1 31.354 489.978 188.189 0 0 0
1 364.855 45.722 303.608 0 0 0
1 247.323 40.37 772.664 0 0 0
1 897.457 81.412 528.409 0 0 0
1 891.97 706.962 327.736 0 0 0
1 881.873 941.093 559.824 0 0 0
1 516.732 980.559 963.964 0 0 0
1 490.676 143.009 97.37 0 0 0
1 938.659 509.658 164.933 0 0 0
1 310.454 426.343 1010.08 0 0 0
1 879.419 935.148 817.783 0 0 0
1 736.627 116.28 73.02 0 0 0
1 733.128 7.655 12.347 0 0 0
1 766.037 621.554 272.167 0 0 0
1 385.859 769.709 42.909 0 0 0
1 676.195 493.256 438.624 0 0 0
1 596.673 293.886 715.7 0 0 0
1 151.096 864.636 307.055 0 0 0
1 17.646 535.525 894.987 0 0 0
1 616.197 604.097 178.987 0 0 0
1 738.156 727.155 169.94 0 0 0
1 480.57 627.576 853.912 0 0 0
1 79.138 268.956 422.447 0 0 0
1 625.049 690.341 3.374 0 0 0
1 138.883 673.494 50.239 0 0 0
1 542.862 406.296 332.495 0 0 0
1 232.487 546.942 937.044 0 0 0
1 471.794 277.82 734.741 0 0 0
1 339.035 379.393 752.925 0 0 0
1 269.812 154.337 497.073 0 0 0
1 578.988 102.686 853.708 0 0 0
1 888.031 160.439 166.465 0 0 0
1 136.143 496.034 266.341 0 0 0
1 576.46 433.248 130.85 0 0 0
1 791.712 814.386 388.691 0 0 0
1 622.031 313.169 391.38 0 0 0
1 249.741 593.158 280.555 0 0 0
1 88.033 588.126 334.191 0 0 0
1 805.722 528.917 164.132 0 0 0
1 175.082 225.554 790.159 0 0 0
1 808.675 751.901 542.628 0 0 0
1 434.477 274.843 358.48 0 0 0
1 597.076 207.81 91.179 0 0 0
1 802.148 172.99 339.706 0 0 0
1 816.361 851.39 245.766 0 0 0
1 120.751 150.596 972.735 0 0 0
1 528.916 661.582 647.337 0 0 0
1 876.203 313.45 593.1 0 0 0
1 667.016 556.13 719.407 0 0 0
1 5.887 670.405 377.726 0 0 0
1 637.867 853.396 640.828 0 0 0
1 888.249 434.386 711.525 0 0 0
1 415.465 869.074 476.65 0 0 0
1 656.332 878.557 969.537 0 0 0
1 281.277 288.373 666.651 0 0 0
1 944.561 1016.89 228.639 0 0 0
1 2765.82 790.365 4.328 0 0 0
1 2793.8 523.509 928.594 0 0 0
1 2730.05 859.276 401.995 0 0 0
1 2779.97 490.501 758.076 0 0 0
1 2771.13 438.161 16.133 0 0 0
1 2540.51 644.321 534.648 0 0 0
1 2438.12 369.929 875.621 0 0 0
1 2659.33 921.999 686.804 0 0 0
1 2488.93 449.052 682.805 0 0 0
1 2684.56 470.397 360.219 0 0 0
1 2496.32 650.442 876.772 0 0 0
1 2647.77 15.146 293.777 0 0 0
1 2408.47 88.114 537.435 0 0 0
1 2344.17 950.949 669.91 0 0 0
1 2277.23 908.158 292.817 0 0 0
1 2529.07 662.556 361.116 0 0 0
1 2476.97 944.516 805.122 0 0 0
1 2466.1 451.842 0 0 0 0
1 2319.7 0 816.918 0 0 0
1 2593.96 437.729 216.745 0 0 0
1 2361.75 293.376 820.226 0 0 0
1 2786.68 348.117 657.786 0 0 0
1 2499.26 669.778 756.035 0 0 0
1 2633.89 356.443 864.179 0 0 0
1 2731.15 90.393 946.42 0 0 0
1 2803.48 843.169 666.897 0 0 0
1 2499.2 15.841 942.508 0 0 0
1 2657.01 258.209 591.45 0 0 0
1 2566.44 496.411 853.994 0 0 0
1 2407.58 721.647 835.171 0 0 0
1 2243.71 527.296 438.857 0 0 0
1 2460.69 699.521 136.176 0 0 0
1 2291.17 957.205 787.13 0 0 0
1 2500.91 292.064 506.153 0 0 0
1 2430.36 854.724 323.125 0 0 0
1 2740.26 647.929 234.398 0 0 0
1 2669.81 0 154.419 0 0 0
1 2315.34 223.033 697.42 0 0 0
1 2605.26 785.314 337.608 0 0 0
1 2199.31 97.406 805.335 0 0 0
1 2288.2 803.879 189.289 0 0 0
1 2348.89 415.538 0 0 0 0
1 2509.76 153.601 607.675 0 0 0
1 2806.49 299.694 386.297 0 0 0
1 2818.24 680.736 914.262 0 0 0
1 2511.31 933.163 42.558 0 0 0
1 2526.34 209.588 788.017 0 0 0
1 2580.93 558.95 297.09 0 0 0
1 2428.16 41.92 1043.1 0 0 0
1 2766.91 276.529 939.339 0 0 0
1 2807.43 950.518 381.698 0 0 0
1 2611.48 748.382 0.174 0 0 0
1 2461.68 877.743 1175.72 0 0 0
1 2500.41 433.104 422.242 0 0 0
1 2690.92 840.828 193.605 0 0 0
1 2509.27 0.131 318.154 0 0 0
1 2307.44 591.649 0 0 0 0
1 2747.94 457.993 561.716 0 0 0
1 2300.09 230.862 274.936 0 0 0
1 2272.72 757.527 357.429 0 0 0
1 2512.92 301.147 345.769 0 0 0
1 2528.81 785.367 208.64 0 0 0
1 2469.58 536.134 363.291 0 0 0
1 2434.02 686.316 3.174 0 0 0
1 2449.38 745.639 1001.49 0 0 0
1 2406.19 361.54 153.326 0 0 0
1 2393.5 653.465 488.141 0 0 0
1 2795.76 834.863 519.646 0 0 0
1 2363.51 987.321 499.373 0 0 0
1 2710.01 0.46 844.239 0 0 0
1 2439.68 777.544 426.685 0 0 0
1 2581.2 22.229 850.892 0 0 0
1 2295.66 491.289 771.233 0 0 0
1 2904.61 812.098 774.744 0 0 0
1 2816.31 867.989 920.726 0 0 0
1 2646.67 171.914 248.7 0 0 0
1 2735 755.776 990.526 0 0 0
1 2626.81 681.758 949.13 0 0 0
1 2770.47 142.655 731.027 0 0 0
1 2823.18 751.891 392.228 0 0 0
1 2472.44 537.39 179.998 0 0 0
1 2279.94 358.914 578.863 0 0 0
1 2244.9 543.266 131.814 0 0 0
1 2772.53 281.178 104.867 0 0 0
1 2337.78 626.985 246.671 0 0 0
1 2717.77 604.907 79.432 0 0 0
1 2272.27 744.12 961.605 0 0 0
1 2713.5 329.415 231.519 0 0 0
1 2254.52 369.652 195.942 0 0 0
1 2357.68 292.478 397.941 0 0 0
1 2498.86 147.462 131.727 0 0 0
1 2712.61 144.273 430.799 0 0 0
1 2416.19 1092.71 898.433 0 0 0
1 2589.64 870.042 969.162 0 0 0
1 2387.96 570.784 589.166 0 0 0
1 2678.12 957.841 262.933 0 0 0
1 2723.68 868.688 813.924 0 0 0
1 2236.4 82.169 971.647 0 0 0
1 2702.53 190.28 0 0 0 0
1 2719.24 477.479 130.515 0 0 0
1 547.954 2804.98 589.377 0 0 0
1 713.916 2569.6 585.498 0 0 0
1 855.043 2700.51 152.035 0 0 0
1 622.846 2880.7 493.575 0 0 0
1 357.438 2462.18 856.689 0 0 0
1 544.159 2567.05 11.284 0 0 0
1 152.152 3115.15 49.887 0 0 0
1 333.248 2723.34 81.125 0 0 0
1 469.501 2843.74 760.598 0 0 0
1 551.764 2967.52 752.829 0 0 0
1 207.497 2954.59 800.943 0 0 0
1 819.654 2409.57 830.748 0 0 0
1 828.198 2989.22 308.807 0 0 0
1 861.96 2970.58 588.31 0 0 0
1 514.06 2684.95 713.623 0 0 0
1 982.873 2432.92 26.155 0 0 0
1 767.529 3042.67 179.723 0 0 0
1 729.71 2876.55 16.705 0 0 0
1 688.391 2720.18 176.22 0 0 0
1 105.291 2901.86 6.588 0 0 0
1 128.354 2693.31 862.849 0 0 0
1 688.116 2734.73 2.292 0 0 0
1 226.99 3094.99 710.822 0 0 0
1 247.81 2572.93 32.934 0 0 0
1 522.958 3036.55 159.688 0 0 0
1 456.266 3094.83 244.224 0 0 0
1 431.822 2962.29 290.376 0 0 0
1 647.748 2441.72 370.987 0 0 0
1 322.467 2574.9 713.878 0 0 0
1 0.172 3040.89 41.555 0 0 0
1 826.639 2874.02 347.288 0 0 0
1 815.604 3025.72 38.782 0 0 0
1 548.022 2685.02 251.698 0 0 0
1 393.408 2946.66 431.921 0 0 0
1 909.506 2345.64 240.878 0 0 0
1 579.415 2829.81 116.388 0 0 0
1 309.48 2867.86 782.548 0 0 0
1 119.567 3007.6 127.667 0 0 0
1 736.67 2926.38 616.58 0 0 0
1 348.697 2803.7 393.207 0 0 0
1 944.04 3091.74 477.694 0 0 0
1 370.27 2608.3 253.919 0 0 0
1 304.269 2629.96 861.316 0 0 0
1 538.837 2427.64 710.877 0 0 0
1 853.06 2800.82 542.276 0 0 0
1 796.246 2653.26 324.997 0 0 0
1 733.819 2923.5 439.704 0 0 0
1 396.972 2926.37 16.843 0 0 0
1 63.709 2659.55 140.077 0 0 0
1 9.37 2928.06 781.229 0 0 0
1 796.062 3032.79 484.717 0 0 0
1 984.073 2632.53 264.54 0 0 0
1 120.088 2515.87 343.445 0 0 0
1 7.931 2480.68 141.887 0 0 0
1 210.464 3082.96 184.083 0 0 0
1 1068.86 2802.92 767.768 0 0 0
1 225.594 2856.73 142.356 0 0 0
1 524.676 2844.12 233.565 0 0 0
1 666.128 3146.34 306.852 0 0 0
1 247.197 2749.36 692.774 0 0 0
1 171.967 3096.78 528.708 0 0 0
1 274.676 2734.22 278.689 0 0 0
1 181.898 2878.51 594.155 0 0 0
1 0.521 2761.3 648.251 0 0 0
1 865.47 2875.23 746.331 0 0 0
1 748.875 2424.9 520.912 0 0 0
1 413.698 2750.97 650.114 0 0 0
1 637.13 2609.74 368.142 0 0 0
1 74.056 2998.44 659.993 0 0 0
1 473.721 2507.21 784.149 0 0 0
1 303.021 2597.25 590.134 0 0 0
1 597.426 3043.3 638.815 0 0 0
1 972.77 2948.18 814.456 0 0 0
1 69.023 3121.25 804.828 0 0 0
1 885.323 2548.65 893.376 0 0 0
1 265.348 2650.32 187.155 0 0 0
1 614.591 2631.93 522.377 0 0 0
1 984.489 3114.37 73.255 0 0 0
1 87.961 2437.05 251.801 0 0 0
1 287.888 3135.84 331.068 0 0 0
1 837.268 2352.01 474.465 0 0 0
1 420.409 2685.12 799.216 0 0 0
1 805.774 2501.11 192.102 0 0 0
1 951.951 2865.82 586.93 0 0 0
1 244.429 2372.16 267.582 0 0 0
1 65.095 2777.26 395.784 0 0 0
1 359.173 2988.16 768.22 0 0 0
1 161.383 2580.51 801.358 0 0 0
1 144.946 2542.98 138.11 0 0 0
1 245.713 2421.92 685.087 0 0 0
1 305.533 2450.11 96.362 0 0 0
1 659.857 2420.52 840.442 0 0 0
1 856.573 2914.93 160.884 0 0 0
1 443.023 2452.12 124.045 0 0 0
1 303.622 3059.92 458.865 0 0 0
1 249.363 2540.23 446.926 0 0 0
1 705.31 2803.41 817.804 0 0 0
1 625.893 2542.95 918.993 0 0 0
1 4.373 2569.85 301.38 0 0 0
1 3.63 3085.76 613.236 0 0 0
1 10.266 56.926 2523.39 0 0 0
1 3.1 264.401 2691.9 0 0 0
1 13.991 71.951 2760.13 0 0 0
1 73.245 395.07 2736.03 0 0 0
1 929.479 125.4 2635.34 0 0 0
1 411.365 14.911 2877.65 0 0 0
1 53.413 931.194 2452.1 0 0 0
1 0.148 300.13 2522.59 0 0 0
1 437.794 338.742 2626.11 0 0 0
1 901.98 276.162 2838.19 0 0 0
1 586.088 777.821 2430.59 0 0 0
1 552.947 264.941 2775.77 0 0 0
1 378.899 532.042 2601.97 0 0 0
1 51.827 286.75 2808.22 0 0 0
1 0.19 711.529 2616.94 0 0 0
1 432.646 842.987 2892.7 0 0 0
1 184.033 795.245 2842.77 0 0 0
1 597.519 547.837 2495.57 0 0 0
1 495.866 0.002 2592.68 0 0 0
1 359.801 334.457 2862.61 0 0 0
1 523.884 52.57 2370.77 0 0 0
1 676.497 99.047 2943.98 0 0 0
1 328.386 759.69 2389.99 0 0 0
1 342.146 609.102 2794.7 0 0 0
1 594.434 234.729 2563.88 0 0 0
1 283.616 532.055 2683.56 0 0 0
1 170.849 299.218 2732.89 0 0 0
1 36.783 914.016 2888.84 0 0 0
1 285.429 723.5 2640.44 0 0 0
1 933.887 383.777 2777.77 0 0 0
1 664.746 182.215 2855.07 0 0 0
1 124.442 842.661 2336.2 0 0 0
1 784.313 964.796 2753.28 0 0 0
1 596.972 1021.38 2467.4 0 0 0
1 351.696 439.557 2753.94 0 0 0
1 881.438 803.269 2772.19 0 0 0
1 434.688 661.225 2351.2 0 0 0
1 829.16 438.147 2805.85 0 0 0
1 143.514 179.477 2719.11 0 0 0
1 549.04 760.998 2743.49 0 0 0
1 326.244 573.568 2448.56 0 0 0
1 923.685 86.142 2458.45 0 0 0
1 84.902 515.637 2814.52 0 0 0
1 595.673 101.922 2684.84 0 0 0
1 167.858 605.705 2847 0 0 0
1 510.838 161.824 2618.02 0 0 0
1 759.635 354.199 2743.99 0 0 0
1 812.183 827.544 2422.33 0 0 0
1 732.563 771.442 2914.76 0 0 0
1 213.35 104.705 2622.72 0 0 0
1 217.802 651.736 2388.49 0 0 0
1 752.326 751.362 2502.13 0 0 0
1 485.278 337.196 2864.36 0 0 0
1 313.518 174.993 2725.62 0 0 0
1 940.936 729.067 2474.91 0 0 0
1 917.419 912.81 2726.09 0 0 0
1 163.588 743.434 2588.19 0 0 0
1 390.903 139.168 2963.8 0 0 0
1 69.15 184.683 2611.97 0 0 0
1 265.6 903.754 2636.63 0 0 0
1 958.383 380.109 2366.72 0 0 0
1 721.723 935.316 2921.23 0 0 0
1 616.315 663.872 2532.79 0 0 0
1 474.912 66.689 2731.28 0 0 0
1 678.336 188.306 2730.29 0 0 0
1 29.795 766.618 2948.27 0 0 0
1 620.293 859.767 2303.22 0 0 0
1 807.868 124.143 2554.27 0 0 0
1 111.951 718.762 2379.13 0 0 0
1 670.163 455.099 2711.21 0 0 0
1 230.272 337.561 2450.01 0 0 0
1 361.797 254.113 2555.7 0 0 0
1 899.218 700.094 2677.13 0 0 0
1 325.453 299.547 2711.91 0 0 0
1 566.732 394.587 2674.75 0 0 0
1 188.743 418.927 2795.49 0 0 0
1 434.128 1007.22 2356.99 0 0 0
1 717.078 868.104 2601.58 0 0 0
1 494.006 603.59 2933.39 0 0 0
1 425.98 231.306 2723.8 0 0 0
1 873.045 214.213 2410.22 0 0 0
1 488.825 884.437 2317.28 0 0 0
1 838.114 523.925 2684.5 0 0 0
1 241.422 242.464 2815.81 0 0 0
1 983.27 600.71 2916.79 0 0 0
1 714.493 349.987 2936.03 0 0 0
1 468.507 743.23 2642.7 0 0 0
1 0.158 578.775 2936.13 0 0 0
1 457.474 990.537 2832.29 0 0 0
1 384.005 650.94 2684.01 0 0 0
1 170.018 974.309 2570.19 0 0 0
1 879.277 543.066 2882.69 0 0 0
1 500.095 872.869 2501.78 0 0 0
1 283.313 562.47 2315.65 0 0 0
1 764.145 260.771 2614.23 0 0 0
1 312.738 779.427 2907.05 0 0 0
1 361.306 675.308 2535.98 0 0 0
1 749.886 481.947 2375.52 0 0 0
1 687.705 47.009 2744.44 0 0 0
1 355.735 889.777 2471.33 0 0 0
1 2401.06 2601.36 456.473 0 0 0
1 2536.23 2475.09 979.506 0 0 0
1 2307.83 2216.43 432.585 0 0 0
1 2280.36 2376.95 640.304 0 0 0
1 2683.42 2568.25 581.293 0 0 0
1 2873.91 2766.61 575.597 0 0 0
1 2271.89 2871.87 288.919 0 0 0
1 2340.55 2551.92 309.59 0 0 0
1 2710.66 2401.44 190.852 0 0 0
1 2648.37 2401.35 743.528 0 0 0
1 2744.01 2316.86 11.976 0 0 0
1 2254.27 2524.13 986.126 0 0 0
1 2383.36 2422.92 331.955 0 0 0
1 2744.96 2613.22 938.987 0 0 0
1 2339.46 2303.92 563.282 0 0 0
1 2504.28 2664.93 545.085 0 0 0
1 2173.1 2452.78 274.956 0 0 0
1 2697.83 2679.16 160.59 0 0 0
1 2351.32 2636.78 849.171 0 0 0
1 2302.43 2659.56 0.297 0 0 0
1 2220.3 2542.45 341.376 0 0 0
1 2261.32 2576.51 747.553 0 0 0
1 2289.45 2284.37 902.963 0 0 0
1 2454.79 2687.34 1000.23 0 0 0
1 2831.72 2601.55 375.796 0 0 0
1 2714.64 2597.15 406.712 0 0 0
1 2340.7 2643.32 131.911 0 0 0
1 2744.25 2531.44 260.242 0 0 0
1 2596.56 2389.03 608.307 0 0 0
1 2754.18 2285.63 905.572 0 0 0
1 2482.56 2582.98 137.34 0 0 0
1 2709.04 2388.56 854.957 0 0 0
1 2485.96 2333.75 362.264 0 0 0
1 2189.44 2545.7 191.894 0 0 0
1 2747.84 2316.18 504.798 0 0 0
1 2429.54 2779.61 745.519 0 0 0
1 2567.86 2826.36 96.354 0 0 0
1 2599.85 2604.1 806.28 0 0 0
1 2631.73 2849.92 312.246 0 0 0
1 2642.29 2266.15 696.551 0 0 0
1 2460.51 2482.96 406.795 0 0 0
1 2197.77 2747.53 595.582 0 0 0
1 2664.78 2531.15 883.803 0 0 0
1 2505.92 2268.49 727.192 0 0 0
1 2573.26 2431.04 399.457 0 0 0
1 2663.69 2449.64 488.98 0 0 0
1 2422.9 2654.94 640.738 0 0 0
1 2310.33 2684.32 700.687 0 0 0
1 2427.07 2681.58 338.431 0 0 0
1 2298.02 2272.74 771.219 0 0 0
1 2669.25 2500.23 96.182 0 0 0
1 2291.75 2741.52 210.903 0 0 0
1 2311.25 2513.65 501.059 0 0 0
1 2536.26 2662.95 14.72 0 0 0
1 2304.56 2589.34 612.109 0 0 0
1 2707.88 2756.99 682.456 0 0 0
1 2362.79 2291.39 186.064 0 0 0
1 2536.36 2525.49 307.952 0 0 0
1 2352.75 2408.61 57.712 0 0 0
1 2551.84 2500.7 65.053 0 0 0
1 2740.14 2609.64 729.32 0 0 0
1 2390.19 2496.21 834.893 0 0 0
1 2428.77 2871.44 374.94 0 0 0
1 2343.3 2779.21 353.672 0 0 0
1 2441 2515.39 561.069 0 0 0
1 2672.18 2765.48 429.191 0 0 0
1 2481.82 2415.87 868.168 0 0 0
1 2689.65 2765.4 559.715 0 0 0
1 2500.9 2520.46 779.432 0 0 0
1 2828.07 2421.12 519.891 0 0 0
1 2474.54 2735.04 91.31 0 0 0
1 2595.25 2297.98 97.346 0 0 0
1 2608.1 2337.45 918.299 0 0 0
1 2765.66 2716.93 366.993 0 0 0
1 2541.94 2769.34 493.31 0 0 0
1 2429.53 2579.39 9.206 0 0 0
1 2591.34 2496.17 202.546 0 0 0
1 2614.86 2385 0.666 0 0 0
1 2563.08 2508.66 551.914 0 0 0
1 2595.99 2375.26 225.251 0 0 0
1 2424.75 2413.95 155.285 0 0 0
1 2722.3 2728.25 1002.98 0 0 0
1 2616.13 2636.91 497.421 0 0 0
1 2481.73 2578.97 939.274 0 0 0
1 2698.89 2672.45 0.178 0 0 0
1 2250.03 2441.42 767.782 0 0 0
1 2750.58 2750.49 248.697 0 0 0
1 2300.9 2515.17 17.263 0 0 0
1 2276.41 2632.58 460.294 0 0 0
1 2270.17 2775.92 9.458 0 0 0
1 2325.87 2518.93 160.99 0 0 0
1 2836.23 2445.72 249.916 0 0 0
1 2734.08 2285.47 328.485 0 0 0
1 2560.97 2648.88 307.873 0 0 0
1 2540.63 2770.2 938.574 0 0 0
1 2471.73 2409.13 26.723 0 0 0
1 2258.67 2349.55 405.262 0 0 0
1 2860.5 2594.35 501.676 0 0 0
1 2172.42 2704.74 323.82 0 0 0
1 2577.39 2549.07 679.049 0 0 0
1 2709 796.104 2770.25 0 0 0
1 2688.11 372.258 2487.7 0 0 0
1 2316.8 470.694 2468.66 0 0 0
1 2909.6 419.905 2317.34 0 0 0
1 2680.07 13.277 2314.64 0 0 0
1 2761.39 466.754 2508.9 0 0 0
1 2595.96 589.612 2742.81 0 0 0
1 2537.2 244.933 2354.89 0 0 0
1 2765.49 987.392 2306.43 0 0 0
1 2663.75 942.395 2764.65 0 0 0
1 2504.14 337.916 2671.51 0 0 0
1 2365.98 869.825 2860.78 0 0 0
1 2769.75 605.251 2954.05 0 0 0
1 2549.13 936.54 2549.05 0 0 0
1 2797.07 634.431 2780.61 0 0 0
1 2584.37 36.634 2525.56 0 0 0
1 2374.3 1052.83 2422.63 0 0 0
1 2414.74 295.455 2600.21 0 0 0
1 2306.53 182.603 2691.05 0 0 0
1 2494.87 114.111 2550.64 0 0 0
1 2304.91 43.807 2402.55 0 0 0
1 2327.67 944.562 2456.98 0 0 0
1 2871.24 839.296 2637.59 0 0 0
1 2702.71 544.761 2306.42 0 0 0
1 2445.55 539.117 2602.15 0 0 0
1 3302.63 1426.03 2094.27 0 0 0
1 2571.58 458.635 2671.32 0 0 0
1 2416.45 149.148 2759.04 0 0 0
1 2568.07 853.172 2462.26 0 0 0
1 2541.56 463.521 2914.16 0 0 0
1 2410.87 419.447 2707.77 0 0 0
1 2473.3 801.584 2549.43 0 0 0
1 2575.12 914.817 2882.75 0 0 0
1 2476.85 418.214 2816.68 0 0 0
1 2300.97 908.367 2570.05 0 0 0
1 2369.55 774.395 2752.98 0 0 0
1 2323.74 435.982 2621.7 0 0 0
1 2472.71 78.748 2377.03 0 0 0
1 2600.25 659.567 2464.24 0 0 0
1 2916.82 289.255 2771.52 0 0 0
1 2779.26 216.228 2412.06 0 0 0
1 2497.38 667.412 2715.83 0 0 0
1 2616.55 114.859 2641.38 0 0 0
1 2846.16 768.046 2750.78 0 0 0
1 2468.15 0.011 2583.57 0 0 0
1 2846.57 153.332 2307.3 0 0 0
1 2656.56 456.66 2757.44 0 0 0
1 2667.34 35.809 2764.02 0 0 0
1 2396.93 52.934 2498.14 0 0 0
1 2849.53 519.692 2788.43 0 0 0
1 2792.28 269.502 2660.99 0 0 0
1 2471.83 680.286 2835.4 0 0 0
1 2843.34 66.433 2580.23 0 0 0
1 2292.95 298.025 2631.02 0 0 0
1 2605.2 752.868 2576.97 0 0 0
1 2912.66 157.333 2780.03 0 0 0
1 2781.36 710.187 2879.06 0 0 0
1 2697.65 866.506 2670.75 0 0 0
1 2837.07 59.056 2722.31 0 0 0
1 2870.01 967.681 2612.99 0 0 0
1 2716.05 124.499 2279.17 0 0 0
1 2700.27 274.339 2580.38 0 0 0
1 2375 0.713 2670.79 0 0 0
1 2925.53 154.9 2645.49 0 0 0
1 2646.04 160.546 2520.02 0 0 0
1 2468.74 798.917 2859.86 0 0 0
1 2581.38 258.256 2605.71 0 0 0
1 2439.28 711.276 2335.02 0 0 0
1 2566.15 317.869 2812.71 0 0 0
1 2645.72 556.456 2632.55 0 0 0
1 2771.32 454.204 2370.54 0 0 0
1 2514.39 284.431 2977.08 0 0 0
1 2820.4 400.51 2756.22 0 0 0
1 2746.3 91.056 2648.57 0 0 0
1 2831.27 347.862 2398.43 0 0 0
1 2205.64 122.539 2501.56 0 0 0
1 2768.35 775.792 2626.55 0 0 0
1 2651.06 341.364 2677.16 0 0 0
1 2702.93 547.891 2430.36 0 0 0
1 2128.22 14.664 2847.67 0 0 0
1 2541.78 56.226 2813.43 0 0 0
1 2657.64 776.558 2894.05 0 0 0
1 2311.4 424.5 2880.8 0 0 0
1 2347.12 955.197 2748.95 0 0 0
1 2874.15 152.18 2496.05 0 0 0
1 2479.57 559.201 2818.42 0 0 0
1 2874.43 966.238 2486.71 0 0 0
1 2689.35 1006.33 2884.36 0 0 0
1 2375.49 921.756 2237.32 0 0 0
1 2336.61 754.018 2458.22 0 0 0
1 2392.86 589.119 2723.05 0 0 0
1 2379.13 82.973 2297.54 0 0 0
1 2803.78 882.894 2757.94 0 0 0
1 2600.73 456.188 2478.11 0 0 0
1 2447.22 912.6 2455.45 0 0 0
1 2289.68 205.509 2447.72 0 0 0
1 2598.73 774.809 2702.81 0 0 0
1 2863.55 895.717 2313.94 0 0 0
1 2645.18 183.718 2362.63 0 0 0
1 2661.43 998.85 2653.91 0 0 0
1 18.578 2820.22 2975.24 0 0 0
1 587.881 2790.44 2405.32 0 0 0
1 224.977 2811.26 2422.5 0 0 0
1 49.574 2798.91 2826.63 0 0 0
1 639.415 2674.68 2568.84 0 0 0
1 539.403 2826.94 2549.21 0 0 0
1 833.326 2455.59 2935.09 0 0 0
1 763.67 2324.5 2742.18 0 0 0
1 413.368 2837.2 2340.14 0 0 0
1 484.006 2373.82 2859.17 0 0 0
1 873.964 2450.73 2475.17 0 0 0
1 250.496 2551.26 2516.09 0 0 0
1 806.34 2506.59 2737.3 0 0 0
1 797.972 2824.24 2867.12 0 0 0
1 146.908 2388.47 2987.11 0 0 0
1 693.107 2565.64 2905.7 0 0 0
1 562.455 2542.9 2872.37 0 0 0
1 481.181 2939.37 2640.35 0 0 0
1 734.871 2921.52 2672.73 0 0 0
1 184.836 2802.03 2835.11 0 0 0
1 436.763 2607.08 2353.87 0 0 0
1 336.009 2631.76 2948.01 0 0 0
1 470.01 2513.01 2633.61 0 0 0
1 155.35 2997.28 2612.72 0 0 0
1 861.908 2646.07 2591.34 0 0 0
1 604.305 2469.64 2439.89 0 0 0
1 318.235 2775.99 2847.91 0 0 0
1 247.562 2404.17 2601.28 0 0 0
1 359.09 2703.86 2386.32 0 0 0
1 197.132 2750.85 2712.37 0 0 0
1 374.787 2348.17 2904.76 0 0 0
1 193.951 2907.26 2717.9 0 0 0
1 175.766 2335.28 2880.19 0 0 0
1 34.426 2561.56 2650.1 0 0 0
1 497.179 2784.56 2827.96 0 0 0
1 142.784 2373.99 2766.36 0 0 0
1 557.355 2544.12 2539.79 0 0 0
1 294 2471.47 2431.4 0 0 0
1 763.829 2890.99 2483.08 0 0 0
1 467.942 2509.84 2451.33 0 0 0
1 302.844 2789.39 2649.57 0 0 0
1 89.791 2494.67 2427.35 0 0 0
1 750.823 2460.1 2480.74 0 0 0
1 528.361 2676.94 2294.39 0 0 0
1 880.323 2917.33 2819.59 0 0 0
1 713.151 2947.98 2808.36 0 0 0
1 112.694 2639.57 2586.08 0 0 0
1 203.663 2939.3 2450.43 0 0 0
1 28.138 2493.68 2750.91 0 0 0
1 372.664 2356.22 2727.46 0 0 0
1 748.643 2762.03 2457.6 0 0 0
1 235.819 2872.97 2945.41 0 0 0
1 363.575 2591.08 2662.89 0 0 0
1 781.382 2559.46 2622.69 0 0 0
1 209.853 2627.47 2761.2 0 0 0
1 477.763 2678.71 2543.05 0 0 0
1 593.605 2419.78 2582.91 0 0 0
1 600.909 2922.5 2646.39 0 0 0
1 269.268 2895.61 2543.81 0 0 0
1 86.049 2945.33 2764.99 0 0 0
1 472.488 2481.4 2332.03 0 0 0
1 888.645 2525.67 2839.28 0 0 0
1 678.623 2532.23 2564.8 0 0 0
1 747.068 2615.66 2775.78 0 0 0
1 382.597 2629.02 2481.24 0 0 0
1 918.312 2668.26 2793.46 0 0 0
1 848.382 2767.36 2370.2 0 0 0
1 540.949 2471.61 2748.31 0 0 0
1 868.37 2898.38 2593.92 0 0 0
1 727.686 2773.13 2627.26 0 0 0
1 900.567 2897.08 2378.09 0 0 0
1 665.734 2826.86 2719.45 0 0 0
1 477.948 2409.94 2521.78 0 0 0
1 310.385 2705.29 2744.96 0 0 0
1 51.236 2861.58 2580.33 0 0 0
1 423.592 2476.34 2793.88 0 0 0
1 225.545 2713.57 2949.18 0 0 0
1 169.795 2645.42 2340.42 0 0 0
1 738.722 2414.8 2660.32 0 0 0
1 276.437 2323.35 2393.28 0 0 0
1 826.841 2760.87 2757.83 0 0 0
1 465.794 2761.26 2453.61 0 0 0
1 714.686 2654.67 2662.99 0 0 0
1 909.595 2470.82 2350.04 0 0 0
1 10.913 2435.33 2855.53 0 0 0
1 840.854 2756.28 2543.94 0 0 0
1 525.154 2674.08 2910.79 0 0 0
1 505.906 2915.17 2895.22 0 0 0
1 175.072 2837.23 2598.57 0 0 0
1 402.41 2591.95 2827.59 0 0 0
1 27.729 2313.98 2809.22 0 0 0
1 271.129 2397.63 2297.88 0 0 0
1 0.129 2664.54 2850.14 0 0 0
1 214.216 2736.97 2542.59 0 0 0
1 539.525 2910.69 2443.05 0 0 0
1 36.714 2492.25 2548.1 0 0 0
1 601.294 2957.25 2329.13 0 0 0
1 888.621 2795.59 2654.72 0 0 0
1 591.802 2651.17 2800.72 0 0 0
1 662.169 2749.34 2861.23 0 0 0
1 2782.84 3001.54 2440.7 0 0 0
1 2716.65 2649.7 2556.13 0 0 0
1 2665.41 3123.94 2996.26 0 0 0
1 2818.45 2784.38 2860.73 0 0 0
1 3010.92 2867.44 2687.84 0 0 0
1 3045.51 2879.14 2900.24 0 0 0
1 2726.81 2649.03 2955.18 0 0 0
1 2987.19 3125.66 2529.84 0 0 0
1 2715.24 2550.13 2883.89 0 0 0
1 2475.29 2869.05 3135.21 0 0 0
1 2435.53 3019.05 3103.01 0 0 0
1 3068.16 2622.44 3070.9 0 0 0
1 2416.88 2801.29 2754.07 0 0 0
1 2612.8 2714.11 2538.19 0 0 0
1 2921.4 2971.28 2854.79 0 0 0
1 2463.02 2746.38 2971.96 0 0 0
1 2726.83 2895.79 2575.09 0 0 0
1 2933.02 2406.45 2988.47 0 0 0
1 2592.3 2702 2972.37 0 0 0
1 2601.27 2901.78 2725.43 0 0 0
1 2750.06 2426.43 2439.57 0 0 0
1 2628.91 2711.23 2813.76 0 0 0
1 3015.71 2830.29 3114.83 0 0 0
1 2686.95 2624.7 2672.26 0 0 0
1 2716.83 2836.11 2778.15 0 0 0
1 2368.58 2516.21 2883.53 0 0 0
1 2499.51 2852.55 2678.46 0 0 0
1 2559.75 2407.33 2422.13 0 0 0
1 3030.68 2451.09 2633.36 0 0 0
1 2608.41 2866.3 2856.62 0 0 0
1 2766.43 2512.24 2708.43 0 0 0
1 2829.52 2864.15 2743.44 0 0 0
1 2421.68 2393.65 2812.65 0 0 0
1 2438.1 2623.35 2910.73 0 0 0
1 2411.98 2514.2 2699.36 0 0 0
1 2783.91 2935.21 2873.93 0 0 0
1 2532.55 2476.88 2973.74 0 0 0
1 2415.75 3088.22 2657.9 0 0 0
1 2654.98 2489.91 2970.09 0 0 0
1 2888.09 2721.05 2674.59 0 0 0
1 2442.13 2900.1 2959.89 0 0 0
1 3014.28 3025.63 2707.45 0 0 0
1 2490.72 2607.81 2752.12 0 0 0
1 2433.23 2658.36 2375.6 0 0 0
1 2371.05 2910.97 2786.33 0 0 0
1 2506.08 3088.63 2771.65 0 0 0
1 2951.33 2829.35 2981.02 0 0 0
1 2869.9 2641.91 2541.45 0 0 0
1 2778.61 2540.41 2580.6 0 0 0
1 2732.3 2891.42 3058.61 0 0 0
1 2499.24 2811.42 2871.14 0 0 0
1 2611.63 2497.8 3089.54 0 0 0
1 3075.32 2645.27 2590.93 0 0 0
1 2935.93 2835.53 2856.98 0 0 0
1 3076.75 2916.34 2523.58 0 0 0
1 2917.19 2494.93 2482.58 0 0 0
1 2426.24 3080.26 2979.99 0 0 0
1 3062.01 3077.21 2398.63 0 0 0
1 2509.47 3020.8 2615.35 0 0 0
1 2786.76 2775.37 2567.38 0 0 0
1 2822.86 2561.33 2805.33 0 0 0
1 2913.51 2938.2 3093.14 0 0 0
1 2816.16 3102.5 2823.41 0 0 0
1 3042.28 2793.45 2812.21 0 0 0
1 2391.52 2811.02 2633.45 0 0 0
1 2716.85 2773.17 3102.08 0 0 0
1 2531 3045.4 3031.75 0 0 0
1 2551.49 2472.17 2524.43 0 0 0
1 2495.25 3050.42 2370.79 0 0 0
1 2955.95 3008.76 2582.82 0 0 0
1 2780.17 2660.16 3076.18 0 0 0
1 2409.7 2821.83 2436.11 0 0 0
1 2855.16 2816.69 3065.53 0 0 0
1 2512.89 2613.47 2630.43 0 0 0
1 3089.38 2477.11 3001.14 0 0 0
1 2498 2941.94 2809.43 0 0 0
1 2890.53 2898.79 2502.92 0 0 0
1 2594.81 2691.93 3095.37 0 0 0
1 2381.05 2740.03 2876.43 0 0 0
1 2490.69 2957.61 2502.14 0 0 0
1 2848.82 2400.69 2542.75 0 0 0
1 2889.11 2953.99 2687.1 0 0 0
1 3050.94 2935.09 2789.16 0 0 0
1 2580.99 2592.97 2874.61 0 0 0
1 3076.97 2913.61 3013.69 0 0 0
1 2443.5 2419.22 2380.08 0 0 0
1 2494.26 2758.89 3088.2 0 0 0
1 2597.57 2585.16 2541.9 0 0 0
1 2533.88 2588.12 2309.38 0 0 0
1 2705.92 2767.64 2937.69 0 0 0
1 2892.42 2589 2699.97 0 0 0
1 2914.06 2484.58 3085.8 0 0 0
1 2773.9 2674.55 2823.52 0 0 0
1 2400.38 2974.86 2416.24 0 0 0
1 2886.41 2934.51 2972.71 0 0 0
1 2605.23 2889.57 2539.28 0 0 0
1 3004.15 2553.03 2555.73 0 0 0
1 2837.89 2463.41 2905.99 0 0 0
1 2943.25 2694.18 2449.66 0 0 0
1 2598.32 2960.72 2976.43 0 0 0
2 663.645 275.303 518.067 0 0 0
2 586.874 390.813 501.487 0 0 0
2 927.06 397.709 396.462 0 0 0
2 253.559 464.185 97.072 0 0 0
2 330.643 382.606 196.778 0 0 0
2 395.506 892.403 26.687 0 0 0
2 762.272 570.524 0.216 0 0 0
2 298.002 398.271 523.255 0 0 0
2 508.849 524.541 727.788 0 0 0
2 905.661 964.587 681.024 0 0 0
2 57.144 632.693 501.704 0 0 0
2 30.128 454.539 15.971 0 0 0
2 347.282 817.476 627.982 0 0 0
2 482.892 75.831 225.176 0 0 0
2 608.229 194.576 232.907 0 0 0
2 613.545 598.2 547.918 0 0 0
2 330.47 723.931 501.582 0 0 0
2 180.601 379.634 50.377 0 0 0
2 174.844 722.798 763.677 0 0 0
2 253.231 865.688 220.644 0 0 0
2 879.873 683.366 115.506 0 0 0
2 778.658 564.591 632.061 0 0 0
2 192.284 520.608 730.845 0 0 0
2 531.732 850.4 206.871 0 0 0
2 206.148 791.258 931.426 0 0 0
2 2616.68 225.776 867.926 0 0 0
2 2521.05 167.485 472.999 0 0 0
2 2584.77 666.982 200.961 0 0 0
2 2000 2000 0 0 0 0
2 3236.3 334.938 80.215 0 0 0
2 2891.71 492.287 329.952 0 0 0
2 3271.35 321.369 707.337 0 0 0
2 2000 0 878.504 0 0 0
2 2762.72 65.037 523.989 0 0 0
2 3149.63 939.875 221.803 0 0 0
2 2550.69 686.103 1095.68 0 0 0
2 2527.47 130.71 266.189 0 0 0
2 2965.11 76.39 378.709 0 0 0
2 3058 388.682 533.349 0 0 0
2 3018.08 667.895 496.075 0 0 0
2 2953.48 597.833 46.263 0 0 0
2 2820.42 562.466 134.802 0 0 0
2 3441.45 935.474 850.806 0 0 0
2 2593.51 552.62 460.708 0 0 0
2 4000 593.789 172.115 0 0 0
2 3281.51 73.4 367.32 0 0 0
2 4000 0 1694.7 0 0 0
2 2682.84 317.959 379.184 0 0 0
2 3215.88 655.77 191.711 0 0 0
2 3095.75 311.105 140.403 0 0 0
2 184.351 2449.26 579.312 0 0 0
2 263.427 2669.74 440.119 0 0 0
2 616.225 2473.03 501.149 0 0 0
2 645.357 2588.85 159.157 0 0 0
2 1233.79 3041.06 2000 0 0 0
2 646.145 2948.49 314.929 0 0 0
2 302.875 2791.94 518.256 0 0 0
2 463.44 2753.24 400.978 0 0 0
2 145.399 2833.24 1066.78 0 0 0
2 476.344 2783.57 48.401 0 0 0
2 951.877 2824.84 4.167 0 0 0
2 380.105 2428.69 618.638 0 0 0
2 743.597 2889.23 246.258 0 0 0
2 21.158 2578.24 429.419 0 0 0
2 517.758 2943.44 30.909 0 0 0
2 947.462 2645.26 682.409 0 0 0
2 618.716 2866.73 730.643 0 0 0
2 148.531 2803.13 778.842 0 0 0
2 722.891 2446.77 679.202 0 0 0
2 745.783 2799.25 617.872 0 0 0
2 76.435 2842.95 272.337 0 0 0
2 969.659 2587.96 386.009 0 0 0
2 0 2162.9 0 0 0 0
2 754.62 2510.64 400.409 0 0 0
2 570.297 2577.38 701.038 0 0 0
2 853.356 662.635 2944.07 0 0 0
2 108.509 131.972 3144.56 0 0 0
2 920.764 376.956 3005.89 0 0 0
2 0.218 891.19 2586.84 0 0 0
2 211.737 339.851 2917.29 0 0 0
2 829.416 35.722 2929.03 0 0 0
2 520.327 903.662 3096.51 0 0 0
2 196.212 695.929 2728.12 0 0 0
2 773.453 605.257 2814.97 0 0 0
2 555.337 150.948 3031.84 0 0 0
2 341.648 112.042 2855.29 0 0 0
2 179.083 435.551 2577 0 0 0
2 437.39 881.956 2686.04 0 0 0
2 609.869 524.3 3159.06 0 0 0
2 682.642 541.273 2626.45 0 0 0
2 316.548 108.319 2534.41 0 0 0
2 147.675 612.816 2544.76 0 0 0
2 834.051 568.338 2517.9 0 0 0
2 390.604 105.738 2416.13 0 0 0
2 161.254 506.655 2988.3 0 0 0
2 314.583 436.838 2520.32 0 0 0
2 756.657 818.238 2712.26 0 0 0
2 729.957 559.076 3053.11 0 0 0
2 415.84 766.299 2797.76 0 0 0
2 114.248 669.045 2945.14 0 0 0
2 2816.86 2826.91 162.275 0 0 0
2 2414.48 2875.24 18.973 0 0 0
2 2444.18 2511.51 228.129 0 0 0
2 2844.24 2705.7 799.209 0 0 0
2 2692.02 2646.23 282.148 0 0 0
2 2828.43 2422.06 27.916 0 0 0
2 2530.48 2797.89 658.415 0 0 0
2 2824.18 2364.55 143.133 0 0 0
2 2787.88 2546.53 125.972 0 0 0
2 2649.26 2810.46 189.42 0 0 0
2 2801.69 2428.51 765.778 0 0 0
2 2444.7 2703.06 207.25 0 0 0
2 2513.29 2686.13 838.346 0 0 0
2 2876.76 2488.71 641.137 0 0 0
2 2836.32 2306.9 620.731 0 0 0
2 2735.25 2379.09 623.205 0 0 0
2 2523.4 2758.17 373.287 0 0 0
2 2349.04 2812.24 568.565 0 0 0
2 2664.45 2911.1 673.506 0 0 0
2 2471.55 2326.81 571.519 0 0 0
2 2864.56 2718.65 196.243 0 0 0
2 2704.34 2402.86 353.923 0 0 0
2 2604.74 2864.1 577.037 0 0 0
2 2609.27 2611.63 102.762 0 0 0
2 2514.67 2922 201.211 0 0 0
2 2472.9 152.159 3029.93 0 0 0
2 2656.11 319.827 2304.59 0 0 0
2 2755.86 448.738 2846.74 0 0 0
2 2608.54 273.499 2457.03 0 0 0
2 2380.86 253.074 2830.87 0 0 0
2 2669.23 655.935 2867.68 0 0 0
2 2960.96 491.411 2536.86 0 0 0
2 2925.54 528.193 2655.3 0 0 0
2 2817.77 426.651 2633.98 0 0 0
2 2700.79 694.149 2690.74 0 0 0
2 2378.76 820.613 2363.72 0 0 0
2 2776.06 472.079 2983.66 0 0 0
2 2678.75 874.78 2543.12 0 0 0
2 2951.65 335.557 2988.7 0 0 0
2 2472 491.931 3030.12 0 0 0
2 2768.54 854.04 2939.86 0 0 0
2 2508.51 357.688 2543.2 0 0 0
2 2989.56 535.315 2407.61 0 0 0
2 2722.81 645.398 2551.8 0 0 0
2 2708.45 217.461 2764.06 0 0 0
2 2454.95 639.721 2453.46 0 0 0
2 2531.68 551.367 2513.64 0 0 0
2 2953.42 244.318 2899.97 0 0 0