LAMMPS (23 Jun 2022 - Update 1)
OMP_NUM_THREADS environment is not set. Defaulting to 1 thread. (src/comm.cpp:98)
  using 1 OpenMP thread(s) per MPI task
###

# Read restart info
read_restart ${read_res}
read_restart ./trial10/7030/equpmf70.res
Reading restart file ...
  restart file = 23 Jun 2022, LAMMPS = 23 Jun 2022
  restoring atom style atomic from restart
  orthogonal box = (1696.4476 1696.4476 1696.4476) to (2303.5524 2303.5524 2303.5524)
  1 by 2 by 2 MPI processor grid
  restoring pair style table from restart
  1000 atoms
  read_restart CPU = 0.021 seconds

# Settings
pair_style table/pgn spline 10941
pair_coeff 1 1 N20e.txt DE_GNP 308 72.9   # 1.35 * r
pair_coeff 2 2 N100e.txt DE_GNP 473.9 111.78
WARNING: 20 of 10941 force values in table DE_GNP are inconsistent with -dE/dr.
WARNING:  Should only be flagged at inflection points (src/pair_table_pgn.cpp:478)
pair_coeff 1 2 mixed_potentiale.txt DE_GNP 391.2 92.95
WARNING: 1564 of 10941 force values in table DE_GNP are inconsistent with -dE/dr.
WARNING:  Should only be flagged at inflection points (src/pair_table_pgn.cpp:478)

# Neighbor list
neighbor 2.0 bin
neigh_modify delay 0 every 1 check no once yes

# Temperature
variable T equal ${Temp}
variable T equal 300

# Deformation
reset_timestep 0
variable tmp equal "lx"
variable L0 equal ${tmp}
variable L0 equal 607.104798586565
variable strain equal "(lx - v_L0)/v_L0"
variable stp equal "step"
variable tmpe equal "temp"
variable p1 equal "v_strain"
variable p2 equal "-pxx*1.01325/10000"
variable p3 equal "-pyy*1.01325/10000"
variable p4 equal "-pzz*1.01325/10000"
variable p5 equal "lx"
variable p6 equal "ly"
variable p7 equal "lz"
variable p8 equal "press"
variable p9 equal "epair"
variable p10 equal "etotal"

# Thermo
thermo_style custom step temp v_p1 v_p2 v_p3 v_p4 press lx ly lz vol density epair pe ke etotal pxx pyy pzz pxy pxz pyz spcpu
thermo ${ts_save}
thermo 1000

# Dump
# dump 1 all custom 2000 ./${N20}${N100}/tensile/trajectory/trajectory_${usic}_${trial}_*.tensile.custom id type x y z ix iy iz
# dump_modify 1 sort id
dump 2 all cfg 50000 ./trial${trial}/${N20}${N100}/tensile/trajectory/dumpten.tens_${usic}_${trial}_*.cfg mass type xs ys zs fx fy fz
dump 2 all cfg 50000 ./trial10/${N20}${N100}/tensile/trajectory/dumpten.tens_${usic}_${trial}_*.cfg mass type xs ys zs fx fy fz
dump 2 all cfg 50000 ./trial10/70${N100}/tensile/trajectory/dumpten.tens_${usic}_${trial}_*.cfg mass type xs ys zs fx fy fz
dump 2 all cfg 50000 ./trial10/7030/tensile/trajectory/dumpten.tens_${usic}_${trial}_*.cfg mass type xs ys zs fx fy fz
dump 2 all cfg 50000 ./trial10/7030/tensile/trajectory/dumpten.tens_1_${trial}_*.cfg mass type xs ys zs fx fy fz
dump 2 all cfg 50000 ./trial10/7030/tensile/trajectory/dumpten.tens_1_10_*.cfg mass type xs ys zs fx fy fz
dump_modify 2 element N20 N100

fix 1 all nvt temp ${T} ${T} 100
fix 1 all nvt temp 300 ${T} 100
fix 1 all nvt temp 300 300 100
fix 2 all deform 1 x erate ${strain_rate} y erate ${strain_rate} z erate ${strain_rate} units box
fix 2 all deform 1 x erate 5e-6 y erate ${strain_rate} z erate ${strain_rate} units box
fix 2 all deform 1 x erate 5e-6 y erate 5e-6 z erate ${strain_rate} units box
fix 2 all deform 1 x erate 5e-6 y erate 5e-6 z erate 5e-6 units box
fix             def1 all print ${ts_save} "${p1} ${p2} ${p3} ${p4}" file ./tensile/${trial}/tensile${N20}${N100}_${usic}_${trial}.txt screen no
fix             def1 all print 1000 "${p1} ${p2} ${p3} ${p4}" file ./tensile/${trial}/tensile${N20}${N100}_${usic}_${trial}.txt screen no
fix             def1 all print 1000 "${p1} ${p2} ${p3} ${p4}" file ./tensile/10/tensile${N20}${N100}_${usic}_${trial}.txt screen no
fix             def1 all print 1000 "${p1} ${p2} ${p3} ${p4}" file ./tensile/10/tensile70${N100}_${usic}_${trial}.txt screen no
fix             def1 all print 1000 "${p1} ${p2} ${p3} ${p4}" file ./tensile/10/tensile7030_${usic}_${trial}.txt screen no
fix             def1 all print 1000 "${p1} ${p2} ${p3} ${p4}" file ./tensile/10/tensile7030_1_${trial}.txt screen no
fix             def1 all print 1000 "${p1} ${p2} ${p3} ${p4}" file ./tensile/10/tensile7030_1_10.txt screen no

timestep       		${ts}
timestep       		0.1
run				${steps_tensile}
run				6000000
Generated 0 of 1 mixed pair_coeff terms from geometric mixing rule
Unused restart file global fix info:
  fix style: npt, fix ID: 5
Neighbor list info ...
  update every 1 steps, delay 0 steps, check no
  max neighbors/atom: 2000, page size: 100000
  master list distance cutoff = 113.78
  ghost atom cutoff = 113.78
  binsize = 56.89, bins = 11 11 11
  1 neighbor lists, perpetual/occasional/extra = 1 0 0
  (1) pair table/pgn, perpetual
      attributes: half, newton on
      pair build: half/bin/atomonly/newton
      stencil: half/bin/3d
      bin: standard
Per MPI rank memory allocation (min/avg/max) = 3.854 | 3.854 | 3.854 Mbytes
   Step          Temp           v_p1           v_p2           v_p3           v_p4          Press            Lx             Ly             Lz           Volume        Density         E_pair         PotEng         KinEng         TotEng          Pxx            Pyy            Pzz            Pxy            Pxz            Pyz           S/CPU     
         0   304.75589      3.745213e-16   0.019620667    0.0080878384   0.01558973    -142.44012      607.1048       607.1048       607.1048       2.237644e+08   2.0920405     -16958563      -16958563       907.511       -16957655      -193.64093     -79.820759     -153.85867      22.500327     -2.0225418     -25.834717      0            
      1000   358.34599      0.0005         0.027835544    0.016685676    0.023649762   -224.26509      607.40835      607.40835      607.40835      2.2410022e+08  2.0889056     -16957885      -16957885       1067.0932     -16956818      -274.71546     -164.67482     -233.405        20.568024     -2.5470268     -24.062595      12370.117    
      2000   443.26999      0.001          0.034853773    0.023983967    0.030895453   -295.19925      607.7119       607.7119       607.7119       2.2443637e+08  2.0857769     -16957064      -16957064       1319.9823     -16955744      -343.98        -236.70336     -304.91441      18.42971      -3.294983      -21.435494      12762.113    
      3000   510.03058      0.0015         0.040996118    0.030239172    0.037354984   -357.23423      608.01546      608.01546      608.01546      2.2477285e+08  2.0826545     -16956089      -16956089       1518.784      -16954570      -404.60022     -298.43743     -368.66503      16.501276     -3.1763027     -19.692949      12742.041    
      4000   542.82992      0.002          0.046975937    0.036441312    0.043550221   -417.6905       608.31901      608.31901      608.31901      2.2510968e+08  2.0795383     -16954896      -16954896       1616.4548     -16953279      -463.61646     -359.64779     -429.80727      14.26019      -2.9727289     -19.662763      12789.75     
      5000   546.48615      0.0025         0.053235926    0.042906989    0.05008744    -481.06047      608.62256      608.62256      608.62256      2.2544683e+08  2.0764283     -16953417      -16953417       1627.3424     -16951790      -525.39774     -423.45906     -494.3246       12.732713     -3.738735      -21.579745      12983.848    
      6000   533.44061      0.003          0.05950195     0.049567547    0.057090252   -546.62307      608.92611      608.92611      608.92611      2.2578433e+08  2.0733245     -16951620      -16951620       1588.495      -16950031      -587.23859     -489.19365     -563.43698      13.053514     -4.8597121     -22.734987      14296.171    
      7000   514.02053      0.0035         0.065937288    0.05635351     0.064020536   -612.91663      609.22967      609.22967      609.22967      2.2612216e+08  2.0702269     -16949486      -16949486       1530.6654     -16947955      -650.75043     -556.16591     -631.83356      15.405669     -4.8433242     -22.119476      14799.171    
      8000   493.83037      0.004          0.072778521    0.063193196    0.070616459   -679.62226      609.53322      609.53322      609.53322      2.2646033e+08  2.0671355     -16946990      -16946990       1470.5425     -16945520      -718.26815     -623.66835     -696.93026      17.329048     -3.9187174     -20.972812      14798.199    
      9000   475.29879      0.0045         0.079615159    0.070037817    0.076940447   -745.4344       609.83677      609.83677      609.83677      2.2679884e+08  2.0640502     -16944125      -16944125       1415.3586     -16942709      -785.74053     -691.21951     -759.34317      16.077069     -3.7498462     -20.318568      14697.232    
     10000   459.24356      0.005          0.085879067    0.076523732    0.082932431   -807.09016      610.14032      610.14032      610.14032      2.2713768e+08  2.0609711     -16940917      -16940917       1367.5489     -16939550      -847.5605      -755.23051     -818.47946      12.019707     -5.0304033     -20.060864      14727.278    
     11000   445.64977      0.0055         0.091483535    0.082498212    0.088501005   -863.50112      610.44387      610.44387      610.44387      2.2747686e+08  2.0578981     -16937399      -16937399       1327.0689     -16936072      -902.87229     -814.19405     -873.43701      7.3826723     -6.4432453     -20.357649      14787.732    
     12000   433.73216      0.006          0.097047807    0.088264143    0.094026528   -918.95215      610.74743      610.74743      610.74743      2.2781638e+08  2.0548312     -16933574      -16933574       1291.5803     -16932282      -957.78738     -871.09937     -927.96968      4.6627716     -6.8714986     -20.893842      14713.654    
     13000   423.09178      0.0065         0.10254768     0.093874129    0.099874736   -974.73983      611.05098      611.05098      611.05098      2.2815623e+08  2.0517703     -16929440      -16929440       1259.8951     -16928180      -1012.0669     -926.46563     -985.68701      5.3254153     -7.6875905     -20.616255      14715.595    
     14000   414.23376      0.007          0.10765418     0.099287648    0.10568334    -1028.4568      611.35453      611.35453      611.35453      2.2849642e+08  2.0487156     -16925011      -16925011       1233.5174     -16923777      -1062.4641     -979.8929      -1043.0135      9.0176884     -8.9862848     -19.639867      14769.565    
     15000   407.47418      0.0075         0.11270781     0.10466844     0.11130996    -1081.2935      611.65808      611.65808      611.65808      2.2883696e+08  2.0456669     -16920299      -16920299       1213.3885     -16919086      -1112.3396     -1032.9971     -1098.5438      10.793778     -8.1207702     -19.126433      14762.383    
     16000   402.40897      0.008          0.11790811     0.11015305     0.11688605    -1134.7881      611.96164      611.96164      611.96164      2.2917782e+08  2.0426243     -16915312      -16915312       1198.3052     -16914114      -1163.6626     -1087.1261     -1153.5756      8.197502      -5.6215001     -19.005062      14727.61     
     17000   398.41361      0.0085         0.12320637     0.11556158     0.12214755    -1187.3197      612.26519      612.26519      612.26519      2.2951903e+08  2.0395877     -16910050      -16910050       1186.4077     -16908864      -1215.9523     -1140.5041     -1205.5026      4.2717444     -4.3932104     -19.325509      14765.026    
     18000   394.91775      0.009          0.12847325     0.12069377     0.12703284    -1237.6013      612.56874      612.56874      612.56874      2.2986058e+08  2.0365571     -16904516      -16904516       1175.9976     -16903340      -1267.9324     -1191.1549     -1253.7166      1.7229886     -5.1440264     -19.329234      14733.096    
     19000   391.95489      0.0095         0.13330095     0.12567686     0.13182908    -1285.6547      612.87229      612.87229      612.87229      2.3020246e+08  2.0335325     -16898723      -16898723       1167.1747     -16897556      -1315.5781     -1240.3342     -1301.0518      2.260374      -6.3477371     -18.433938      14736.833    
     20000   389.76183      0.01           0.13772013     0.13065111     0.13655295    -1332.097       613.17585      613.17585      613.17585      2.3054469e+08  2.0305139     -16892680      -16892680       1160.6442     -16891520      -1359.192      -1289.4262     -1347.6728      4.780528      -9.1552709     -18.059366      14770.169    
     21000   388.37975      0.0105         0.14208452     0.13554557     0.14101684    -1377.2414      613.4794       613.4794       613.4794       2.3088725e+08  2.0275013     -16886395      -16886395       1156.5286     -16885239      -1402.2652     -1337.7308     -1391.728       5.7672714     -11.838035     -18.152908      14799.642    
     22000   387.38082      0.011          0.14670365     0.14031989     0.14549155    -1422.864       613.78295      613.78295      613.78295      2.3123015e+08  2.0244946     -16879877      -16879877       1153.5539     -16878723      -1447.8524     -1384.8496     -1435.8899      2.9533928     -12.84006      -17.534993      14685.859    
     23000   386.70257      0.0115         0.15106963     0.14475494     0.1499581     -1466.5109      614.0865       614.0865       614.0865       2.3157339e+08  2.0214938     -16873135      -16873135       1151.5342     -16871984      -1490.9413     -1428.6201     -1479.9714     -0.4024693     -11.027071     -16.311619      14774.759    
     24000   386.65696      0.012          0.15515392     0.14903962     0.15432237    -1508.4001      614.39006      614.39006      614.39006      2.3191697e+08  2.018499      -16866174      -16866174       1151.3984     -16865023      -1531.2501     -1470.9066     -1523.0434     -0.8634239     -6.9685304     -16.060274      14788.106    
     25000   386.89438      0.0125         0.15930951     0.15333499     0.15859726    -1550.2649      614.69361      614.69361      614.69361      2.3226089e+08  2.0155101     -16859003      -16859003       1152.1054     -16857851      -1572.2626     -1513.2987     -1565.2333      0.62503305    -4.6308521     -17.967888      14790.678    
     26000   387.51567      0.013          0.16336492     0.15736143     0.16267235    -1590.2581      614.99716      614.99716      614.99716      2.3260515e+08  2.0125272     -16851623      -16851623       1153.9555     -16850469      -1612.2864     -1553.0366     -1605.4512      0.58598573    -6.2220948     -18.786806      14769.768    
     27000   388.78112      0.0135         0.16730834     0.16111754     0.16632707    -1627.6106      615.30071      615.30071      615.30071      2.3294975e+08  2.00955       -16844039      -16844039       1157.7238     -16842881      -1651.2049     -1590.1065     -1641.5205     -0.63960399    -8.5074299     -17.20307       14750.568    
     28000   390.30802      0.014          0.17112365     0.1650124      0.17000861    -1665.0865      615.60427      615.60427      615.60427      2.3329469e+08  2.0065788     -16836254      -16836254       1162.2706     -16835092      -1688.8591     -1628.5458     -1677.8545     -0.76117076    -8.6135915     -15.953007      14797.775    
     29000   391.97032      0.0145         0.17487136     0.16885808     0.17402009    -1703.2635      615.90782      615.90782      615.90782      2.3363997e+08  2.0036134     -16828284      -16828284       1167.2207     -16827116      -1725.8462     -1666.4997     -1717.4448     -0.028434192   -8.8189249     -15.259089      14769.985    
     30000   393.74183      0.015          0.17857294     0.17257732     0.17813579    -1741.2157      616.21137      616.21137      616.21137      2.339856e+08   2.0006539     -16820127      -16820127       1172.4959     -16818955      -1762.3778     -1703.2057     -1758.0636     -0.16708707    -10.329356     -15.152373      14785.499    
     31000   395.5049       0.0155         0.18191627     0.17643394     0.18192311    -1777.361       616.51492      616.51492      616.51492      2.3433156e+08  1.9977001     -16811784      -16811784       1177.7461     -16810607      -1795.374      -1741.2676     -1795.4415     -2.1745117     -12.389281     -14.27026       14714.986    
     32000   397.60933      0.016          0.184985       0.18025238     0.18520374    -1810.8105      616.81848      616.81848      616.81848      2.3467786e+08  1.9947522     -16803265      -16803265       1184.0127     -16802081      -1825.66       -1778.9527     -1827.8188     -3.78833       -11.574483     -12.598069      14741.716    
     33000   399.86656      0.0165         0.18831942     0.18369868     0.1882191     -1843.0371      617.12203      617.12203      617.12203      2.350245e+08   1.9918101     -16794576      -16794576       1190.7343     -16793385      -1858.5682     -1812.965      -1857.5781     -3.6815809     -7.6500078     -12.946672      14768.943    
     34000   401.84542      0.017          0.1917544      0.18685359     0.19119133    -1874.494       617.42558      617.42558      617.42558      2.3537149e+08  1.9888738     -16785724      -16785724       1196.6271     -16784527      -1892.4688     -1844.1015     -1886.9117     -3.163848      -5.9130929     -15.07143       14805.856    
     35000   403.74781      0.0175         0.19492189     0.19007714     0.19428022    -1905.6806      617.72913      617.72913      617.72913      2.3571882e+08  1.9859432     -16776709      -16776709       1202.292      -16775507      -1923.7295     -1875.9156     -1917.3967     -2.2505962     -6.9320597     -14.341819      14786.387    
     36000   405.98215      0.018          0.19799592     0.19322421     0.19754282    -1936.8795      618.03268      618.03268      618.03268      2.3606648e+08  1.9830184     -16767540      -16767540       1208.9455     -16766331      -1954.0678     -1906.9747     -1949.5961     -1.1271749     -8.2160591     -11.119264      14798.774    
     37000   408.44126      0.0185         0.20109817     0.19607076     0.20075949    -1967.0316      618.33624      618.33624      618.33624      2.3641449e+08  1.9800994     -16758221      -16758221       1216.2683     -16757005      -1984.6846     -1935.0679     -1981.3422     -0.7371849     -9.29124       -9.4900884      14747.985    
     38000   410.54282      0.019          0.20409595     0.19889929     0.20378246    -1996.1434      618.63979      618.63979      618.63979      2.3676284e+08  1.977186      -16748749      -16748749       1222.5264     -16747526      -2014.2705     -1962.9833     -2011.1765     -1.2120538     -10.009295     -9.9173982      14746.731    
     39000   412.26666      0.0195         0.20664162     0.20162114     0.20639346    -2022.0618      618.94334      618.94334      618.94334      2.3711154e+08  1.9742784     -16739132      -16739132       1227.6597     -16737904      -2039.3942     -1989.846      -2036.9451     -2.9095145     -9.4268601     -10.222102      14806.219    
     40000   414.05271      0.02           0.20889762     0.20415544     0.20859814    -2045.0734      619.24689      619.24689      619.24689      2.3746057e+08  1.9713765     -16729381      -16729381       1232.9783     -16728148      -2061.6592     -2014.8575     -2058.7036     -5.4509492     -9.0333346     -9.656028       14752.956    
     41000   416.25364      0.0205         0.21140229     0.20680031     0.21094642    -2069.7393      619.55045      619.55045      619.55045      2.3780995e+08  1.9684802     -16719507      -16719507       1239.5323     -16718268      -2086.3784     -2040.9603     -2081.8793     -6.0964509     -8.3337772     -8.9485362      14734.042    
     42000   418.5716       0.021          0.21423022     0.20981251     0.21388326    -2098.6133      619.854        619.854        619.854        2.3815967e+08  1.9655897     -16709504      -16709504       1246.4347     -16708257      -2114.2879     -2070.6884     -2110.8637     -4.9236419     -6.8710641     -9.6465405      14713.387    
     43000   420.61167      0.0215         0.21689341     0.21275348     0.21700407    -2127.3163      620.15755      620.15755      620.15755      2.3850973e+08  1.9627047     -16699352      -16699352       1252.5097     -16698099      -2140.5716     -2099.7135     -2141.6637     -3.1885874     -5.9740531     -11.12057       14736.924    
     44000   422.25453      0.022          0.21926952     0.21507473     0.21949854    -2150.9755      620.4611       620.4611       620.4611       2.3886014e+08  1.9598255     -16689067      -16689067       1257.4019     -16687810      -2164.0219     -2122.6226     -2166.2821     -2.357202      -6.1072055     -11.055317      14709.912    
     45000   423.903        0.0225         0.22129375     0.216879       0.22113347    -2168.9489      620.76466      620.76466      620.76466      2.3921089e+08  1.9569518     -16678672      -16678672       1262.3107     -16677409      -2183.9996     -2140.4294     -2182.4177     -3.047194      -6.2620095     -9.8733163      14727.405    
     46000   425.86702      0.023          0.22313112     0.21892597     0.22269879    -2186.8768      621.06821      621.06821      621.06821      2.3956198e+08  1.9540838     -16668180      -16668180       1268.1593     -16666912      -2202.133      -2160.6314     -2197.8662     -6.1548435     -6.6862168     -7.8598853      14736.955    
     47000   427.68778      0.0235         0.22517659     0.2212235      0.22496237    -2208.6108      621.37176      621.37176      621.37176      2.3991342e+08  1.9512214     -16657586      -16657586       1273.5812     -16656313      -2222.3201     -2183.3062     -2220.2059     -10.881821     -7.335735      -6.7869666      14787.762    
     48000   429.22186      0.024          0.22745746     0.22341469     0.22745924    -2231.5368      621.67531      621.67531      621.67531      2.402652e+08   1.9483645     -16646870      -16646870       1278.1494     -16645592      -2244.8306     -2204.9316     -2244.8481     -12.559026     -7.8240531     -6.3854487      14782.153    
     49000   431.03803      0.0245         0.22977951     0.22571506     0.22962543    -2253.8696      621.97887      621.97887      621.97887      2.4061732e+08  1.9455133     -16636032      -16636032       1283.5577     -16634748      -2267.7475     -2227.6345     -2266.2268     -9.9268918     -7.5244103     -6.3968172      14773.266    
     50000   433.07909      0.025          0.23192898     0.22800936     0.23160234    -2274.992       622.28242      622.28242      622.28242      2.4096979e+08  1.9426676     -16625083      -16625083       1289.6356     -16623793      -2288.9611     -2250.2774     -2285.7374     -5.6872196     -7.093074      -7.0226222      14270.605    
     51000   434.8699       0.0255         0.23384977     0.23004541     0.23358561    -2294.5334      622.58597      622.58597      622.58597      2.413226e+08   1.9398274     -16614031      -16614031       1294.9683     -16612736      -2307.9178     -2270.3717     -2305.3107     -3.6590826     -7.420188      -7.5586985      14782.375    
     52000   436.40809      0.026          0.23557466     0.23169377     0.23524347    -2311.0845      622.88952      622.88952      622.88952      2.4167575e+08  1.9369928     -16602889      -16602889       1299.5488     -16601590      -2324.9411     -2286.6397     -2321.6725     -4.5149699     -8.2591777     -7.8113752      14776.26     
     53000   438.18146      0.0265         0.23686135     0.23299921     0.23667816    -2324.3316      623.19308      623.19308      623.19308      2.4202925e+08  1.9341637     -16591664      -16591664       1304.8296     -16590360      -2337.6397     -2299.5234     -2335.8318     -6.7420382     -7.475988      -7.9105192      14504.034    
     54000   440.2231       0.027          0.23799567     0.23441141     0.23832062    -2338.1123      623.49663      623.49663      623.49663      2.423831e+08   1.9313401     -16580362      -16580362       1310.9092     -16579051      -2348.8346     -2313.4607     -2352.0416     -8.5525148     -6.7747534     -7.7041982      14739.355    
     55000   441.83151      0.0275         0.23942256     0.2362279      0.24006979    -2354.5366      623.80018      623.80018      623.80018      2.4273728e+08  1.928522      -16568974      -16568974       1315.6988     -16567659      -2362.9169     -2331.3881     -2369.3046     -9.2147903     -7.074218      -5.6616403      14701.357    
     56000   442.68337      0.028          0.24098928     0.23809522     0.24156658    -2370.7578      624.10373      624.10373      624.10373      2.4309182e+08  1.9257094     -16557501      -16557501       1318.2355     -16556183      -2378.3793     -2349.8172     -2384.0768     -9.1323295     -6.8117384     -4.3407034      14763.666    
     57000   443.48867      0.0285         0.24246        0.23948307     0.24255812    -2383.4236      624.40729      624.40729      624.40729      2.434467e+08   1.9229022     -16545957      -16545957       1320.6335     -16544636      -2392.8942     -2363.5141     -2393.8626     -7.579417      -6.8637714     -5.3642339      14741.703    
     58000   444.63761      0.029          0.24386404     0.24062583     0.24365058    -2395.3958      624.71084      624.71084      624.71084      2.4380192e+08  1.9201005     -16534346      -16534346       1324.0549     -16533022      -2406.7509     -2374.7923     -2404.6442     -5.4317466     -7.2192892     -6.7863157      14729.884    
     59000   445.52528      0.0295         0.24535926     0.24195319     0.24525412    -2409.9566      625.01439      625.01439      625.01439      2.4415749e+08  1.9173042     -16522651      -16522651       1326.6982     -16521324      -2421.5076     -2387.8923     -2420.47       -4.7558057     -6.7379808     -5.9435584      14737.336    
     60000   446.18453      0.03           0.24659289     0.24316815     0.24677775    -2423.0242      625.31794      625.31794      625.31794      2.445134e+08   1.9145134     -16510861      -16510861       1328.6613     -16509532      -2433.6826     -2399.8831     -2435.507      -5.9028046     -5.8319564     -4.8850785      14752.288    
     61000   447.26648      0.0305         0.24749895     0.24424524     0.24796398    -2433.4507      625.62149      625.62149      625.62149      2.4486966e+08  1.911728      -16499001      -16499001       1331.8832     -16497669      -2442.6248     -2410.5131     -2447.2142     -8.2285103     -4.6655225     -6.1646554      14742.155    
     62000   448.87618      0.031          0.24843733     0.24546476     0.24896931    -2443.8569      625.92505      625.92505      625.92505      2.4522627e+08  1.908948      -16487100      -16487100       1336.6766     -16485763      -2451.8859     -2422.5488     -2457.1361     -9.4493621     -4.21077       -7.4865648      14749.941    
     63000   450.36752      0.0315         0.24965606     0.24695146     0.2500441     -2456.2929      626.2286       626.2286       626.2286       2.4558322e+08  1.9061733     -16475148      -16475148       1341.1176     -16473807      -2463.9138     -2437.2214     -2467.7434     -9.1963318     -5.3394591     -6.5443736      14716.935    
     64000   451.21415      0.032          0.25083161     0.24826545     0.25107262    -2467.8664      626.53215      626.53215      626.53215      2.4594052e+08  1.9034041     -16463129      -16463129       1343.6387     -16461786      -2475.5155     -2450.1895     -2477.8941     -7.7678674     -5.6680091     -5.0777734      14753.956    
     65000   451.72229      0.0325         0.25145306     0.24885164     0.25179203    -2474.2058      626.8357       626.8357       626.8357       2.4629817e+08  1.9006402     -16451049      -16451049       1345.1518     -16449703      -2481.6487     -2455.9747     -2484.9941     -6.9013755     -5.4835201     -4.6835802      14790.228    
     66000   452.25913      0.033          0.25171367     0.2489809      0.25223298    -2476.9391      627.13926      627.13926      627.13926      2.4665616e+08  1.8978816     -16438932      -16438932       1346.7505     -16437585      -2484.2208     -2457.2505     -2489.3459     -7.5537611     -5.1392499     -4.9377436      14761.071    
     67000   452.50644      0.0335         0.25242749     0.24940069     0.25289504    -2482.8463      627.44281      627.44281      627.44281      2.470145e+08   1.8951284     -16426777      -16426777       1347.4869     -16425430      -2491.2656     -2461.3934     -2495.88       -9.9621102     -4.2951987     -4.6080591      14724.394    
     68000   452.33112      0.034          0.25350134     0.25049217     0.25382848    -2493.0405      627.74636      627.74636      627.74636      2.4737318e+08  1.8923805     -16414561      -16414561       1346.9648     -16413214      -2501.8637     -2472.1655     -2505.0924     -11.827592     -4.1954564     -2.9815575      14776.541    
     69000   452.51514      0.0345         0.25430494     0.25183165     0.25466655    -2502.8478      628.04991      628.04991      628.04991      2.4773221e+08  1.8896379     -16402286      -16402286       1347.5128     -16400939      -2509.7947     -2485.3851     -2513.3635     -11.591999     -4.3198865     -0.82637964     14744.473    
     70000   453.25903      0.035          0.25468483     0.25258382     0.2552582     -2508.5183      628.35347      628.35347      628.35347      2.4809159e+08  1.8869007     -16389977      -16389977       1349.728      -16388627      -2513.5438     -2492.8085     -2519.2025     -9.6579378     -4.3180916     -1.4622851      14764.864    
     71000   454.10661      0.0355         0.25498015     0.25278594     0.25560802    -2511.3056      628.65702      628.65702      628.65702      2.4845132e+08  1.8841687     -16377642      -16377642       1352.2519     -16376290      -2516.4584     -2494.8032     -2522.655      -7.9879122     -3.4100608     -4.3235367      14598.589    
     72000   454.71169      0.036          0.25528207     0.25303489     0.25591223    -2514.1186      628.96057      628.96057      628.96057      2.4881139e+08  1.8814419     -16365282      -16365282       1354.0538     -16363928      -2519.4381     -2497.2602     -2525.6574     -6.9725849     -0.85909858    -6.9912034      14626.751    
     73000   455.079        0.0365         0.25543422     0.25339007     0.25624321    -2516.8764      629.26412      629.26412      629.26412      2.4917182e+08  1.8787205     -16352897      -16352897       1355.1475     -16351542      -2520.9398     -2500.7655     -2528.9238     -6.4913423      0.58081689    -7.7397162      14756.087    
     74000   455.04131      0.037          0.2555473      0.25388309     0.25669242    -2520.3481      629.56768      629.56768      629.56768      2.4953259e+08  1.8760042     -16340482      -16340482       1355.0353     -16339127      -2522.0557     -2505.6313     -2533.3572     -7.2308527     -1.0628333     -6.876018       14724.458    
     75000   454.71477      0.0375         0.25595042     0.25429866     0.25712618    -2524.4683      629.87123      629.87123      629.87123      2.498937e+08   1.8732933     -16328031      -16328031       1354.0629     -16326677      -2526.0342     -2509.7326     -2537.6381     -7.2885297     -3.1476648     -5.347173       14717.749    
     76000   454.99764      0.038          0.25658407     0.25470277     0.2573782     -2528.7114      630.17478      630.17478      630.17478      2.5025517e+08  1.8705875     -16315550      -16315550       1354.9053     -16314195      -2532.2879     -2513.7209     -2540.1253     -7.1094441     -3.1415604     -2.622633       14752.647    
     77000   455.53828      0.0385         0.2570492      0.25541069     0.25763495    -2533.4151      630.47833      630.47833      630.47833      2.5061698e+08  1.8678869     -16303038      -16303038       1356.5152     -16301681      -2536.8784     -2520.7075     -2542.6593     -9.757471      -1.7536092     -1.9385748      14809.18     
     78000   455.38199      0.039          0.25690919     0.25585079     0.25792181    -2535.346       630.78189      630.78189      630.78189      2.5097915e+08  1.8651916     -16290493      -16290493       1356.0498     -16289137      -2535.4966     -2525.051      -2545.4903     -12.911821     -1.3821439     -3.0344889      14720.723    
     79000   454.94887      0.0395         0.25630923     0.25557425     0.25794917    -2532.5525      631.08544      631.08544      631.08544      2.5134166e+08  1.8625014     -16277939      -16277939       1354.76       -16276585      -2529.5755     -2522.3218     -2545.7604     -13.156556     -2.1207351     -3.7956602      14792.154    
     80000   454.63483      0.04           0.25581919     0.25521446     0.25770644    -2528.9583      631.38899      631.38899      631.38899      2.5170452e+08  1.8598164     -16265402      -16265402       1353.8249     -16264048      -2524.7391     -2518.7709     -2543.3648     -10.857812     -1.0064277     -4.0699331      14752.086    
     81000   454.30355      0.0405         0.25590188     0.25510157     0.25741336    -2527.8947      631.69254      631.69254      631.69254      2.5206773e+08  1.8571365     -16252867      -16252867       1352.8384     -16251514      -2525.5552     -2517.6567     -2540.4723     -7.8741574      0.42152972    -3.7665721      14756.118    
     82000   453.82339      0.041          0.25608977     0.25521091     0.25730724    -2528.5235      631.9961       631.9961       631.9961       2.5243129e+08  1.8544618     -16240316      -16240316       1351.4086     -16238964      -2527.4095     -2518.7358     -2539.425      -6.3340866      0.77507056    -2.8730923      14805.759    
     83000   453.61555      0.0415         0.25604394     0.25520214     0.25741497    -2528.6982      632.29965      632.29965      632.29965      2.527952e+08   1.8517922     -16227741      -16227741       1350.7897     -16226390      -2526.9572     -2518.6493     -2540.4882     -7.3031994      1.1133017     -2.8459549      14732.155    
     84000   454.34036      0.042          0.2557311      0.25487389     0.25730104    -2526.2144      632.6032       632.6032       632.6032       2.5315946e+08  1.8491278     -16215166      -16215166       1352.948      -16213813      -2523.8698     -2515.4097     -2539.3638     -9.2082656     -0.2361436     -4.6963079      14750.27     
     85000   455.49863      0.0425         0.25535229     0.25454385     0.25695805    -2522.7542      632.90675      632.90675      632.90675      2.5352406e+08  1.8464685     -16202608      -16202608       1356.3972     -16201252      -2520.1312     -2512.1525     -2535.9788     -10.262512     -3.2790587     -6.6611508      14736.597    
     86000   455.08074      0.043          0.25518194     0.2544047      0.25697372    -2521.7875      633.2103       633.2103       633.2103       2.5388902e+08  1.8438142     -16190057      -16190057       1355.1527     -16188702      -2518.45       -2510.7792     -2536.1335     -10.052888     -5.7724766     -6.0783583      14765.487    
     87000   452.90272      0.0435         0.25478541     0.25412245     0.2567933     -2518.961       633.51386      633.51386      633.51386      2.5425433e+08  1.8411651     -16177492      -16177492       1348.667      -16176143      -2514.5365     -2507.9936     -2534.3528     -9.3029812     -4.9071604     -4.7647628      14737.92     
     88000   451.11152      0.044          0.25392476     0.25363328     0.25590154    -2511.5867      633.81741      633.81741      633.81741      2.5461999e+08  1.838521      -16164933      -16164933       1343.3331     -16163590      -2506.0425     -2503.1658     -2525.5518     -9.2825294     -1.4539137     -4.0453176      14751.78     
     89000   450.72435      0.0445         0.25305352     0.25309873     0.25499099    -2503.9666      634.12096      634.12096      634.12096      2.54986e+08    1.8358819     -16152396      -16152396       1342.1802     -16151054      -2497.4441     -2497.8903     -2516.5654     -8.8189724      1.0304082     -3.6356285      14754.883    
     90000   450.76438      0.045          0.25256048     0.25276495     0.25451154    -2499.6693      634.42451      634.42451      634.42451      2.5535236e+08  1.833248      -16139875      -16139875       1342.2994     -16138532      -2492.5782     -2494.5961     -2511.8336     -8.472153       1.4780318     -2.9394472      14791.046    
     91000   450.79499      0.0455         0.25236986     0.25246161     0.2541558     -2496.874       634.72807      634.72807      634.72807      2.5571907e+08  1.830619      -16127369      -16127369       1342.3905     -16126027      -2490.6969     -2491.6023     -2508.3227     -8.1942045      0.63690118    -2.6713337      14746.009    
     92000   450.77557      0.046          0.25220913     0.25187465     0.25390057    -2493.5746      635.03162      635.03162      635.03162      2.5608613e+08  1.8279951     -16114881      -16114881       1342.3327     -16113539      -2489.1106     -2485.8095     -2505.8038     -7.6498398     -0.70473683    -3.7154353      14750.574    
     93000   450.338        0.0465         0.25152311     0.25070373     0.25310825    -2484.8592      635.33517      635.33517      635.33517      2.5645354e+08  1.8253762     -16102416      -16102416       1341.0297     -16101075      -2482.3401     -2474.2535     -2497.9842     -7.712682      -1.99947       -5.3098557      14746.04     
     94000   449.63273      0.047          0.2503343      0.24950607     0.25200109    -2473.3661      635.63872      635.63872      635.63872      2.568213e+08   1.8227623     -16089980      -16089980       1338.9295     -16088642      -2470.6074     -2462.4335     -2487.0574     -7.7196902     -3.6017488     -5.5070857      14804.257    
     95000   448.17013      0.0475         0.24914114     0.24893376     0.25122293    -2464.9982      635.94228      635.94228      635.94228      2.5718942e+08  1.8201534     -16077573      -16077573       1334.5741     -16076239      -2458.8319     -2456.7852     -2479.3776     -7.9545532     -4.2797453     -5.073216       14768.38     
     96000   446.34996      0.048          0.24821931     0.24882046     0.25050136    -2459.2191      636.24583      636.24583      636.24583      2.5755788e+08  1.8175495     -16065183      -16065183       1329.154      -16063854      -2449.7341     -2455.667      -2472.2562     -8.1485821     -2.5561328     -4.3741485      14755.223    
     97000   445.11741      0.0485         0.24784141     0.2484886      0.24987924    -2454.8376      636.54938      636.54938      636.54938      2.579267e+08   1.8149505     -16052813      -16052813       1325.4836     -16051488      -2446.0046     -2452.3919     -2466.1164     -8.2167554     -0.012784195   -2.6751284      14779.153    
     98000   444.23338      0.049          0.24758624     0.2478367      0.24939173    -2450.2497      636.85293      636.85293      636.85293      2.5829587e+08  1.8123565     -16040461      -16040461       1322.8511     -16039138      -2443.4862     -2445.958      -2461.305      -8.7388832      0.43884986    -2.1580721      14691.941    
     99000   443.53269      0.0495         0.24649726     0.2467073      0.2485099     -2440.0508      637.15649      637.15649      637.15649      2.5866539e+08  1.8097674     -16028135      -16028135       1320.7646     -16026815      -2432.7388     -2434.8117     -2452.602      -8.5429481     -0.76114204    -4.2230936      14747.426    
    100000   443.25595      0.05           0.24482076     0.24533494     0.24734954    -2426.2036      637.46004      637.46004      637.46004      2.5903527e+08  1.8071832     -16015856      -16015856       1319.9405     -16014536      -2416.1931     -2421.2676     -2441.1502     -7.4148461     -1.3233811     -7.0585488      14464.939    
    101000   442.60787      0.0505         0.24365375     0.24426907     0.24618971    -2415.0424      637.76359      637.76359      637.76359      2.5940549e+08  1.804604      -16003618      -16003618       1318.0107     -16002300      -2404.6755     -2410.7483     -2429.7035     -6.3368043     -0.66586964    -8.1710645      14727.622    
    102000   441.15053      0.051          0.24289116     0.24326759     0.24487701    -2404.9207      638.06714      638.06714      638.06714      2.5977607e+08  1.8020297     -15991419      -15991419       1313.6709     -15990106      -2397.1493     -2400.8645     -2416.7481     -4.5825259     -0.33504839    -6.8224892      14774.569    
    103000   439.63028      0.0515         0.24180406     0.24204478     0.24335201    -2392.3048      638.3707       638.3707       638.3707       2.60147e+08    1.7994602     -15979274      -15979274       1309.1439     -15977965      -2386.4205     -2388.7963     -2401.6976     -2.7596958     -2.0966901     -3.2155581      14729.97     
    104000   438.29824      0.052          0.24044247     0.24083279     0.2419099     -2379.0942      638.67425      638.67425      638.67425      2.6051829e+08  1.7968957     -15967194      -15967194       1305.1773     -15965889      -2372.9827     -2376.8348     -2387.4651     -2.8700596     -3.894007       0.70772265     14750.576    
    105000   436.87911      0.0525         0.23911635     0.23966398     0.24086021    -2367.4333      638.9778       638.9778       638.9778       2.6088993e+08  1.794336      -15955168      -15955168       1300.9514     -15953867      -2359.8949     -2365.2995     -2377.1055     -5.5783024     -3.0450725      1.6648415      14751.64     
    106000   435.58618      0.053          0.23802458     0.23853436     0.23997225    -2357.2043      639.28135      639.28135      639.28135      2.6126192e+08  1.7917812     -15943178      -15943178       1297.1013     -15941881      -2349.1199     -2354.151      -2368.342      -7.2443517     -0.57931396    -0.57017951     14752.857    
    107000   434.59422      0.0535         0.23706888     0.23747698     0.23898871    -2347.3462      639.58491      639.58491      639.58491      2.6163426e+08  1.7892312     -15931219      -15931219       1294.1474     -15929924      -2339.6879     -2343.7156     -2358.6352     -6.4410344      1.1616286     -3.8474242      14790.81     
    108000   433.92241      0.054          0.23604326     0.23637547     0.23765906    -2335.9743      639.88846      639.88846      639.88846      2.6200696e+08  1.7866861     -15919302      -15919302       1292.1468     -15918009      -2329.5659     -2332.8445     -2345.5126     -5.0588509      1.6446461     -5.7625194      14747.338    
    109000   433.3773       0.0545         0.23478957     0.23517908     0.23625561    -2323.2972      640.19201      640.19201      640.19201      2.6238001e+08  1.7841458     -15907439      -15907439       1290.5236     -15906149      -2317.1929     -2321.0371     -2331.6616     -4.5068532      1.054546      -6.0033433      14738.429    
    110000   432.34386      0.055          0.233387       0.2339237      0.2350745     -2310.6677      640.49556      640.49556      640.49556      2.6275342e+08  1.7816103     -15895640      -15895640       1287.4462     -15894353      -2303.3506     -2308.6474     -2320.0049     -3.9546133     -0.95906565    -4.2747937      14804.87     
    111000   430.85856      0.0555         0.23186886     0.23256343     0.23373453    -2296.7902      640.79911      640.79911      640.79911      2.6312718e+08  1.7790796     -15883894      -15883894       1283.0232     -15882611      -2288.3677     -2295.2226     -2306.7805     -3.3457266     -2.2513191     -1.6086995      14726.577    
    112000   429.38717      0.056          0.23044539     0.23129214     0.23213252    -2282.655       641.10267      641.10267      641.10267      2.6350129e+08  1.7765537     -15872203      -15872203       1278.6417     -15870924      -2274.3192     -2282.6759     -2290.9699     -2.7878247     -0.79576867    -0.5762536      14715.614    
    113000   428.2023       0.0565         0.22911971     0.22992616     0.23056176    -2268.6327      641.40622      641.40622      641.40622      2.6387576e+08  1.7740325     -15860572      -15860572       1275.1133     -15859297      -2261.2357     -2269.1948     -2275.4676     -2.3519095      0.78748171    -1.5187254      14761.863    
    114000   426.75232      0.057          0.2279344      0.228444       0.22927346    -2255.6193      641.70977      641.70977      641.70977      2.6425059e+08  1.7715162     -15849003      -15849003       1270.7955     -15847733      -2249.5376     -2254.567      -2262.7532     -2.1325825      1.2600062     -2.4756256      14730.892    
    115000   424.98905      0.0575         0.22638951     0.22680869     0.22789489    -2240.622       642.01332      642.01332      642.01332      2.6462576e+08  1.7690046     -15837498      -15837498       1265.5448     -15836232      -2234.2908     -2238.4277     -2249.1477     -1.8986427      1.1201064     -1.9478971      14748.258    
    116000   423.43255      0.058          0.22449679     0.22510905     0.22608739    -2222.8579      642.31688      642.31688      642.31688      2.650013e+08   1.7664977     -15826064      -15826064       1260.9098     -15824803      -2215.611      -2221.6535     -2231.309      -1.4682113      0.018528243   -0.48777071     14729.295    
    117000   422.18368      0.0585         0.22289912     0.2235946      0.22421403    -2206.457       642.62043      642.62043      642.62043      2.6537719e+08  1.7639956     -15814705      -15814705       1257.1909     -15813447      -2199.8433     -2206.7071     -2212.8204     -0.66748525    -0.89289095     0.75350264     14724.931    
    118000   420.68484      0.059          0.22183272     0.22250257     0.22280517    -2194.7215      642.92398      642.92398      642.92398      2.6575343e+08  1.7614982     -15803399      -15803399       1252.7276     -15802146      -2189.3187     -2195.9297     -2198.9161     -0.70526162    -0.37302691     0.28139555     14602.377    
    119000   418.64452      0.0595         0.22071937     0.2215538      0.22173703    -2184.4237      643.22753      643.22753      643.22753      2.6613003e+08  1.7590055     -15792129      -15792129       1246.6519     -15790882      -2178.3308     -2186.566      -2188.3743     -0.039975267    1.8144733     -1.9202487      14719.651    
    120000   416.77185      0.06           0.21911475     0.22025942     0.22043644    -2170.6081      643.53109      643.53109      643.53109      2.6650698e+08  1.7565175     -15780917      -15780917       1241.0754     -15779676      -2162.4945     -2173.7914     -2175.5385      0.67903858     2.9943943     -2.9438976      14769.291    
    121000   415.57711      0.0605         0.21738569     0.21848534     0.21870584    -2153.3905      643.83464      643.83464      643.83464      2.6688429e+08  1.7540342     -15769784      -15769784       1237.5177     -15768547      -2145.43       -2156.2826     -2158.4588      0.14702712     2.7383114     -2.6127141      14751.437    
    122000   414.72116      0.061          0.21596978     0.21662869     0.21711222    -2137.382       644.13819      644.13819      644.13819      2.6726196e+08  1.7515556     -15758727      -15758727       1234.9688     -15757492      -2131.456      -2137.9589     -2142.7311      0.311276       2.3989613     -2.2580874      14687.658    
    123000   413.56924      0.0615         0.21467519     0.21505075     0.21581083    -2123.6509      644.44174      644.44174      644.44174      2.6763998e+08  1.7490817     -15747738      -15747738       1231.5386     -15746506      -2118.6794     -2122.3859     -2129.8873      1.1080052      2.4451469     -0.81894087     14730.151    
    124000   411.92923      0.062          0.2131998      0.21375469     0.21457597    -2110.4711      644.7453       644.7453       644.7453       2.6801836e+08  1.7466124     -15736804      -15736804       1226.6549     -15735577      -2104.1184     -2109.5948     -2117.7002      1.2095308      1.8641479      0.23708469     14752.691    
    125000   410.05048      0.0625         0.21159985     0.21231654     0.21284873    -2094.7944      645.04885      645.04885      645.04885      2.683971e+08   1.7441477     -15725925      -15725925       1221.0603     -15724704      -2088.3282     -2095.4013     -2100.6536      2.1536881     -0.49776424     0.22359964     14762.438    
    126000   408.40143      0.063          0.20995315     0.21056911     0.21080962    -2076.9204      645.3524       645.3524       645.3524       2.6877619e+08  1.7416877     -15715116      -15715116       1216.1497     -15713900      -2072.0764     -2078.1555     -2080.5292      3.5903579     -2.3484169     -0.4179899      14767.338    
    127000   406.65099      0.0635         0.20832883     0.20897831     0.20900189    -2060.3965      645.65595      645.65595      645.65595      2.6915564e+08  1.7392323     -15704394      -15704394       1210.9372     -15703183      -2056.0457     -2062.4556     -2062.6882      4.7002367     -1.0703056     -1.2457184      14762.112    
    128000   404.41872      0.064          0.20695066     0.20750516     0.2076525     -2046.5772      645.95951      645.95951      645.95951      2.6953544e+08  1.7367816     -15693743      -15693743       1204.2899     -15692539      -2042.4442     -2047.9167     -2049.3708      4.565143       1.63629       -1.5577131      14765.562    
    129000   402.18076      0.0645         0.20572889     0.20591382     0.20655235    -2033.7036      646.26306      646.26306      646.26306      2.6991561e+08  1.7343354     -15683143      -15683143       1197.6256     -15681945      -2030.3863     -2032.2114     -2038.5132      2.6776494      3.5073834      0.086587385    14817.231    
    130000   400.91628      0.065          0.20429148     0.20424916     0.20531781    -2019.4373      646.56661      646.56661      646.56661      2.7029613e+08  1.7318938     -15672597      -15672597       1193.8602     -15671403      -2016.2002     -2015.7825     -2026.3292      0.89224758     3.7748803      1.2694305      14766.812    
    131000   400.63925      0.0655         0.20271992     0.20302378     0.20388676    -2005.5283      646.87016      646.87016      646.87016      2.70677e+08    1.7294568     -15662122      -15662122       1193.0353     -15660929      -2000.69       -2003.6889     -2012.2059     -0.24007299     2.4494826     -0.083998328    14770.86     
    132000   399.91737      0.066          0.20114552     0.20205249     0.20234999    -1992.098       647.17372      647.17372      647.17372      2.7105824e+08  1.7270244     -15651717      -15651717       1190.8857     -15650526      -1985.1519     -1994.103      -1997.0391     -0.61722631     0.3422443     -2.79775        14789.421    
    133000   398.13979      0.0665         0.19971086     0.20082904     0.20079801    -1978.2479      647.47727      647.47727      647.47727      2.7143983e+08  1.7245965     -15641368      -15641368       1185.5923     -15640182      -1970.9929     -1982.0285     -1981.7222      1.9879221     -1.9374205     -4.5031551      14769.559    
    134000   395.72269      0.067          0.19839281     0.19918862     0.19933616    -1963.7062      647.78082      647.78082      647.78082      2.7182178e+08  1.7221732     -15631070      -15631070       1178.3946     -15629892      -1957.9848     -1965.8389     -1967.295       5.2611398     -3.7218738     -4.1882049      14729.063    
    135000   393.54858      0.0675         0.19695032     0.19738987     0.19795268    -1948.4921      648.08437      648.08437      648.08437      2.7220409e+08  1.7197544     -15620830      -15620830       1171.9205     -15619658      -1943.7485     -1948.0866     -1953.6411      6.2565355     -2.521906      -2.8739625      14756.275    
    136000   391.88543      0.068          0.1954935      0.19571414     0.19643121    -1933.1815      648.38792      648.38792      648.38792      2.7258676e+08  1.7173402     -15610662      -15610662       1166.9679     -15609495      -1929.3709     -1931.5484     -1938.6253      5.7290844      0.79940657    -0.57984678     14788.482    
    137000   390.7659       0.0685         0.19396499     0.19400654     0.19479595    -1917.1559      648.69148      648.69148      648.69148      2.7296978e+08  1.7149304     -15600573      -15600573       1163.6341     -15599409      -1914.2856     -1914.6956     -1922.4866      4.279781       2.2119011      1.5692595      14772.892    
    138000   389.84363      0.069          0.1924659      0.19264754     0.19338045    -1903.0969      648.99503      648.99503      648.99503      2.7335317e+08  1.7125252     -15590552      -15590552       1160.8878     -15589391      -1899.4908     -1901.2834     -1908.5167      2.1193747      0.97159347     1.9271507      14794.047    
    139000   388.62258      0.0695         0.19122071     0.19169989     0.19234265    -1892.469       649.29858      649.29858      649.29858      2.7373691e+08  1.7101245     -15580589      -15580589       1157.2517     -15579432      -1887.2017     -1891.9308     -1898.2744      0.56548088    -0.58260503     0.59342929     14771.959    
    140000   387.11476      0.07           0.19014051     0.19078673     0.19143518    -1882.926       649.60213      649.60213      649.60213      2.7412101e+08  1.7077282     -15570674      -15570674       1152.7616     -15569521      -1876.541      -1882.9186     -1889.3183      0.68495662    -1.2639209     -0.78929836     14685.336    
    141000   385.41865      0.0705         0.18899919     0.18955015     0.19045878    -1871.8912      649.90569      649.90569      649.90569      2.7450548e+08  1.7053364     -15560802      -15560802       1147.7109     -15559654      -1865.2769     -1870.7145     -1879.6821      1.877293      -2.3166564     -1.9540212      14762.76     
    142000   383.42267      0.071          0.18772987     0.18818811     0.18922833    -1859.1868      650.20924      650.20924      650.20924      2.748903e+08   1.7029491     -15550969      -15550969       1141.7672     -15549827      -1852.7498     -1857.2722     -1867.5385      2.6906122     -4.4638431     -3.5201884      14736.707    
    143000   381.56351      0.0715         0.18638378     0.18682646     0.18760773    -1844.9477      650.51279      650.51279      650.51279      2.7527548e+08  1.7005663     -15541180      -15541180       1136.231      -15540043      -1839.4649     -1843.8338     -1851.5443      2.7573977     -4.9625542     -5.0002311      14445.464    
    144000   380.34382      0.072          0.18511567     0.18553064     0.18595112    -1831.0632      650.81634      650.81634      650.81634      2.7566102e+08  1.6981878     -15531455      -15531455       1132.5989     -15530323      -1826.9496     -1831.045      -1835.1949      3.3729383     -1.8448923     -4.4968823      14705.073    
    145000   379.32566      0.0725         0.18404742     0.18441534     0.1846344     -1819.5482      651.1199       651.1199       651.1199       2.7604692e+08  1.6958139     -15521806      -15521806       1129.5671     -15520677      -1816.4068     -1820.0379     -1822.1999      2.4144478      0.58010129    -2.0323268      14770.812    
    146000   377.96273      0.073          0.18294766     0.18331885     0.18358448    -1808.8691      651.42345      651.42345      651.42345      2.7643318e+08  1.6934443     -15512214      -15512214       1125.5085     -15511089      -1805.5531     -1809.2164     -1811.838       0.86269656    -0.77892139    -0.5723499      14721.519    
    147000   376.41388      0.0735         0.1815336      0.18203188     0.18262889    -1796.8398      651.727        651.727        651.727        2.768198e+08   1.6910792     -15502664      -15502664       1120.8963     -15501543      -1791.5974     -1796.515      -1802.407       0.25381281    -3.2820384     -1.7384315      14774.676    
    148000   374.78432      0.074          0.18013171     0.18073919     0.18166678    -1784.8102      652.03055      652.03055      652.03055      2.7720678e+08  1.6887184     -15493153      -15493153       1116.0437     -15492037      -1777.7617     -1783.7571     -1792.9118      0.60872227    -3.585619      -3.3564998      14740.824    
    149000   373.31146      0.0745         0.17905253     0.17975363     0.18062368    -1774.5862      652.33411      652.33411      652.33411      2.7759412e+08  1.6863621     -15483684      -15483684       1111.6578     -15482573      -1767.1111     -1774.0304     -1782.6171      1.9151612     -3.8787813     -3.5591111      14751.321    
    150000   372.11966      0.075          0.17828004     0.17898235     0.17965072    -1766.3068      652.63766      652.63766      652.63766      2.7798182e+08  1.6840101     -15474257      -15474257       1108.1088     -15473149      -1759.4871     -1766.4184     -1773.0148      3.2756819     -4.9370134     -4.3008884      13177.633    
    151000   371.09817      0.0755         0.1774802      0.1778774      0.17849882    -1756.2511      652.94121      652.94121      652.94121      2.7836988e+08  1.6816625     -15464878      -15464878       1105.067      -15463773      -1751.5934     -1755.5134     -1761.6464      3.6692209     -4.744752      -5.1363575      14716.546    
    152000   370.24755      0.076          0.17654789     0.17645715     0.17718101    -1744.1765      653.24476      653.24476      653.24476      2.787583e+08   1.6793193     -15455553      -15455553       1102.534      -15454451      -1742.3922     -1741.4967     -1748.6406      3.1884701     -3.6029447     -4.8984785      14772.736    
    153000   369.13716      0.0765         0.17548593     0.17506732     0.17586573    -1731.7838      653.54832      653.54832      653.54832      2.7914709e+08  1.6769804     -15446281      -15446281       1099.2274     -15445182      -1731.9115     -1727.7801     -1735.6599      1.3437344     -3.629776      -3.8330019      14758.015    
    154000   367.60193      0.077          0.17434582     0.17401627     0.17466297    -1720.6187      653.85187      653.85187      653.85187      2.7953623e+08  1.6746458     -15437050      -15437050       1094.6558     -15435955      -1720.6594     -1717.4071     -1723.7895     -0.95009328    -4.1443448     -2.5708732      14729.31     
    155000   365.95028      0.0775         0.17322041     0.17331608     0.17376851    -1711.6704      654.15542      654.15542      654.15542      2.7992574e+08  1.6723156     -15427861      -15427861       1089.7374     -15426771      -1709.5525     -1710.4967     -1714.9619     -1.6392132     -3.6466375     -2.243844       14747.537    
    156000   364.79496      0.078          0.17225518     0.17274519     0.17305224    -1704.2606      654.45897      654.45897      654.45897      2.8031561e+08  1.6699897     -15418705      -15418705       1086.2971     -15417619      -1700.0265     -1704.8624     -1707.8928     -0.14238256    -2.8909675     -2.1628658      14757.588    
    157000   364.23411      0.0785         0.17151733     0.17207002     0.17241427    -1697.5133      654.76253      654.76253      654.76253      2.8070584e+08  1.6676682     -15409580      -15409580       1084.627      -15408495      -1692.7444     -1698.1991     -1701.5965      0.52505357    -3.1499477     -2.1235965      14747.336    
    158000   363.62272      0.079          0.17077722     0.17120455     0.17179113    -1690.1814      655.06608      655.06608      655.06608      2.8109643e+08  1.6653509     -15400487      -15400487       1082.8064     -15399405      -1685.4401     -1689.6575     -1695.4466     -0.53844644    -5.2014446     -2.852163       14775.104    
    159000   362.60679      0.0795         0.16991824     0.17018698     0.17102975    -1681.5033      655.36963      655.36963      655.36963      2.8148739e+08  1.6630379     -15391429      -15391429       1079.7811     -15390349      -1676.9627     -1679.6149     -1687.9324     -0.36896031    -7.130422      -4.4762242      14772.506    
    160000   361.29308      0.08           0.16901607     0.16921475     0.17020283    -1672.6167      655.67318      655.67318      655.67318      2.818787e+08   1.6607292     -15382398      -15382398       1075.8691     -15381323      -1668.0589     -1670.0198     -1679.7714      1.6729868     -7.535343      -6.5104546      14793.788    
    161000   359.843        0.0805         0.16816526     0.16836463     0.16922832    -1663.8151      655.97673      655.97673      655.97673      2.8227038e+08  1.6584248     -15373395      -15373395       1071.551      -15372324      -1659.6621     -1661.6297     -1670.1537      3.300475      -6.5651621     -7.5401558      14733.391    
    162000   358.75242      0.081          0.16734874     0.16757489     0.16801354    -1654.5346      656.28029      656.28029      656.28029      2.8266242e+08  1.6561246     -15364434      -15364434       1068.3035     -15363366      -1651.6036     -1653.8356     -1658.1647      3.0815679     -4.977081      -6.5473324      14728.695    
    163000   357.98176      0.0815         0.16656608     0.16668135     0.16699916    -1645.6833      656.58384      656.58384      656.58384      2.8305483e+08  1.6538287     -15355522      -15355522       1066.0085     -15354456      -1643.8794     -1645.017      -1648.1535      1.8104236     -2.9998292     -4.6271734      14763.926    
    164000   357.16004      0.082          0.16580348     0.16570617     0.16627013    -1637.5682      656.88739      656.88739      656.88739      2.834476e+08   1.651537      -15346648      -15346648       1063.5616     -15345584      -1636.3532     -1635.3927     -1640.9586      0.2804472     -2.3833704     -3.0984398      14755.481    
    165000   356.27905      0.0825         0.16506064     0.1648638      0.16574337    -1630.6203      657.19094      657.19094      657.19094      2.8384073e+08  1.6492495     -15337799      -15337799       1060.9382     -15336738      -1629.0218     -1627.0792     -1635.7599     -0.72429903    -3.741579      -1.5660043      14732.022    
    166000   355.37139      0.083          0.16432354     0.164186       0.16528219    -1624.4485      657.4945       657.4945       657.4945       2.8423422e+08  1.6469663     -15328972      -15328972       1058.2353     -15327914      -1621.7473     -1620.3898     -1631.2083     -0.52189464    -5.6863903     -0.95553616     14783.003    
    167000   354.41794      0.0835         0.16366935     0.16369266     0.16469117    -1618.7291      657.79805      657.79805      657.79805      2.8462808e+08  1.6446873     -15320165      -15320165       1055.3961     -15319109      -1615.2909     -1615.521      -1625.3754      0.57222386    -6.1717223     -1.0822358      14790.721    
    168000   353.65229      0.084          0.16293981     0.16303883     0.16389149    -1611.5474      658.1016       658.1016       658.1016       2.850223e+08   1.6424125     -15311385      -15311385       1053.1161     -15310332      -1608.0909     -1609.0681     -1617.4833      1.9282818     -5.1273425     -2.2642312      14773.465    
    169000   353.3023       0.0845         0.16198363     0.16204227     0.16288246    -1601.804       658.40515      658.40515      658.40515      2.8541689e+08  1.6401419     -15302642      -15302642       1052.0739     -15301590      -1598.6541     -1599.2329     -1607.5249      2.5018248     -3.7739879     -3.9780557      14691.866    
    170000   352.94966      0.085          0.16114381     0.16115125     0.16192429    -1592.9578      658.70871      658.70871      658.70871      2.8581184e+08  1.6378754     -15293937      -15293937       1051.0238     -15292886      -1590.3658     -1590.4392     -1598.0685      1.673934      -2.6622698     -5.6297036      14767.557    
    171000   351.94045      0.0855         0.16070142     0.16064448     0.16126359    -1587.6618      659.01226      659.01226      659.01226      2.8620715e+08  1.6356132     -15285268      -15285268       1048.0186     -15284220      -1585.9997     -1585.4378     -1591.5479      1.1952801     -2.8808862     -6.1291146      14752.766    
    172000   350.52699      0.086          0.16042083     0.16013803     0.16077243    -1583.4568      659.31581      659.31581      659.31581      2.8660283e+08  1.6333551     -15276616      -15276616       1043.8095     -15275572      -1583.2305     -1580.4394     -1586.7005      0.92046351    -4.0496617     -4.5425475      14767.883    
    173000   349.43586      0.0865         0.15985348     0.15944143     0.16023279    -1577.5235      659.61936      659.61936      659.61936      2.8699887e+08  1.6311011     -15267977      -15267977       1040.5603     -15266936      -1577.6312     -1573.5646     -1581.3747      1.1459423     -6.1578863     -2.1905857      14769.735    
    174000   348.87476      0.087          0.15901332     0.15863102     0.15956344    -1569.8916      659.92292      659.92292      659.92292      2.8739528e+08  1.6288514     -15259360      -15259360       1038.8895     -15258321      -1569.3395     -1565.5665     -1574.7688      2.1686146     -7.2552535     -0.86213146     14803.364    
    175000   348.49571      0.0875         0.15822677     0.15770246     0.15890477    -1562.0824      660.22647      660.22647      660.22647      2.8779205e+08  1.6266057     -15250771      -15250771       1037.7607     -15249733      -1561.5768     -1556.4022     -1568.2681      2.8232901     -6.0246953     -0.69067062     14748.866    
    176000   348.10546      0.088          0.15765806     0.15684926     0.15833669    -1555.5358      660.53002      660.53002      660.53002      2.8818919e+08  1.6243642     -15242217      -15242217       1036.5986     -15241181      -1555.964      -1547.9818     -1562.6616      2.0557515     -3.4381643     -1.4214015      14717.698    
    177000   347.7773       0.0885         0.15713357     0.15633286     0.15775401    -1550.1947      660.83357      660.83357      660.83357      2.8858669e+08  1.6221267     -15233695      -15233695       1035.6214     -15232660      -1550.7878     -1542.8853     -1556.911       1.760612      -1.3016651     -2.947788       14573.442    
    178000   347.42033      0.089          0.15661177     0.15614032     0.15722073    -1546.0904      661.13713      661.13713      661.13713      2.8898456e+08  1.6198934     -15225195      -15225195       1034.5584     -15224160      -1545.638      -1540.9851     -1551.648       2.4426595     -0.92721189    -4.3610472      14679.902    
    179000   346.83036      0.0895         0.15616097     0.15590904     0.15660322    -1541.8151      661.44068      661.44068      661.44068      2.8938279e+08  1.6176642     -15216703      -15216703       1032.8016     -15215670      -1541.189      -1538.7026     -1545.5537      3.179112      -2.3074966     -4.9777445      14748.116    
    180000   346.15332      0.09           0.15568853     0.15548559     0.15600978    -1536.9155      661.74423      661.74423      661.74423      2.8978139e+08  1.6154391     -15208220      -15208220       1030.7855     -15207189      -1536.5263     -1534.5235     -1539.6968      3.2759872     -4.1610503     -4.2187326      14762.678    
    181000   345.64591      0.0905         0.15507999     0.15494519     0.15556506    -1531.6728      662.04778      662.04778      662.04778      2.9018035e+08  1.6132181     -15199757      -15199757       1029.2745     -15198728      -1530.5205     -1529.1901     -1535.3077      3.5690892     -4.3479151     -2.5539236      14762.873    
    182000   345.28408      0.091          0.15438888     0.15408889     0.15510774    -1525.0777      662.35134      662.35134      662.35134      2.9057968e+08  1.6110011     -15191323      -15191323       1028.197      -15190294      -1523.6998     -1520.7391     -1530.7944      3.6449224     -3.6739841     -1.2180645      14747.617    
    183000   344.99525      0.0915         0.15383094     0.15319747     0.15432621    -1517.7387      662.65489      662.65489      662.65489      2.9097938e+08  1.6087882     -15182920      -15182920       1027.3369     -15181892      -1518.1934     -1511.9414     -1523.0813      1.9623797     -3.463012      -1.4911066      14749.261    
    184000   344.26353      0.092          0.15348596     0.15255271     0.15360483    -1512.1096      662.95844      662.95844      662.95844      2.9137945e+08  1.6065793     -15174544      -15174544       1025.158      -15173519      -1514.7886     -1505.5782     -1515.9618     -1.3332568     -3.4489784     -1.9149985      14770.991    
    185000   343.18823      0.0925         0.1530639      0.15191793     0.15318363    -1507.2472      663.26199      663.26199      663.26199      2.9177987e+08  1.6043745     -15166182      -15166182       1021.9559     -15165160      -1510.6233     -1499.3134     -1511.8049     -2.5160598     -3.2744635     -0.73170299     14739.846    
    186000   342.50127      0.093          0.15236175     0.15124295     0.15275033    -1501.2913      663.56554      663.56554      663.56554      2.9218067e+08  1.6021737     -15157836      -15157836       1019.9103     -15156816      -1503.6936     -1492.6518     -1507.5285      0.66290347    -2.814236      -1.0299956      14744.345    
    187000   342.4812       0.0935         0.15159989     0.15072114     0.15215584    -1495.1126      663.8691       663.8691       663.8691       2.9258183e+08  1.5999769     -15149517      -15149517       1019.8505     -15148497      -1496.1746     -1487.502      -1501.6613      5.5751836     -1.1891163     -2.9715567      14754.33     
    188000   342.36664      0.094          0.15100695     0.15039812     0.15148279    -1489.8852      664.17265      664.17265      664.17265      2.9298337e+08  1.5977842     -15141227      -15141227       1019.5094     -15140208      -1490.3227     -1484.314      -1495.0189      7.6820657      0.17206196    -3.0355272      14763.663    
    189000   341.78155      0.0945         0.15059605     0.1502703      0.15090392    -1486.2086      664.4762       664.4762       664.4762       2.9338526e+08  1.5955954     -15132953      -15132953       1017.7671     -15131935      -1486.2674     -1483.0525     -1489.3059      5.6844046      0.50561779    -1.4000398      14753.443    
    190000   341.20082      0.095          0.15032588     0.15019131     0.15064209    -1484.1986      664.77975      664.77975      664.77975      2.9378753e+08  1.5934107     -15124679      -15124679       1016.0378     -15123663      -1483.6011     -1482.2729     -1486.7218      2.8148714      0.040577809   -0.018268631    14776.465    
    191000   341.15663      0.0955         0.15018681     0.14983484     0.15047134    -1482.0067      665.08331      665.08331      665.08331      2.9419016e+08  1.5912299     -15116411      -15116411       1015.9062     -15115395      -1482.2285     -1478.7549     -1485.0367      1.7626784     -1.7574594      0.54928031     14763.434    
    192000   341.31431      0.096          0.1499797      0.14918329     0.1499894     -1477.5965      665.38686      665.38686      665.38686      2.9459316e+08  1.5890531     -15108158      -15108158       1016.3757     -15107141      -1480.1845     -1472.3246     -1480.2803      1.4985136     -4.390641       0.3779647      14730.059    
    193000   341.17492      0.0965         0.14948608     0.14837158     0.14924803    -1470.8633      665.69041      665.69041      665.69041      2.9499653e+08  1.5868803     -15099926      -15099926       1015.9607     -15098910      -1475.3129     -1464.3136     -1472.9635      1.3527715     -5.3015046      0.38059134     14636.379    
    194000   340.6865       0.097          0.14880442     0.1476314      0.14869499    -1464.3665      665.99396      665.99396      665.99396      2.9540026e+08  1.5847115     -15091722      -15091722       1014.5062     -15090707      -1468.5854     -1457.0086     -1467.5055      1.2941833     -3.725147       0.8621045      14699.176    
    195000   339.79158      0.0975         0.14806212     0.14704224     0.14839593    -1459.0025      666.29752      666.29752      666.29752      2.9580437e+08  1.5825466     -15083538      -15083538       1011.8413     -15082526      -1461.2595     -1451.1941     -1464.554       1.3830385     -1.4122819     -0.47186236     14703.038    
    196000   339.07123      0.098          0.14728736     0.14655691     0.14805619    -1453.7395      666.60107      666.60107      666.60107      2.9620884e+08  1.5803856     -15075374      -15075374       1009.6962     -15074364      -1453.6132     -1446.4042     -1461.201       2.313055       0.61254891    -2.7346482      14705.493    
    197000   339.07128      0.0985         0.14660763     0.14611033     0.14760467    -1448.5488      666.90462      666.90462      666.90462      2.9661368e+08  1.5782286     -15067238      -15067238       1009.6964     -15066228      -1446.9048     -1441.9968     -1456.7448      3.689252       1.4595098     -3.4547069      14743.61     
    198000   339.22485      0.099          0.14610885     0.14574629     0.14704167    -1443.8583      667.20817      667.20817      667.20817      2.9701889e+08  1.5760755     -15059121      -15059121       1010.1537     -15058111      -1441.9823     -1438.404      -1451.1885      4.1258192      0.071496743   -1.9638168      14755.772    
    199000   338.96036      0.0995         0.14572681     0.14537304     0.14642058    -1439.3303      667.51173      667.51173      667.51173      2.9742447e+08  1.5739263     -15051021      -15051021       1009.3661     -15050011      -1438.2118     -1434.7203     -1445.0588      4.005811      -1.5400823      0.05795222     14752.151    
    200000   338.26234      0.1            0.14554116     0.14508713     0.14578088    -1435.6745      667.81528      667.81528      667.81528      2.9783042e+08  1.571781      -15042934      -15042934       1007.2875     -15041926      -1436.3795     -1431.8986     -1438.7455      4.2457018     -1.5160678      0.75487874     14331.786    
    201000   337.48973      0.1005         0.14551117     0.14483173     0.1452972     -1433.1445      668.11883      668.11883      668.11883      2.9823674e+08  1.5696396     -15034852      -15034852       1004.9868     -15033847      -1436.0836     -1429.3781     -1433.9719      4.1282705     -0.89705397     0.57694625     14708.817    
    202000   337.30897      0.101          0.14538188     0.14437217     0.14508753    -1430.5176      668.42238      668.42238      668.42238      2.9864342e+08  1.5675021     -15026777      -15026777       1004.4485     -15025772      -1434.8076     -1424.8426     -1431.9026      2.9382241     -1.3907662      0.21296647     14691.372    
    203000   337.75722      0.1015         0.14497446     0.14378357     0.14489561    -1426.6095      668.72594      668.72594      668.72594      2.9905048e+08  1.5653685     -15018718      -15018718       1005.7833     -15017712      -1430.7867     -1419.0335     -1430.0085      2.2179617     -2.3064617     -0.1764683      14723.29     
    204000   337.70848      0.102          0.14431581     0.14329036     0.14443671    -1421.3106      669.02949      669.02949      669.02949      2.994579e+08   1.5632387     -15010679      -15010679       1005.6382     -15009673      -1424.2863     -1414.1659     -1425.4795      2.3626576     -1.9840454     -0.50390451     14719.421    
    205000   336.95213      0.1025         0.14349715     0.14274891     0.14383925    -1414.8707      669.33304      669.33304      669.33304      2.998657e+08   1.5611128     -15002659      -15002659       1003.3859     -15001655      -1416.2068     -1408.8222     -1419.583       3.6237137     -0.40740262     0.021191066    14757.854    
    206000   336.68807      0.103          0.14279154     0.14207726     0.14322418    -1408.3164      669.63659      669.63659      669.63659      3.0027386e+08  1.5589908     -14994667      -14994667       1002.5996     -14993665      -1409.2429     -1402.1935     -1413.5127      4.9050278      0.48346505     0.38606812     14769.778    
    207000   337.20696      0.1035         0.1424769      0.14165996     0.1427205     -1404.2515      669.94015      669.94015      669.94015      3.006824e+08   1.5568726     -14986702      -14986702       1004.1447     -14985697      -1406.1377     -1398.0751     -1408.5418      4.8261226     -0.74266807     0.43075883     14665.397    
    208000   337.53443      0.104          0.14237671     0.14159293     0.14233497    -1402.4331      670.2437       670.2437       670.2437       3.0109131e+08  1.5547582     -14978750      -14978750       1005.1199     -14977745      -1405.1488     -1397.4136     -1404.7369      4.6459493     -0.9617369      1.1823971      14752.227    
    209000   337.42539      0.1045         0.14217027     0.14143304     0.14199688    -1400.1158      670.54725      670.54725      670.54725      3.0150058e+08  1.5526477     -14970809      -14970809       1004.7952     -14969804      -1403.1115     -1395.8355     -1401.4002      4.8443162      0.9977849      2.2999344      14744.136    
    210000   337.08155      0.105          0.14178583     0.14100832     0.14176129    -1396.6788      670.8508       670.8508       670.8508       3.0191023e+08  1.550541      -14962874      -14962874       1003.7713     -14961870      -1399.3173     -1391.644      -1399.0752      3.5923785      2.7025672      2.0034128      14733.608    
    211000   336.39465      0.1055         0.14131437     0.14057813     0.14154581    -1393.0037      671.15435      671.15435      671.15435      3.0232025e+08  1.5484381     -14954940      -14954940       1001.7258     -14953938      -1394.6644     -1387.3983     -1396.9485      1.9206693      2.7929412     -0.58990642     14208.783    
    212000   335.71043      0.106          0.14072528     0.14025097     0.14109386    -1388.5027      671.45791      671.45791      671.45791      3.0273064e+08  1.546339      -14947012      -14947012       999.68832     -14946012      -1388.8505     -1384.1695     -1392.4881      1.2217508      1.5425681     -2.5631942      14741.271    
    213000   335.45424      0.1065         0.14009847     0.13977359     0.14053942    -1383.0463      671.76146      671.76146      671.76146      3.031414e+08   1.5442437     -14939113      -14939113       998.92545     -14938114      -1382.6644     -1379.4581     -1387.0163      1.8087489     -0.24461423    -1.8216304      14742.563    
    214000   335.4167       0.107          0.13974156     0.13909289     0.14017665    -1378.4393      672.06501      672.06501      672.06501      3.0355253e+08  1.5421521     -14931247      -14931247       998.81365     -14930248      -1379.142      -1372.7401     -1383.436       2.6090814     -1.594276      -0.10816109     14723.592    
    215000   335.28134      0.1075         0.1396329      0.13844919     0.13974831    -1374.5551      672.36856      672.36856      672.36856      3.0396404e+08  1.5400644     -14923397      -14923397       998.41059     -14922398      -1378.0696     -1366.3873     -1379.2085      3.4078415     -2.2165757      1.0788276      14743.813    
    216000   335.2805       0.108          0.13960797     0.13801723     0.13925943    -1371.4438      672.67212      672.67212      672.67212      3.0437591e+08  1.5379804     -14915554      -14915554       998.40809     -14914556      -1377.8235     -1362.1241     -1374.3837      4.1904396     -2.1854521      1.8984985      14792.448    
    217000   335.21591      0.1085         0.13947429     0.13803607     0.13899328    -1370.1904      672.97567      672.97567      672.97567      3.0478816e+08  1.5359002     -14907711      -14907711       998.21573     -14906713      -1376.5042     -1362.3101     -1371.7571      4.8022716     -1.0524924      1.7686448      14415.459    
[...]
   3065000   325.53791      1.5325         0.007501054    0.0072888618   0.0071907642  -72.310815      1537.4929      1537.4929      1537.4929      3.6344555e+09  0.12880174    -4335626.9     -4335626.9      969.39632     -4334657.5     -74.029647     -71.935473     -70.967325      1.1510616      0.79219959     1.6317245      12879.606    
   3066000   325.4615       1.533          0.0074916497   0.0072810024   0.0071796793  -72.217556      1537.7965      1537.7965      1537.7965      3.6366086e+09  0.12872548    -4333521.9     -4333521.9      969.16876     -4332552.7     -73.936834     -71.857907     -70.857926      1.1170319      0.77911325     1.6217513      12898.291    
   3067000   325.39192      1.5335         0.0074800492   0.0072724714   0.007170347   -72.120627      1538.1         1538.1         1538.1         3.6387626e+09  0.12864928    -4331418.9     -4331418.9      968.96156     -4330449.9     -73.822346     -71.773712     -70.765823      1.0621575      0.77556037     1.6180565      12675.332    
   3068000   325.34233      1.534          0.0074698498   0.0072639105   0.0071639439  -72.037846      1538.4036      1538.4036      1538.4036      3.6409174e+09  0.12857314    -4329317.8     -4329317.8      968.81391     -4328349       -73.721686     -71.689223     -70.702629      1.0110013      0.77784335     1.6249145      12945.376    
   3069000   325.30467      1.5345         0.0074639138   0.0072571956   0.0071575741  -71.975273      1538.7071      1538.7071      1538.7071      3.6430731e+09  0.12849706    -4327218.1     -4327218.1      968.70176     -4326249.4     -73.663101     -71.622952     -70.639764      0.98360166     0.78572317     1.6317319      12956.552    
   3070000   325.27113      1.535          0.0074595942   0.0072531669   0.0071507789  -71.925454      1539.0107      1539.0107      1539.0107      3.6452296e+09  0.12842104    -4325119.2     -4325119.2      968.60189     -4324150.6     -73.620471     -71.583191     -70.572701      0.98383728     0.80562309     1.6423923      12954.639    
   3071000   325.24566      1.5355         0.0074546404   0.0072516305   0.0071444669  -71.883338      1539.3142      1539.3142      1539.3142      3.647387e+09   0.12834508    -4323020.6     -4323020.6      968.52604     -4322052.1     -73.57158      -71.568028     -70.510406      1.0076747      0.83824566     1.6485318      12936.705    
   3072000   325.24145      1.536          0.007448381    0.0072504372   0.0071389689  -71.840734      1539.6178      1539.6178      1539.6178      3.6495452e+09  0.12826919    -4320922.4     -4320922.4      968.51351     -4319953.8     -73.509805     -71.556252     -70.456145      1.0385751      0.86965187     1.6349223      12972.912    
   3073000   325.26885      1.5365         0.0074410757   0.0072475151   0.007133979   -71.790673      1539.9213      1539.9213      1539.9213      3.6517042e+09  0.12819335    -4318824.7     -4318824.7      968.5951      -4317856.1     -73.437708     -71.527413     -70.406898      1.0592878      0.87991445     1.5997693      12980.341    
   3074000   325.31664      1.537          0.0074341065   0.0072421591   0.0071306707  -71.739243      1540.2249      1540.2249      1540.2249      3.6538642e+09  0.12811757    -4316728       -4316728        968.73741     -4315759.2     -73.368927     -71.474554     -70.374248      1.0647544      0.87048922     1.5655236      12965.09     
   3075000   325.3547       1.5375         0.0074291708   0.0072356768   0.0071299967  -71.699463      1540.5284      1540.5284      1540.5284      3.6560249e+09  0.12804185    -4314631.9     -4314631.9      968.85074     -4313663.1     -73.320215     -71.410578     -70.367596      1.0717946      0.86027525     1.5572941      12982.675    
   3076000   325.36846      1.538          0.0074266711   0.007229963    0.0071297538  -71.671644      1540.832       1540.832       1540.832       3.6581866e+09  0.12796619    -4312535.9     -4312535.9      968.89171     -4311567       -73.295545     -71.354187     -70.365199      1.0778312      0.86034127     1.5795         12998.187    
   3077000   325.37914      1.5385         0.0074235689   0.0072233352   0.0071273525  -71.631735      1541.1355      1541.1355      1541.1355      3.660349e+09   0.12789059    -4310440       -4310440        968.92352     -4309471       -73.264929     -71.288776     -70.3415        1.0701184      0.87741098     1.6209154      12773.41     
   3078000   325.40137      1.539          0.0074189537   0.0072151951   0.0071215187  -71.570582      1541.4391      1541.4391      1541.4391      3.6625124e+09  0.12781505    -4308344.9     -4308344.9      968.98971     -4307375.9     -73.21938      -71.208439     -70.283925      1.0586244      0.89898266     1.6616724      12954.014    
   3079000   325.40706      1.5395         0.0074158919   0.0072067934   0.0071136738  -71.507062      1541.7426      1541.7426      1541.7426      3.6646765e+09  0.12773957    -4306251.1     -4306251.1      969.00666     -4305282.1     -73.189162     -71.125521     -70.206502      1.0514858      0.90888346     1.6762077      12966.601    
   3080000   325.381        1.54           0.0074136272   0.0071984352   0.0071048093  -71.442953      1542.0462      1542.0462      1542.0462      3.6668416e+09  0.12766414    -4304158.2     -4304158.2      968.92907     -4303189.3     -73.166812     -71.043032     -70.119016      1.0381211      0.90920548     1.6553786      12950.902    
   3081000   325.34496      1.5405         0.0074092015   0.0071887091   0.0070960845  -71.367695      1542.3497      1542.3497      1542.3497      3.6690075e+09  0.12758878    -4302066.5     -4302066.5      968.82173     -4301097.6     -73.123133     -70.947042     -70.032909      1.017956       0.90517602     1.6199311      12900.321    
   3082000   325.31677      1.541          0.0074020335   0.0071781941   0.0070896224  -71.288264      1542.6533      1542.6533      1542.6533      3.6711742e+09  0.12751348    -4299976.2     -4299976.2      968.73778     -4299007.5     -73.052391     -70.843268     -69.969133      1.0156003      0.89328564     1.5996937      12954.549    
   3083000   325.29904      1.5415         0.0073925408   0.0071700537   0.007087147   -71.222112      1542.9568      1542.9568      1542.9568      3.6733418e+09  0.12743823    -4297887.3     -4297887.3      968.685       -4296918.6     -72.958705     -70.762928     -69.944703      1.028151       0.87394438     1.5993562      12981.756    
   3084000   325.29325      1.542          0.0073815441   0.0071656304   0.0070870061  -71.170921      1543.2604      1543.2604      1543.2604      3.6755102e+09  0.12736305    -4295799.2     -4295799.2      968.66774     -4294830.6     -72.850176     -70.719273     -69.943312      1.0395636      0.85724305     1.5955855      13026.895    
   3085000   325.29807      1.5425         0.0073724993   0.0071645669   0.0070857025  -71.133378      1543.564       1543.564       1543.564       3.6776795e+09  0.12728792    -4293711.7     -4293711.7      968.6821      -4292743.1     -72.76091      -70.708777     -69.930446      1.0428131      0.85443987     1.575657       12914.094    
   3086000   325.3033       1.543          0.00736924     0.0071637131   0.0070814866  -71.105978      1543.8675      1543.8675      1543.8675      3.6798497e+09  0.12721286    -4291624.4     -4291624.4      968.69769     -4290655.7     -72.728745     -70.700352     -69.888839      1.0433649      0.87134138     1.5549847      12973.107    
   3087000   325.3087       1.5435         0.0073700506   0.0071609498   0.0070745874  -71.076858      1544.1711      1544.1711      1544.1711      3.6820207e+09  0.12713785    -4289537.2     -4289537.2      968.71375     -4288568.5     -72.736744     -70.67308      -69.820749      1.0521967      0.89202846     1.5419681      12968.911    
   3088000   325.31082      1.544          0.0073712049   0.0071582599   0.0070666315  -71.045633      1544.4746      1544.4746      1544.4746      3.6841925e+09  0.1270629     -4287450.1     -4287450.1      968.72008     -4286481.4     -72.748137     -70.646533     -69.742231      1.0781363      0.89838454     1.5438516      12948.284    
   3089000   325.30016      1.5445         0.0073684117   0.0071551588   0.0070580136  -70.997892      1544.7782      1544.7782      1544.7782      3.6863652e+09  0.12698801    -4285363.2     -4285363.2      968.68832     -4284394.5     -72.72057      -70.615927     -69.657178      1.1078723      0.90471823     1.558831       12914.594    
   3090000   325.27243      1.545          0.0073593394   0.007149005    0.0070483836  -70.916121      1545.0817      1545.0817      1545.0817      3.6885388e+09  0.12691318    -4283277.1     -4283277.1      968.60574     -4282308.5     -72.631033     -70.555193     -69.562138      1.1230173      0.91601186     1.5747351      12954.356    
   3091000   325.23519      1.5455         0.0073482935   0.0071406575   0.0070397435  -70.823898      1545.3853      1545.3853      1545.3853      3.6907132e+09  0.12683841    -4281193       -4281193        968.49484     -4280224.5     -72.522018     -70.47281      -69.476867      1.1170621      0.92450584     1.5795719      12924.051    
   3092000   325.19186      1.546          0.007340945    0.007132427    0.0070341932  -70.754389      1545.6888      1545.6888      1545.6888      3.6928885e+09  0.12676369    -4279110.7     -4279110.7      968.36582     -4278142.3     -72.449495     -70.391582     -69.422089      1.0852713      0.93097276     1.5786482      12949.851    
   3093000   325.15451      1.5465         0.0073376032   0.0071253797   0.0070306538  -70.708567      1545.9924      1545.9924      1545.9924      3.6950646e+09  0.12668904    -4277029       -4277029        968.25461     -4276060.8     -72.416514     -70.32203      -69.387158      1.0409646      0.9360634      1.5778272      12940.496    
   3094000   325.14309      1.547          0.0073364541   0.0071193162   0.007028473   -70.677665      1546.2959      1546.2959      1546.2959      3.6972416e+09  0.12661444    -4274947.6     -4274947.6      968.22061     -4273979.4     -72.405172     -70.262188     -69.365635      1.0143778      0.9440143      1.5736006      12911.192    
   3095000   325.16133      1.5475         0.007335656    0.007114226    0.0070279012  -70.656413      1546.5995      1546.5995      1546.5995      3.6994194e+09  0.12653991    -4272866.3     -4272866.3      968.27491     -4271898       -72.397296     -70.211952     -69.359993      1.025251       0.95934993     1.5648329      12944.831    
   3096000   325.19359      1.548          0.0073351299   0.0071110555   0.0070276621  -70.643466      1546.903       1546.903       1546.903       3.7015981e+09  0.12646543    -4270784.7     -4270784.7      968.37097     -4269816.3     -72.392104     -70.180661     -69.357633      1.0623755      0.96862106     1.5555195      12941.777    
   3097000   325.22481      1.5485         0.0073337819   0.0071087044   0.0070233822  -70.617217      1547.2066      1547.2066      1547.2066      3.7037777e+09  0.12639101    -4268702.7     -4268702.7      968.46396     -4267734.2     -72.3788       -70.157458     -69.315393      1.1127099      0.96427388     1.5582408      12922.752    
   3098000   325.24414      1.549          0.0073298848   0.0071053149   0.0070132581  -70.55994       1547.5101      1547.5101      1547.5101      3.7059581e+09  0.12631664    -4266621       -4266621        968.52151     -4265652.5     -72.340339     -70.124006     -69.215476      1.152924       0.95042578     1.5705498      12998.92     
   3099000   325.24384      1.5495         0.0073236433   0.0071013268   0.0070000075  -70.482696      1547.8137      1547.8137      1547.8137      3.7081393e+09  0.12624234    -4264540.7     -4264540.7      968.52062     -4263572.2     -72.27874      -70.084646     -69.084702      1.1588302      0.93522395     1.5853426      13062.883    
   3100000   325.22926      1.55           0.0073173226   0.0070979999   0.0069885613  -70.413303      1548.1172      1548.1172      1548.1172      3.7103215e+09  0.12616809    -4262461.9     -4262461.9      968.47721     -4261493.4     -72.21636      -70.051812     -68.971737      1.1310143      0.91896337     1.5973511      12816.53     
   3101000   325.21385      1.5505         0.0073120361   0.0070947523   0.0069819573  -70.363502      1548.4208      1548.4208      1548.4208      3.7125044e+09  0.12609391    -4260384.1     -4260384.1      968.43132     -4259415.7     -72.164185     -70.019761     -68.906561      1.0871392      0.89801616     1.6025164      13021.536    
   3102000   325.2149       1.551          0.0073073153   0.0070896196   0.0069798676  -70.324212      1548.7243      1548.7243      1548.7243      3.7146883e+09  0.12601978    -4258306.8     -4258306.8      968.43445     -4257338.4     -72.117594     -69.969105     -68.885938      1.0457577      0.87561478     1.5998003      13005.894    
   3103000   325.24562      1.5515         0.0073029649   0.0070826346   0.0069785824  -70.282694      1549.0279      1549.0279      1549.0279      3.7168729e+09  0.12594571    -4256230       -4256230        968.52593     -4255261.4     -72.074659     -69.900169     -68.873253      1.0049239      0.86683404     1.5877521      13033.072    
   3104000   325.30274      1.552          0.0072986876   0.0070762619   0.0069764137  -70.240524      1549.3314      1549.3314      1549.3314      3.7190585e+09  0.12587169    -4254153.8     -4254153.8      968.69602     -4253185.1     -72.032446     -69.837275     -68.85185       0.96655862     0.87618999     1.5756496      13001.939    
   3105000   325.35858      1.5525         0.0072945305   0.0070716329   0.0069735099  -70.202067      1549.635       1549.635       1549.635       3.7212449e+09  0.12579774    -4252078.1     -4252078.1      968.86228     -4251109.3     -71.991419     -69.79159      -68.823192      0.95237471     0.8944179      1.5667524      12974.44     
   3106000   325.38961      1.553          0.0072901696   0.0070670071   0.0069681994  -70.155033      1549.9386      1549.9386      1549.9386      3.7234321e+09  0.12572384    -4250002.8     -4250002.8      968.95468     -4249033.9     -71.94838      -69.745937     -68.770782      0.9654291      0.9072358      1.5592895      12969.648    
   3107000   325.39067      1.5535         0.0072850732   0.0070607802   0.0069600694  -70.091036      1550.2421      1550.2421      1550.2421      3.7256202e+09  0.12565       -4247928.4     -4247928.4      968.95784     -4246959.5     -71.898082     -69.684482     -68.690545      0.99322359     0.90543251     1.5471916      12938.381    
   3108000   325.37301      1.554          0.0072768646   0.0070523014   0.0069509767  -70.006226      1550.5457      1550.5457      1550.5457      3.7278092e+09  0.12557622    -4245855.5     -4245855.5      968.90525     -4244886.6     -71.817069     -69.600803     -68.600807      1.0100619      0.88894491     1.5331148      12942.295    
   3109000   325.3483       1.5545         0.0072662913   0.0070434896   0.0069434244  -69.917609      1550.8492      1550.8492      1550.8492      3.729999e+09   0.1255025     -4243784.6     -4243784.6      968.83168     -4242815.8     -71.712719     -69.513838     -68.526271      1.008918       0.8646812      1.5285983      12971.54     
   3110000   325.31487      1.555          0.0072574485   0.0070358191   0.0069380011  -69.845444      1551.1528      1551.1528      1551.1528      3.7321897e+09  0.12542883    -4241715.3     -4241715.3      968.73213     -4240746.5     -71.625448     -69.438136     -68.472747      0.99422732     0.84477771     1.5354324      13011.211    
   3111000   325.27639      1.5555         0.0072521185   0.0070293199   0.0069341515  -69.793864      1551.4563      1551.4563      1551.4563      3.7343812e+09  0.12535522    -4239646.9     -4239646.9      968.61754     -4238678.3     -71.572844     -69.373993     -68.434754      0.96793897     0.84118593     1.5467041      12997.836    
   3112000   325.2407       1.556          0.0072484305   0.0070257244   0.0069324523  -69.764313      1551.7599      1551.7599      1551.7599      3.7365736e+09  0.12528167    -4237579       -4237579        968.51127     -4236610.5     -71.536447     -69.338508     -68.417985      0.94262062     0.8480447      1.5617623      12996.002    
   3113000   325.21317      1.5565         0.0072439632   0.0070255086   0.0069328408  -69.750186      1552.0634      1552.0634      1552.0634      3.7387669e+09  0.12520818    -4235510.8     -4235510.8      968.42928     -4234542.3     -71.492358     -69.336379     -68.421819      0.92805949     0.85391821     1.5741973      13044.464    
   3114000   325.19109      1.557          0.0072371248   0.007026114    0.0069328685  -69.729772      1552.367       1552.367       1552.367       3.740961e+09   0.12513474    -4233442       -4233442        968.36354     -4232473.6     -71.424868     -69.342354     -68.422093      0.93092795     0.84988537     1.5680509      12952.518    
   3115000   325.17019      1.5575         0.0072280054   0.0070234585   0.006929374   -69.679539      1552.6705      1552.6705      1552.6705      3.743156e+09   0.12506136    -4231373.2     -4231373.2      968.30131     -4230404.9     -71.334867     -69.316146     -68.387604      0.96044059     0.8475944      1.5451908      12954.63     
   3116000   325.16472      1.558          0.0072206356   0.0070178733   0.006924335   -69.620343      1552.9741      1552.9741      1552.9741      3.7453518e+09  0.12498804    -4229305.5     -4229305.5      968.28502     -4228337.3     -71.262132     -69.261025     -68.337873      1.0021447      0.86284205     1.5246109      12947.693    
   3117000   325.18153      1.5585         0.0072182472   0.0070106492   0.0069196027  -69.573153      1553.2776      1553.2776      1553.2776      3.7475485e+09  0.12491478    -4227238.8     -4227238.8      968.33507     -4226270.5     -71.238561     -69.189728     -68.291169      1.0295486      0.8842971      1.5175857      12943.577    
   3118000   325.20464      1.559          0.0072184966   0.0070023082   0.0069135524  -69.526629      1553.5812      1553.5812      1553.5812      3.749746e+09   0.12484157    -4225172.6     -4225172.6      968.4039      -4224204.2     -71.241022     -69.107409     -68.231457      1.028024       0.89650285     1.5314081      12885.063    
   3119000   325.22247      1.5595         0.0072174513   0.0069918301   0.0069048389  -69.460055      1553.8847      1553.8847      1553.8847      3.7519444e+09  0.12476842    -4223107.4     -4223107.4      968.45698     -4222138.9     -71.230706     -69.003998     -68.145462      1.0085353      0.89626561     1.5536284      12915.658    
   3120000   325.23317      1.56           0.0072128478   0.0069812679   0.0068943529  -69.375668      1554.1883      1554.1883      1554.1883      3.7541437e+09  0.12469533    -4221043.7     -4221043.7      968.48883     -4220075.2     -71.185273     -68.899757     -68.041973      0.99110749     0.88261228     1.5635087      12865.589    
   3121000   325.24431      1.5605         0.0072045792   0.0069732023   0.0068845761  -69.289769      1554.4918      1554.4918      1554.4918      3.7563438e+09  0.12462229    -4218982       -4218982        968.52203     -4218013.5     -71.103669     -68.820156     -67.945483      0.98078592     0.86360137     1.5533099      12878.579    
   3122000   325.2639       1.561          0.0071964679   0.0069693635   0.0068777594  -69.228031      1554.7954      1554.7954      1554.7954      3.7585448e+09  0.12454932    -4216922.1     -4216922.1      968.