LAMMPS (23 Jun 2022 - Update 1)
OMP_NUM_THREADS environment is not set. Defaulting to 1 thread. (src/comm.cpp:98)
  using 1 OpenMP thread(s) per MPI task
###

# Read restart info
read_restart ${read_res}
read_restart ./trial10/3070/equpmf70.res
Reading restart file ...
  restart file = 23 Jun 2022, LAMMPS = 23 Jun 2022
  restoring atom style atomic from restart
  orthogonal box = (1645.2736 1645.2736 1645.2736) to (2354.7264 2354.7264 2354.7264)
  1 by 2 by 2 MPI processor grid
  restoring pair style table from restart
  1000 atoms
  read_restart CPU = 0.043 seconds

# Settings
pair_style table/pgn spline 10941
pair_coeff 1 1 N20e.txt DE_GNP 308 72.9   # 1.35 * r
pair_coeff 2 2 N100e.txt DE_GNP 473.9 111.78
WARNING: 20 of 10941 force values in table DE_GNP are inconsistent with -dE/dr.
WARNING:  Should only be flagged at inflection points (src/pair_table_pgn.cpp:478)
pair_coeff 1 2 mixed_potentiale.txt DE_GNP 391.2 92.95
WARNING: 1564 of 10941 force values in table DE_GNP are inconsistent with -dE/dr.
WARNING:  Should only be flagged at inflection points (src/pair_table_pgn.cpp:478)

# Neighbor list
neighbor 2.0 bin
neigh_modify delay 0 every 1 check no once yes

# Temperature
variable T equal ${Temp}
variable T equal 300

# Deformation
reset_timestep 0
variable tmp equal "lx"
variable L0 equal ${tmp}
variable L0 equal 709.452765789612
variable strain equal "(lx - v_L0)/v_L0"
variable stp equal "step"
variable tmpe equal "temp"
variable p1 equal "v_strain"
variable p2 equal "-pxx*1.01325/10000"
variable p3 equal "-pyy*1.01325/10000"
variable p4 equal "-pzz*1.01325/10000"
variable p5 equal "lx"
variable p6 equal "ly"
variable p7 equal "lz"
variable p8 equal "press"
variable p9 equal "epair"
variable p10 equal "etotal"

# Thermo
thermo_style custom step temp v_p1 v_p2 v_p3 v_p4 press lx ly lz vol density epair pe ke etotal pxx pyy pzz pxy pxz pyz spcpu
thermo ${ts_save}
thermo 1000

# Dump
# dump 1 all custom 2000 ./${N20}${N100}/tensile/trajectory/trajectory_${usic}_${trial}_*.tensile.custom id type x y z ix iy iz
# dump_modify 1 sort id
dump 2 all cfg 50000 ./trial${trial}/${N20}${N100}/tensile/trajectory/dumpten.tens_${usic}_${trial}_*.cfg mass type xs ys zs fx fy fz
dump 2 all cfg 50000 ./trial10/${N20}${N100}/tensile/trajectory/dumpten.tens_${usic}_${trial}_*.cfg mass type xs ys zs fx fy fz
dump 2 all cfg 50000 ./trial10/30${N100}/tensile/trajectory/dumpten.tens_${usic}_${trial}_*.cfg mass type xs ys zs fx fy fz
dump 2 all cfg 50000 ./trial10/3070/tensile/trajectory/dumpten.tens_${usic}_${trial}_*.cfg mass type xs ys zs fx fy fz
dump 2 all cfg 50000 ./trial10/3070/tensile/trajectory/dumpten.tens_1_${trial}_*.cfg mass type xs ys zs fx fy fz
dump 2 all cfg 50000 ./trial10/3070/tensile/trajectory/dumpten.tens_1_10_*.cfg mass type xs ys zs fx fy fz
dump_modify 2 element N20 N100

fix 1 all nvt temp ${T} ${T} 100
fix 1 all nvt temp 300 ${T} 100
fix 1 all nvt temp 300 300 100
fix 2 all deform 1 x erate ${strain_rate} y erate ${strain_rate} z erate ${strain_rate} units box
fix 2 all deform 1 x erate 5e-6 y erate ${strain_rate} z erate ${strain_rate} units box
fix 2 all deform 1 x erate 5e-6 y erate 5e-6 z erate ${strain_rate} units box
fix 2 all deform 1 x erate 5e-6 y erate 5e-6 z erate 5e-6 units box
fix             def1 all print ${ts_save} "${p1} ${p2} ${p3} ${p4}" file ./tensile/${trial}/tensile${N20}${N100}_${usic}_${trial}.txt screen no
fix             def1 all print 1000 "${p1} ${p2} ${p3} ${p4}" file ./tensile/${trial}/tensile${N20}${N100}_${usic}_${trial}.txt screen no
fix             def1 all print 1000 "${p1} ${p2} ${p3} ${p4}" file ./tensile/10/tensile${N20}${N100}_${usic}_${trial}.txt screen no
fix             def1 all print 1000 "${p1} ${p2} ${p3} ${p4}" file ./tensile/10/tensile30${N100}_${usic}_${trial}.txt screen no
fix             def1 all print 1000 "${p1} ${p2} ${p3} ${p4}" file ./tensile/10/tensile3070_${usic}_${trial}.txt screen no
fix             def1 all print 1000 "${p1} ${p2} ${p3} ${p4}" file ./tensile/10/tensile3070_1_${trial}.txt screen no
fix             def1 all print 1000 "${p1} ${p2} ${p3} ${p4}" file ./tensile/10/tensile3070_1_10.txt screen no

timestep       		${ts}
timestep       		0.1
run				${steps_tensile}
run				6000000
Generated 0 of 1 mixed pair_coeff terms from geometric mixing rule
Unused restart file global fix info:
  fix style: npt, fix ID: 5
Neighbor list info ...
  update every 1 steps, delay 0 steps, check no
  max neighbors/atom: 2000, page size: 100000
  master list distance cutoff = 113.78
  ghost atom cutoff = 113.78
  binsize = 56.89, bins = 13 13 13
  1 neighbor lists, perpetual/occasional/extra = 1 0 0
  (1) pair table/pgn, perpetual
      attributes: half, newton on
      pair build: half/bin/atomonly/newton
      stencil: half/bin/3d
      bin: standard
Per MPI rank memory allocation (min/avg/max) = 3.843 | 3.843 | 3.844 Mbytes
   Step          Temp           v_p1           v_p2           v_p3           v_p4          Press            Lx             Ly             Lz           Volume        Density         E_pair         PotEng         KinEng         TotEng          Pxx            Pyy            Pzz            Pxy            Pxz            Pyz           S/CPU     
         0   305.54298      4.8073745e-16  0.01451665    -0.0076381697   0.010624738   -57.581112      709.45277      709.45277      709.45277      3.5708406e+08  1.6833576     -40095132      -40095132       909.85483     -40094222      -143.2682       75.382874     -104.85801      15.655291      23.326458      14.565701      0            
      1000   362.73046      0.0005         0.022190771    0.00049311931  0.018482739   -135.42768      709.80749      709.80749      709.80749      3.5761995e+08  1.680835      -40094629      -40094629       1080.1494     -40093549      -219.00588     -4.8667092     -182.41045      15.468153      22.483485      15.061315      13340.124    
      2000   440.44343      0.001          0.029324236    0.0079215312   0.025644373   -206.89248      710.16222      710.16222      710.16222      3.5815638e+08  1.6783176     -40093734      -40093734       1311.5653     -40092422      -289.40771     -78.179435     -253.09029      15.243136      20.999914      15.742589      13465.224    
      3000   497.71251      0.0015         0.036145437    0.015062995    0.03245234    -275.22254      710.51694      710.51694      710.51694      3.5869335e+08  1.6758051     -40092429      -40092429       1482.1029     -40090947      -356.72773     -148.6602      -320.2797       15.216225      19.119723      15.512001      13464.178    
      4000   525.00637      0.002          0.043008352    0.022281435    0.039310683   -344.10879      710.87167      710.87167      710.87167      3.5923085e+08  1.6732977     -40090656      -40090656       1563.3793     -40089093      -424.45943     -219.90067     -387.96627      15.128429      17.28505       14.728697      13457.307    
      5000   528.2434       0.0025         0.04999239     0.029461389    0.046337452   -413.82097      711.2264       711.2264       711.2264       3.5976889e+08  1.6707952     -40088361      -40088361       1573.0186     -40086788      -493.38653     -290.7613      -457.31509      15.175286      16.418174      14.095559      13896.485    
      6000   518.13864      0.003          0.057027346    0.036527703    0.053351248   -483.28414      711.58112      711.58112      711.58112      3.6030746e+08  1.6682978     -40085526      -40085526       1542.9284     -40083983      -562.81614     -360.5004      -526.53588      15.925521      16.620943      13.197764      15824.687    
      7000   502.51684      0.0035         0.063900858    0.043545951    0.060123909   -551.2648       711.93585      711.93585      711.93585      3.6084658e+08  1.6658053     -40082145      -40082145       1496.4094     -40080648      -630.65244     -429.76512     -593.37684      16.559152      16.456563      12.495647      15743.813    
      8000   485.66935      0.004          0.07050425     0.050677416    0.066868624   -618.63736      712.29058      712.29058      712.29058      3.6138623e+08  1.6633178     -40078205      -40078205       1446.2404     -40076759      -695.82285     -500.14721     -659.94201      16.211574      15.787789      12.37416       15771.469    
      9000   469.55087      0.0045         0.076909131    0.05775968     0.073635162   -685.26679      712.6453       712.6453       712.6453       3.6192642e+08  1.6608352     -40073711      -40073711       1398.2423     -40072313      -759.03411     -570.04372     -726.72254      15.369347      15.417618      12.210909      15724.025    
     10000   455.42341      0.005          0.083162671    0.064485215    0.080127007   -749.32114      713.00003      713.00003      713.00003      3.6246714e+08  1.6583576     -40068675      -40068675       1356.1731     -40067319      -820.75175     -636.41959     -790.79208      15.081686      15.336046      11.950089      15787.403    
     11000   443.5838       0.0055         0.089321029    0.070893117    0.086233021   -810.74815      713.35476      713.35476      713.35476      3.6300841e+08  1.6558849     -40063116      -40063116       1320.9168     -40061795      -881.53002     -699.66067     -851.05375      15.679612      14.376376      11.490831      15793.822    
     12000   433.42318      0.006          0.09535207     0.077180057    0.092125688   -870.65652      713.70948      713.70948      713.70948      3.6355021e+08  1.6534171     -40057052      -40057052       1290.6602     -40055761      -941.05177     -761.70793     -909.20985      16.043845      12.79408       11.322907      15796.939    
     13000   424.37025      0.0065         0.10130971     0.083409895    0.098092791   -930.38044      714.06421      714.06421      714.06421      3.6409255e+08  1.6509542     -40050493      -40050493       1263.7021     -40049229      -999.84908     -823.19166     -968.10058      15.845454      11.837683      11.699653      15478.875    
     14000   416.60723      0.007          0.1071908      0.089453719    0.10403378    -989.1547       714.41894      714.41894      714.41894      3.6463543e+08  1.6484962     -40043449      -40043449       1240.5852     -40042208      -1057.891      -882.83957     -1026.7335      15.609801      11.667351      11.657559      15818.767    
     15000   410.53019      0.0075         0.11292345     0.095414045    0.1098721     -1046.8282      714.77366      714.77366      714.77366      3.6517886e+08  1.6460431     -40035926      -40035926       1222.4888     -40034704      -1114.4678     -941.66341     -1084.3534      15.960144      11.643891      11.195098      15774.285    
     16000   405.9716       0.008          0.11860033     0.10135894     0.11553807    -1103.7004      715.12839      715.12839      715.12839      3.6572282e+08  1.6435949     -40027927      -40027927       1208.9141     -40026718      -1170.4942     -1000.3349     -1140.2721      16.232847      10.829773      10.675385      15767.425    
     17000   402.57253      0.0085         0.12417509     0.10716608     0.12094758    -1158.9399      715.48311      715.48311      715.48311      3.6626732e+08  1.6411515     -40019462      -40019462       1198.7922     -40018263      -1225.5128     -1057.647      -1193.6598      16.620733      10.037153      9.9779378      15817.599    
     18000   399.91133      0.009          0.12956226     0.11288514     0.12629476    -1213.0674      715.83784      715.83784      715.83784      3.6681236e+08  1.6387129     -40010547      -40010547       1190.8676     -40009356      -1278.6801     -1114.0897     -1246.4324      16.97559       10.721833      9.2371227      15549.472    
     19000   397.26232      0.0095         0.13474185     0.11844978     0.13161658    -1265.9206      716.19257      716.19257      716.19257      3.6735794e+08  1.6362792     -40001198      -40001198       1182.9794     -40000015      -1329.7987     -1169.0084     -1298.9546      16.782556      10.977307      9.9466277      15806.85     
     20000   394.93368      0.01           0.13970944     0.123703       0.13677302    -1316.5078      716.54729      716.54729      716.54729      3.6790406e+08  1.6338503     -39991425      -39991425       1176.045      -39990249      -1378.825      -1220.8537     -1349.8447      16.435236      9.6146663      11.866989      15787.066    
     21000   393.61005      0.0105         0.14450858     0.12885064     0.14180441    -1365.7822      716.90202      716.90202      716.90202      3.6845072e+08  1.6314262     -39981243      -39981243       1172.1035     -39980071      -1426.1888     -1271.657      -1399.5007      16.483186      8.2352351      12.913594      15711.743    
     22000   393.13782      0.011          0.14936974     0.13403928     0.14676932    -1415.1767      717.25675      717.25675      717.25675      3.6899793e+08  1.6290068     -39970658      -39970658       1170.6973     -39969488      -1474.1647     -1322.8648     -1448.5005      16.557745      7.343194       11.465187      15713.594    
     23000   392.78034      0.0115         0.15441354     0.13924582     0.1516586     -1464.9822      717.61147      717.61147      717.61147      3.6954567e+08  1.6265923     -39959663      -39959663       1169.6328     -39958493      -1523.9431     -1374.2494     -1496.754       16.73284       6.3750159      10.326729      15757.102    
     24000   392.51494      0.012          0.15940248     0.14428005     0.15641311    -1513.597       717.9662       717.9662       717.9662       3.7009396e+08  1.6241825     -39948260      -39948260       1168.8425     -39947091      -1573.1802     -1423.9334     -1543.6773      17.154194      5.7987207      10.810436      15772.838    
     25000   392.70937      0.0125         0.16399102     0.14904317     0.16097133    -1559.3569      718.32093      718.32093      718.32093      3.7064279e+08  1.6217775     -39936472      -39936472       1169.4214     -39935302      -1618.4655     -1470.9417     -1588.6635      17.30408       6.134203       10.988683      15773.128    
     26000   393.67242      0.013          0.16814174     0.15357867     0.16532766    -1602.2636      718.67565      718.67565      718.67565      3.7119216e+08  1.6193773     -39924330      -39924330       1172.2892     -39923157      -1659.43       -1515.7037     -1631.6571      16.264852      6.3014839      11.025293      15760.215    
     27000   394.98446      0.0135         0.1723249      0.1581225      0.16962703    -1645.117       719.03038      719.03038      719.03038      3.7174207e+08  1.6169817     -39911843      -39911843       1176.1963     -39910666      -1700.7145     -1560.5477     -1674.0886      14.985737      5.5923141      11.363217      15751.495    
     28000   395.74706      0.014          0.17667606     0.16275779     0.17389437    -1688.7185      719.3851       719.3851       719.3851       3.7229253e+08  1.6145909     -39898993      -39898993       1178.4672     -39897815      -1743.6571     -1606.2945     -1716.204       15.143509      5.1070606      11.192645      15777.872    
     29000   396.50394      0.0145         0.18077602     0.16724244     0.17794136    -1730.2733      719.73983      719.73983      719.73983      3.7284353e+08  1.6122048     -39885781      -39885781       1180.721      -39884601      -1784.1206     -1650.5546     -1756.1447      15.839025      5.3535732      10.734537      15789.992    
     30000   397.98101      0.015          0.18471153     0.17156968     0.18186708    -1770.3702      720.09456      720.09456      720.09456      3.7339507e+08  1.6098234     -39872235      -39872235       1185.1195     -39871049      -1822.961      -1693.2611     -1794.8885      16.550418      5.5415648      11.059324      15770.884    
     31000   399.49109      0.0155         0.18866961     0.17585598     0.18590649    -1810.7808      720.44928      720.44928      720.44928      3.7394716e+08  1.6074467     -39858363      -39858363       1189.6162     -39857174      -1862.0243     -1735.5636     -1834.7544      17.421389      4.9166841      11.612253      15785.631    
     32000   400.62838      0.016          0.19253193     0.18002026     0.18998559    -1850.6054      720.80401      720.80401      720.80401      3.7449979e+08  1.6050747     -39844159      -39844159       1193.0029     -39842966      -1900.1424     -1776.6619     -1875.012       17.490819      3.881571       11.108962      15776.604    
     33000   401.64371      0.0165         0.19627258     0.18399985     0.19373738    -1888.3455      721.15874      721.15874      721.15874      3.7505297e+08  1.6027073     -39829633      -39829633       1196.0264     -39828437      -1937.0597     -1815.9374     -1912.0393      16.636489      2.8796416      10.281809      15807.76     
     34000   402.97503      0.017          0.1998989      0.18771734     0.19723996    -1924.0273      721.51346      721.51346      721.51346      3.7560669e+08  1.6003446     -39814801      -39814801       1199.9908     -39813601      -1972.8488     -1852.6261     -1946.6071      15.550623      2.2616914      10.266222      15776.362    
     35000   404.70648      0.0175         0.20344545     0.19124843     0.20079656    -1959.0112      721.86819      721.86819      721.86819      3.7616095e+08  1.5979866     -39799675      -39799675       1205.1468     -39798470      -2007.8504     -1887.4753     -1981.7079      14.954015      1.9376963      10.503365      15768.371    
     36000   406.53007      0.018          0.20694934     0.1948337      0.20429298    -1993.8351      722.22292      722.22292      722.22292      3.7671576e+08  1.5956331     -39784260      -39784260       1210.5771     -39783049      -2042.4312     -1922.8592     -2016.2149      14.936662      2.0276131      10.806312      15796.171    
     37000   408.24705      0.0185         0.21027765     0.19853864     0.20761511    -2027.9016      722.57764      722.57764      722.57764      3.7727112e+08  1.5932843     -39768551      -39768551       1215.69       -39767335      -2075.279      -1959.4241     -2049.0018      15.770306      2.8461481      10.882825      15785.923    
     38000   409.95027      0.019          0.2133513      0.20229754     0.21082109    -2060.9258      722.93237      722.93237      722.93237      3.7782702e+08  1.5909401     -39752562      -39752562       1220.7619     -39751341      -2105.6137     -1996.5215     -2080.6424      16.66962       3.6408379      10.297493      15750.678    
     39000   411.83753      0.0195         0.21632321     0.20588108     0.21390737    -2092.6446      723.28709      723.28709      723.28709      3.7838346e+08  1.5886005     -39736309      -39736309       1226.3818     -39735083      -2134.9441     -2031.8883     -2111.1016      16.661007      2.6146277      10.322617      15810.067    
     40000   413.68953      0.02           0.21943471     0.2092304      0.21698581    -2124.0264      723.64182      723.64182      723.64182      3.7894046e+08  1.5862654     -39719797      -39719797       1231.8968     -39718565      -2165.6522     -2064.9435     -2141.4834      15.868046      0.94748621     10.811514      15726.721    
     41000   414.96127      0.0205         0.22259355     0.21251851     0.22020544    -2155.827       723.99655      723.99655      723.99655      3.7949799e+08  1.583935      -39703018      -39703018       1235.6838     -39701782      -2196.8276     -2097.3946     -2173.2588      15.139589     -0.29302582     10.426131      15742.033    
     42000   416.04137      0.021          0.22552534     0.21559449     0.22333708    -2185.8933      724.35127      724.35127      724.35127      3.8005608e+08  1.5816091     -39685971      -39685971       1238.9002     -39684732      -2225.7621     -2127.7521     -2204.1656      14.710568     -1.1532016      9.7266687      15802.283    
     43000   417.72926      0.0215         0.22822972     0.21841339     0.22625199    -2213.6528      724.706        724.706        724.706        3.8061471e+08  1.5792877     -39668674      -39668674       1243.9264     -39667430      -2252.4522     -2155.5726     -2232.9335      14.695766     -1.1844911      9.4220641      15758.556    
     44000   419.74891      0.022          0.23095044     0.22124708     0.2288965     -2240.6251      725.06073      725.06073      725.06073      3.8117389e+08  1.5769709     -39651142      -39651142       1249.9406     -39649892      -2279.3036     -2183.5389     -2259.0328      15.106244     -0.28497033     9.6995987      15813.862    
     45000   421.75705      0.0225         0.23355555     0.22419843     0.23132642    -2266.8983      725.41545      725.41545      725.41545      3.8173362e+08  1.5746587     -39633388      -39633388       1255.9205     -39632132      -2305.014      -2212.6665     -2283.0143      15.262281     -0.047595989    10.222008      15764.107    
     46000   423.37106      0.023          0.23598791     0.22719344     0.23373377    -2292.6725      725.77018      725.77018      725.77018      3.8229389e+08  1.5723509     -39615408      -39615408       1260.7267     -39614147      -2329.0196     -2242.225      -2306.773       14.275309     -0.99826363     9.7341493      15782.272    
     47000   424.5532       0.0235         0.23843471     0.23006034     0.23629172    -2318.5682      726.12491      726.12491      726.12491      3.8285471e+08  1.5700476     -39597204      -39597204       1264.2469     -39595940      -2353.1676     -2270.519      -2332.018       12.782424     -1.3279007      8.9753577      15788.784    
     48000   425.87751      0.024          0.24080486     0.23263327     0.23890116    -2343.414       726.47963      726.47963      726.47963      3.8341608e+08  1.5677489     -39578791      -39578791       1268.1905     -39577523      -2376.5591     -2295.9119     -2357.7711      12.155769     -0.64540866     9.0765339      15801.522    
     49000   427.42219      0.0245         0.24308657     0.23513722     0.24136333    -2367.2576      726.83436      726.83436      726.83436      3.83978e+08    1.5654546     -39560167      -39560167       1272.7903     -39558894      -2399.0779     -2320.6239     -2382.0709      12.932303     -0.60561351     9.3261763      15839.519    
     50000   428.94552      0.025          0.24524329     0.23759927     0.2436471     -2389.9652      727.18908      727.18908      727.18908      3.8454047e+08  1.5631648     -39541335      -39541335       1277.3265     -39540057      -2420.3631     -2344.9225     -2404.6099      13.82767      -1.3050143      8.7834298      15236.261    
     51000   430.61378      0.0255         0.24723506     0.2399916      0.24581932    -2411.5338      727.54381      727.54381      727.54381      3.8510349e+08  1.5608795     -39522306      -39522306       1282.2943     -39521024      -2440.0203     -2368.533      -2426.0481      14.079595     -2.0281041      7.4722518      15750.775    
     52000   432.08612      0.026          0.24918336     0.24226864     0.24795456    -2432.4584      727.89854      727.89854      727.89854      3.8566705e+08  1.5585986     -39503093      -39503093       1286.6787     -39501806      -2459.2485     -2391.0056     -2447.1212      13.741287     -2.4293628      6.251465       15796.076    
     53000   432.91439      0.0265         0.25131236     0.24445144     0.25013045    -2453.8013      728.25326      728.25326      728.25326      3.8623117e+08  1.5563222     -39483691      -39483691       1289.1451     -39482401      -2480.2602     -2412.5482     -2468.5956      13.369109     -1.9992614      6.3383778      15403.426    
     54000   433.28077      0.027          0.25339872     0.24653764     0.25224354    -2474.4795      728.60799      728.60799      728.60799      3.8679584e+08  1.5540502     -39464106      -39464106       1290.2361     -39462816      -2500.851      -2433.1373     -2489.4502      11.769918     -1.9718903      6.9197347      15696.006    
     55000   434.04222      0.0275         0.25513047     0.24841024     0.25407555    -2492.3637      728.96272      728.96272      728.96272      3.8736105e+08  1.5517826     -39444359      -39444359       1292.5036     -39443066      -2517.942      -2451.6185     -2507.5307      9.0868437     -3.1207251      6.8872706      15786.921    
     56000   435.47756      0.028          0.25676219     0.2501905      0.25568074    -2508.8689      729.31744      729.31744      729.31744      3.8792682e+08  1.5495194     -39424455      -39424455       1296.7778     -39423159      -2534.0458     -2469.1882     -2523.3727      8.0400479     -3.9990256      6.8849509      15834.359    
     57000   436.81896      0.0285         0.25861532     0.25219934     0.25730785    -2526.9266      729.67217      729.67217      729.67217      3.8849313e+08  1.5472607     -39404382      -39404382       1300.7723     -39403081      -2552.3348     -2489.014      -2539.431       9.2452849     -4.2903608      7.1979224      15775.716    
     58000   437.60267      0.029          0.26038664     0.25436023     0.2589929     -2545.4059      730.0269       730.0269       730.0269       3.8906e+08     1.5450063     -39384130      -39384130       1303.106      -39382827      -2569.8163     -2510.3403     -2556.0612      10.814527     -4.6070184      7.5076241      14397.381    
     59000   438.28936      0.0295         0.2617339      0.25632054     0.26064805    -2561.732       730.38162      730.38162      730.38162      3.8962742e+08  1.5427563     -39363725      -39363725       1305.1509     -39362420      -2583.1128     -2529.6871     -2572.3963      11.74426      -4.9228958      7.7502078      14836.19     
     60000   439.09358      0.03           0.26305414     0.25797722     0.26237937    -2577.2209      730.73635      730.73635      730.73635      3.9019539e+08  1.5405106     -39343181      -39343181       1307.5457     -39341873      -2596.1426     -2546.0372     -2589.4831      11.574386     -5.1708911      7.3615193      15721.702    
     61000   439.60615      0.0305         0.26463809     0.25939463     0.26405508    -2592.6073      731.09108      731.09108      731.09108      3.9076391e+08  1.5382693     -39322500      -39322500       1309.072      -39321191      -2611.7749     -2560.026      -2606.021       10.624573     -5.5186259      6.2366354      15789.668    
     62000   439.98332      0.031          0.26612152     0.2608594      0.26544775    -2606.8876      731.4458       731.4458       731.4458       3.9133298e+08  1.5360324     -39301681      -39301681       1310.1952     -39300371      -2626.4152     -2574.4821     -2619.7657      9.3286692     -5.6540211      5.0992458      15799.187    
     63000   440.45881      0.0315         0.26734169     0.26244316     0.26671609    -2620.2844      731.80053      731.80053      731.80053      3.9190261e+08  1.5337998     -39280726      -39280726       1311.6111     -39279414      -2638.4573     -2590.1126     -2632.2832      7.7885924     -5.5370941      4.549652       15756.98     
     64000   441.20221      0.032          0.26832578     0.26397795     0.26786731    -2632.3581      732.15525      732.15525      732.15525      3.9247279e+08  1.5315715     -39259642      -39259642       1313.8248     -39258328      -2648.1696     -2605.2598     -2643.6448      7.0231667     -5.1065269      5.0973867      15738.721    
     65000   442.3147       0.0325         0.26927205     0.26525819     0.26887867    -2643.0098      732.50998      732.50998      732.50998      3.9304352e+08  1.5293476     -39238441      -39238441       1317.1377     -39237124      -2657.5086     -2617.8948     -2653.6261      7.1598183     -5.2070387      6.236343       15816.872    
     66000   443.19569      0.033          0.27046536     0.26641521     0.26995239    -2654.274       732.86471      732.86471      732.86471      3.936148e+08   1.5271279     -39217142      -39217142       1319.7611     -39215822      -2669.2855     -2629.3137     -2664.2229      7.6421512     -6.0506168      6.2110254      15828        
     67000   443.4628       0.0335         0.27172018     0.26749065     0.27111747    -2665.7729      733.21943      733.21943      733.21943      3.9418664e+08  1.5249125     -39195738      -39195738       1320.5565     -39194417      -2681.6697     -2639.9274     -2675.7214      8.1887899     -6.9890939      5.0835119      15825.203    
     68000   443.66066      0.034          0.2727564      0.26849701     0.27214765    -2675.8814      733.57416      733.57416      733.57416      3.9475903e+08  1.5227014     -39174228      -39174228       1321.1457     -39172906      -2691.8964     -2649.8595     -2685.8885      7.9641591     -8.2384597      3.9140595      15808.727    
     69000   444.16157      0.0345         0.27342784     0.26953852     0.27294236    -2684.131       733.92889      733.92889      733.92889      3.9533198e+08  1.5204946     -39152616      -39152616       1322.6373     -39151293      -2698.5229     -2660.1384     -2693.7317      7.2299303     -8.9199918      3.1526617      15839.372    
     70000   444.69082      0.035          0.27395462     0.27061369     0.27361785    -2691.6232      734.28361      734.28361      734.28361      3.9590548e+08  1.5182921     -39130911      -39130911       1324.2133     -39129587      -2703.7219     -2670.7495     -2700.3982      6.8494493     -8.2696177      2.7647729      15790.345    
     71000   445.07664      0.0355         0.27466265     0.27151979     0.27434501    -2699.3255      734.63834      734.63834      734.63834      3.9647953e+08  1.5160938     -39109128      -39109128       1325.3622     -39107802      -2710.7096     -2679.692      -2707.5748      6.5732602     -7.8761379      2.8455832      15801.807    
     72000   445.16999      0.036          0.27538577     0.27220646     0.27518247    -2706.7183      734.99307      734.99307      734.99307      3.9705414e+08  1.5138997     -39087265      -39087265       1325.6402     -39085940      -2717.8462     -2686.4689     -2715.8398      6.2034149     -7.928408       3.3950457      15822.976    
     73000   445.27457      0.0365         0.27591839     0.27284314     0.27595695    -2713.1128      735.34779      735.34779      735.34779      3.976293e+08   1.5117099     -39065329      -39065329       1325.9516     -39064003      -2723.1028     -2692.7524     -2723.4833      6.553956      -8.2525101      4.047586       15801.248    
     74000   445.44998      0.037          0.27638425     0.27353839     0.27647837    -2718.6479      735.70252      735.70252      735.70252      3.9820502e+08  1.5095243     -39043333      -39043333       1326.474      -39042007      -2727.7005     -2699.614      -2728.6294      7.0768071     -8.8117028      3.4375068      15777.288    
     75000   445.44762      0.0375         0.27681021     0.27426032     0.27694439    -2723.9573      736.05724      736.05724      736.05724      3.9878129e+08  1.5073429     -39021266      -39021266       1326.4669     -39019939      -2731.9044     -2706.7389     -2733.2286      6.9351833     -9.4964702      1.6558844      15798.025    
     76000   445.16853      0.038          0.27726151     0.27489873     0.27747482    -2729.2872      736.41197      736.41197      736.41197      3.9935812e+08  1.5051657     -38999127      -38999127       1325.6359     -38997802      -2736.3584     -2713.0395     -2738.4635      6.47077       -9.5782168      0.43345553     15593.403    
     77000   444.92216      0.0385         0.27758018     0.27535647     0.2779211     -2733.3095      736.7667       736.7667       736.7667       3.999355e+08   1.5029927     -38976931      -38976931       1324.9022     -38975606      -2739.5034     -2717.557      -2742.868       6.67075       -8.3741659      0.68323136     15780.632    
     78000   444.7514       0.039          0.27781434     0.2757545      0.27823661    -2736.4272      737.12142      737.12142      737.12142      4.0051345e+08  1.5008239     -38954681      -38954681       1324.3937     -38953356      -2741.8143     -2721.4853     -2745.9819      7.0100788     -7.4262615      1.2438496      15801.218    
     79000   444.35756      0.0395         0.27802283     0.27607654     0.27845718    -2738.8981      737.47615      737.47615      737.47615      4.0109194e+08  1.4986592     -38932384      -38932384       1323.2209     -38931061      -2743.872      -2724.6636     -2748.1587      6.8409362     -8.0017823      1.2034753      15811.392    
     80000   444.02846      0.04           0.2780977      0.27628765     0.27850123    -2739.9838      737.83088      737.83088      737.83088      4.01671e+08    1.4964987     -38910054      -38910054       1322.2409     -38908732      -2744.6109     -2726.7471     -2748.5934      6.5059953     -9.2850995      1.2881759      15810.02     
     81000   444.08969      0.0405         0.27807539     0.27642713     0.27850234    -2740.373       738.1856       738.1856       738.1856       4.0225061e+08  1.4943424     -38887703      -38887703       1322.4233     -38886381      -2744.3907     -2728.1237     -2748.6044      6.254487      -10.124434      1.309394       15798.355    
     82000   444.15061      0.041          0.27798464     0.27652268     0.27855077    -2740.548       738.54033      738.54033      738.54033      4.0283078e+08  1.4921902     -38865335      -38865335       1322.6047     -38864012      -2743.4951     -2729.0667     -2749.0823      6.1243614     -10.501351     -0.10214807     15771.452    
     83000   443.57179      0.0415         0.27786584     0.27651574     0.27852637    -2740.0541      738.89506      738.89506      738.89506      4.0341151e+08  1.4900421     -38842938      -38842938       1320.8811     -38841617      -2742.3226     -2728.9981     -2748.8416      5.7830631     -10.845406     -1.4922281      15821.148    
     84000   442.55162      0.042          0.27769863     0.27644795     0.2783697     -2738.7656      739.24978      739.24978      739.24978      4.0399279e+08  1.4878982     -38820515      -38820515       1317.8432     -38819197      -2740.6724     -2728.3291     -2747.2953      5.0341372     -10.605        -1.3707205      15776.809    
     85000   441.82466      0.0425         0.27745993     0.27641354     0.27810798    -2737.0061      739.60451      739.60451      739.60451      4.0457463e+08  1.4857584     -38798080      -38798080       1315.6784     -38796764      -2738.3166     -2727.9895     -2744.7123      4.1977906     -9.6714623     -0.57925119     15779.971    
     86000   441.45215      0.043          0.27729315     0.27645771     0.2779226     -2735.993       739.95923      739.95923      739.95923      4.0515703e+08  1.4836226     -38775639      -38775639       1314.5691     -38774325      -2736.6706     -2728.4254     -2742.8828      3.7274091     -8.8992813     -0.49523467     15804.935    
     87000   441.17525      0.0435         0.27710601     0.27642097     0.27788205    -2735.1231      740.31396      740.31396      740.31396      4.0573999e+08  1.481491      -38753193      -38753193       1313.7446     -38751879      -2734.8237     -2728.0629     -2742.4826      3.5576668     -8.9942124     -0.82064653     15800.393    
     88000   441.00556      0.044          0.27678404     0.27616588     0.27779598    -2732.9415      740.66869      740.66869      740.66869      4.0632351e+08  1.4793634     -38730743      -38730743       1313.2393     -38729430      -2731.646      -2725.5453     -2741.6332      2.9797533     -10.401564     -1.02519        15821.246    
     89000   440.88357      0.0445         0.27630207     0.27577186     0.27737367    -2728.6705      741.02341      741.02341      741.02341      4.0690759e+08  1.4772399     -38708300      -38708300       1312.876      -38706987      -2726.8895     -2721.6567     -2737.4653      2.5826881     -11.717348     -1.1819371      15755.775    
     90000   440.57943      0.045          0.27568276     0.27526754     0.27667642    -2722.6803      741.37814      741.37814      741.37814      4.0749223e+08  1.4751205     -38685871      -38685871       1311.9703     -38684559      -2720.7773     -2716.6794     -2730.584       2.3045251     -12.107067     -1.7472115      15710.562    
     91000   439.56297      0.0455         0.27512214     0.27480921     0.27599618    -2717.0903      741.73287      741.73287      741.73287      4.0807742e+08  1.4730051     -38663461      -38663461       1308.9435     -38662152      -2715.2444     -2712.1561     -2723.8706      2.3268435     -11.896951     -2.4892256      15785.53     
     92000   437.86028      0.046          0.27451535     0.27440533     0.27538313    -2711.7487      742.08759      742.08759      742.08759      4.0866318e+08  1.4708938     -38641074      -38641074       1303.8731     -38639770      -2709.2559     -2708.17       -2717.8202      3.1848372     -11.185771     -2.2208104      15716.515    
     93000   436.37462      0.0465         0.27376187     0.27404224     0.27466167    -2705.7021      742.44232      742.44232      742.44232      4.092495e+08   1.4687865     -38618708      -38618708       1299.4491     -38617408      -2701.8196     -2704.5866     -2710.7         3.1470075     -9.8247037     -1.2908311      15765.617    
     94000   435.6793       0.047          0.27296193     0.27360999     0.27379783    -2698.8066      742.79705      742.79705      742.79705      4.0983638e+08  1.4666832     -38596376      -38596376       1297.3786     -38595079      -2693.9247     -2700.3207     -2702.1745      2.1903477     -9.3759908     -0.58103445     15806.855    
     95000   435.58255      0.0475         0.27228174     0.27294829     0.27305766    -2691.9572      743.15177      743.15177      743.15177      4.1042382e+08  1.464584      -38574086      -38574086       1297.0905     -38572789      -2687.2118     -2693.7901     -2694.8696      2.0877536     -10.693895     -0.82455577     15706.877    
     96000   435.18041      0.048          0.2716098      0.27207205     0.27245892    -2684.8944      743.5065       743.5065       743.5065       4.1101182e+08  1.4624887     -38551834      -38551834       1295.8929     -38550539      -2680.5803     -2685.1424     -2688.9605      2.6548193     -12.413705     -1.596336       15718.89     
     97000   434.43411      0.0485         0.2707345      0.27120961     0.27179721    -2677.0008      743.86122      743.86122      743.86122      4.1160038e+08  1.4603975     -38529623      -38529623       1293.6706     -38528329      -2671.9418     -2676.6307     -2682.4299      2.553647      -12.710576     -1.6783863      15753.5      
     98000   433.52584      0.049          0.26971604     0.27050975     0.27093749    -2668.5197      744.21595      744.21595      744.21595      4.121895e+08   1.4583102     -38507457      -38507457       1290.9659     -38506166      -2661.8904     -2669.7236     -2673.9451      1.2551954     -12.153089     -1.0842376      15729.307    
     99000   432.31909      0.0495         0.26870805     0.269724       0.26984829    -2659.0356      744.57068      744.57068      744.57068      4.1277918e+08  1.4562269     -38485337      -38485337       1287.3724     -38484050      -2651.9423     -2661.9689     -2663.1955      0.66587445    -11.51058      -0.72173656     15769.983    
    100000   431.16411      0.05           0.26777357     0.26878262     0.26871013    -2649.1202      744.9254       744.9254       744.9254       4.1336943e+08  1.4541476     -38463266      -38463266       1283.9331     -38461982      -2642.7196     -2652.6782     -2651.9628      1.498626      -10.858573     -0.14824608     15371.616    
    101000   430.14778      0.0505         0.26686797     0.26798513     0.26775809    -2640.3855      745.28013      745.28013      745.28013      4.1396024e+08  1.4520722     -38441257      -38441257       1280.9066     -38439976      -2633.7821     -2644.8076     -2642.5669      2.2752829     -11.368202      0.51687911     15639.403    
    102000   429.07061      0.051          0.26588503     0.26718364     0.26687738    -2631.6179      745.63486      745.63486      745.63486      4.1455161e+08  1.4500007     -38419310      -38419310       1277.699      -38418033      -2624.0813     -2636.8975     -2633.875       1.8163139     -12.888947     -0.031619333    15668.5      
    103000   428.28487      0.0515         0.26476834     0.26607676     0.26578437    -2620.7072      745.98958      745.98958      745.98958      4.1514354e+08  1.4479333     -38397430      -38397430       1275.3592     -38396155      -2613.0603     -2625.9734     -2623.0878      0.63732119    -14.234459     -0.72692824     15655.004    
    104000   427.70979      0.052          0.26354311     0.264834       0.26447636    -2608.2851      746.34431      746.34431      746.34431      4.1573604e+08  1.4458697     -38375626      -38375626       1273.6467     -38374352      -2600.9682     -2613.7084     -2610.1788     -0.4044044     -14.310704     -0.67782318     15754.916    
    105000   426.75496      0.0525         0.26223782     0.2637009      0.2631628     -2595.9422      746.69904      746.69904      746.69904      4.163291e+08   1.44381       -38353898      -38353898       1270.8034     -38352627      -2588.0861     -2602.5255     -2597.2149     -0.11449751    -13.732183     -0.26616049     15542.419    
    106000   425.44409      0.053          0.26090347     0.26265518     0.26190931    -2583.9887      747.05376      747.05376      747.05376      4.1692273e+08  1.4417543     -38332245      -38332245       1266.8998     -38330978      -2574.9171     -2592.2051     -2584.8439      1.1696412     -13.402515      0.17591353     15750.523    
    107000   424.13163      0.0535         0.2596713      0.26158478     0.26059155    -2572.0787      747.40849      747.40849      747.40849      4.1751692e+08  1.4397025     -38310669      -38310669       1262.9916     -38309406      -2562.7565     -2581.641      -2571.8387      2.3920239     -13.685851      0.80641578     15629.117    
    108000   422.7396       0.054          0.25854533     0.26039319     0.25931205    -2560.2453      747.76322      747.76322      747.76322      4.1811167e+08  1.4376545     -38289178      -38289178       1258.8463     -38287919      -2551.644      -2569.881      -2559.211       2.6241249     -14.212017      1.4949247      15765.124    
    109000   420.99078      0.0545         0.25722961     0.25915051     0.25803461    -2547.6264      748.11794      748.11794      748.11794      4.1870699e+08  1.4356105     -38267768      -38267768       1253.6387     -38266514      -2538.6589     -2557.6167     -2546.6036      2.7667772     -14.377107      1.5486376      15656.882    
    110000   419.35924      0.055          0.25558731     0.25791552     0.25669672    -2533.7595      748.47267      748.47267      748.47267      4.1930287e+08  1.4335703     -38246443      -38246443       1248.7802     -38245194      -2522.4506     -2545.4283     -2533.3997      3.0491904     -14.785144      0.81217325     15574.197    
    111000   418.17625      0.0555         0.25382544     0.2565839      0.25518656    -2518.6147      748.82739      748.82739      748.82739      4.1989932e+08  1.431534      -38225220      -38225220       1245.2575     -38223975      -2505.0623     -2532.2862     -2518.4955      2.5741653     -14.828134      0.47217393     15767.78     
    112000   416.9468       0.056          0.25232805     0.25523228     0.25358873    -2503.9858      749.18212      749.18212      749.18212      4.2049633e+08  1.4295015     -38204100      -38204100       1241.5964     -38202858      -2490.2843     -2518.9468     -2502.7262      2.1788868     -14.679768      0.68403286     15616.841    
    113000   415.28241      0.0565         0.25104089     0.25382054     0.2520603     -2490.0789      749.53685      749.53685      749.53685      4.2109391e+08  1.4274729     -38183074      -38183074       1236.6401     -38181837      -2477.5809     -2505.014      -2487.6417      2.0691101     -14.911883      1.550746       15734.544    
    114000   413.5342       0.057          0.24958455     0.25223059     0.25057821    -2475.1817      749.89157      749.89157      749.89157      4.2169206e+08  1.4254481     -38162149      -38162149       1231.4342     -38160918      -2463.208      -2489.3224     -2473.0146      1.3550666     -15.018533      2.3867161      15744.034    
    115000   411.99999      0.0575         0.24791003     0.25063941     0.24910944    -2459.6065      750.2463       750.2463       750.2463       4.2229077e+08  1.4234272     -38141335      -38141335       1226.8656     -38140108      -2446.6818     -2473.6186     -2458.519       0.50923753    -15.654974      2.6248034      15751.674    
    116000   410.65567      0.058          0.24628968     0.24918062     0.24758761    -2444.4704      750.60103      750.60103      750.60103      4.2289004e+08  1.42141       -38120629      -38120629       1222.8625     -38119406      -2430.6901     -2459.2215     -2443.4997      0.43372968    -16.815022      2.4886284      15707.573    
    117000   409.36029      0.0585         0.24472222     0.24780505     0.24598156    -2429.5052      750.95575      750.95575      750.95575      4.2348989e+08  1.4193967     -38100031      -38100031       1219.005      -38098812      -2415.2205     -2445.6457     -2427.6492      1.1406886     -17.54606       1.8247992      15752.749    
    118000   408.09004      0.059          0.24306674     0.24635837     0.24439479    -2414.0798      751.31048      751.31048      751.31048      4.240903e+08   1.4173872     -38079541      -38079541       1215.2224     -38078326      -2398.8822     -2431.3681     -2411.9891      1.9064039     -17.335462      0.82269227     15672.398    
    119000   406.68402      0.0595         0.24139372     0.24473939     0.24280711    -2398.0269      751.66521      751.66521      751.66521      4.2469128e+08  1.4153814     -38059166      -38059166       1211.0356     -38057955      -2382.3708     -2415.3899     -2396.3199      1.8007604     -16.758968     -0.081543029    15779.81     
    120000   405.07855      0.06           0.23982018     0.24315121     0.24108358    -2381.9556      752.01993      752.01993      752.01993      4.2529282e+08  1.4133795     -38038906      -38038906       1206.2548     -38037700      -2366.8411     -2399.7158     -2379.31        0.99148978    -16.438223     -0.02321311     15536.663    
    121000   403.34711      0.0605         0.23820552     0.24157495     0.23931324    -2365.6344      752.37466      752.37466      752.37466      4.2589494e+08  1.4113813     -38018762      -38018762       1201.0988     -38017561      -2350.9057     -2384.1594     -2361.8381      0.10834357    -16.83706       1.0971051      15757.9      
    122000   401.77841      0.061          0.2364385      0.23991299     0.23755893    -2348.5827      752.72938      752.72938      752.72938      4.2649762e+08  1.4093869     -37998739      -37998739       1196.4275     -37997542      -2333.4665     -2367.7571     -2344.5243     -0.71686534    -17.066598      1.5537897      15687.52     
    123000   400.30668      0.0615         0.23465447     0.23832083     0.23593815    -2332.1439      753.08411      753.08411      753.08411      4.2710087e+08  1.4073962     -37978836      -37978836       1192.0449     -37977644      -2315.8595     -2352.0438     -2328.5285     -1.1342036     -16.664566      0.74750428     15670.074    
    124000   398.58316      0.062          0.23284818     0.23681759     0.23434515    -2316.0158      753.43884      753.43884      753.43884      4.2770469e+08  1.4054093     -37959047      -37959047       1186.9126     -37957860      -2298.0329     -2337.2079     -2312.8068     -0.51613361    -16.283199      0.59153833     15800.522    
    125000   396.65244      0.0625         0.23099409     0.23516469     0.2326679     -2298.9611      753.79356      753.79356      753.79356      4.2830907e+08  1.4034261     -37939376      -37939376       1181.1632     -37938195      -2279.7345     -2320.8951     -2296.2536      0.30579479    -16.319393      1.973654       15681.683    
    126000   394.96018      0.063          0.22915829     0.23322539     0.23089424    -2280.707       754.14829      754.14829      754.14829      4.2891403e+08  1.4014467     -37919841      -37919841       1176.124      -37918665      -2261.6164     -2301.7556     -2278.7489      0.029010524   -16.534948      3.0375217      15621.126    
    127000   393.7683       0.0635         0.22748987     0.2313465      0.22919987    -2263.4632      754.50302      754.50302      754.50302      4.2951956e+08  1.399471      -37900445      -37900445       1172.5747     -37899272      -2245.1504     -2283.2124     -2262.0268     -0.49358753    -16.779539      2.6509535      15710.411    
    128000   392.64879      0.064          0.22599798     0.22984609     0.2276494     -2248.5187      754.85774      754.85774      754.85774      4.3012565e+08  1.3974989     -37881165      -37881165       1169.241      -37879996      -2230.4266     -2268.4045     -2246.7249     -0.26433328    -16.969648      1.0654156      15692.435    
    129000   391.12436      0.0645         0.22449525     0.22848415     0.22607714    -2233.9223      755.21247      755.21247      755.21247      4.3073232e+08  1.3955306     -37861987      -37861987       1164.7016     -37860823      -2215.5958     -2254.9633     -2231.2079     -0.12549333    -16.47744      -0.49541629     15635.667    
    130000   389.4926       0.065          0.22276889     0.22690417     0.22438049    -2217.4638      755.5672       755.5672       755.5672       4.3133955e+08  1.393566      -37842924      -37842924       1159.8424     -37841765      -2198.558      -2239.3701     -2214.4633     -0.75387335    -15.625351     -0.81695002     15686.4      
    131000   388.17725      0.0655         0.2208409      0.22501382     0.22269075    -2199.3436      755.92192      755.92192      755.92192      4.3194736e+08  1.3916051     -37823995      -37823995       1155.9256     -37822839      -2179.5302     -2220.7138     -2197.7868     -1.4039798     -15.23313      -0.53944975     15728.504    
    132000   386.84946      0.066          0.21900088     0.22304537     0.22099692    -2181.2424      756.27665      756.27665      756.27665      4.3255573e+08  1.3896479     -37805196      -37805196       1151.9716     -37804044      -2161.3706     -2201.2866     -2181.07       -1.539191      -15.321248     -0.31271412     15763.163    
    133000   385.11201      0.0665         0.21732413     0.2213361      0.21926965    -2164.421       756.63137      756.63137      756.63137      4.3316468e+08  1.3876943     -37786524      -37786524       1146.7978     -37785377      -2144.8224     -2184.4174     -2164.0232     -1.4819585     -15.680056     -0.29400924     15663.203    
    134000   383.08265      0.067          0.21572645     0.21980437     0.21756805    -2148.5282      756.9861       756.9861       756.9861       4.337742e+08   1.3857443     -37767978      -37767978       1140.7547     -37766838      -2129.0546     -2169.3005     -2147.2297     -1.8548475     -15.644662     -0.60255315     15519.136    
    135000   381.1385       0.0675         0.21423581     0.21835068     0.21589563    -2133.3403      757.34083      757.34083      757.34083      4.3438429e+08  1.3837981     -37749552      -37749552       1134.9654     -37748418      -2114.343      -2154.9536     -2130.7242     -2.6518863     -14.685538     -1.415984       15686.34     
    136000   379.77592      0.068          0.21279375     0.21692031     0.21435696    -2118.8289      757.69555      757.69555      757.69555      4.3499495e+08  1.3818555     -37731230      -37731230       1130.9078     -37730099      -2100.111      -2140.837      -2115.5387     -3.5441769     -13.075512     -2.0230552      15724.409    
    137000   378.83001      0.0685         0.21128257     0.21547381     0.21302627    -2104.7213      758.05028      758.05028      758.05028      4.3560619e+08  1.3799165     -37713008      -37713008       1128.0911     -37711880      -2085.1968     -2126.5612     -2102.4058     -3.5582599     -11.913314     -1.4232997      15585.093    
    138000   377.53707      0.069          0.20971864     0.21393556     0.21168766    -2090.1122      758.40501      758.40501      758.40501      4.3621799e+08  1.3779811     -37694889      -37694889       1124.2409     -37693765      -2069.762      -2111.3798     -2089.1948     -2.4646287     -11.585131     -0.73912656     15763.667    
    139000   375.83547      0.0695         0.20814566     0.21222707     0.2100256     -2073.8493      758.75973      758.75973      758.75973      4.3683037e+08  1.3760493     -37676884      -37676884       1119.1739     -37675765      -2054.2379     -2094.5183     -2072.7916     -1.1345015     -11.913674     -1.1423093      15710.883    
    140000   374.32218      0.07           0.2065759      0.21046475     0.20829097    -2057.1811      759.11446      759.11446      759.11446      4.3744332e+08  1.3741212     -37659008      -37659008       1114.6675     -37657893      -2038.7456     -2077.1256     -2055.672      -1.0629217     -11.527359     -1.7488863      15661.332    
    141000   372.79519      0.0705         0.20506758     0.20882158     0.20691796    -2042.2966      759.46919      759.46919      759.46919      4.3805685e+08  1.3721967     -37641249      -37641249       1110.1204     -37640139      -2023.8597     -2060.9088     -2042.1215     -2.3521488     -9.8582983     -1.0872876      15652.566    
    142000   370.98299      0.071          0.20369323     0.2073204      0.20577995    -2029.0931      759.82391      759.82391      759.82391      4.3867095e+08  1.3702757     -37623594      -37623594       1104.724      -37622489      -2010.2959     -2046.0933     -2030.8902     -3.8924452     -8.6596014     -0.204001       15741.14     
    143000   369.20852      0.0715         0.20229232     0.2058661      0.20446604    -2015.3778      760.17864      760.17864      760.17864      4.3928562e+08  1.3683584     -37606030      -37606030       1099.4399     -37604931      -1996.4699     -2031.7405     -2017.9229     -4.8003499     -9.1758109     -0.56272065     15636.509    
    144000   367.83446      0.072          0.20079979     0.20448811     0.20292084    -2000.8512      760.53336      760.53336      760.53336      4.3990086e+08  1.3664446     -37588564      -37588564       1095.3482     -37587469      -1981.7399     -2018.1407     -2002.673      -5.0513843     -10.160752     -1.8615296      15528.618    
    145000   366.99829      0.0725         0.19936406     0.20310612     0.20135238    -1986.4218      760.88809      760.88809      760.88809      4.4051668e+08  1.3645343     -37571209      -37571209       1092.8582     -37570117      -1967.5703     -2004.5016     -1987.1934     -4.5996275     -10.210035     -2.445298       15724.764    
    146000   366.32858      0.073          0.1981531      0.20164844     0.20003136    -1973.2968      761.24282      761.24282      761.24282      4.4113308e+08  1.3626277     -37553967      -37553967       1090.864      -37552876      -1955.6191     -1990.1154     -1974.156      -3.3481225     -9.5176832     -2.1237946      15780.599    
    147000   365.20483      0.0735         0.19698332     0.2001668      0.1988445     -1960.6699      761.59754      761.59754      761.59754      4.4175005e+08  1.3607246     -37536824      -37536824       1087.5176     -37535736      -1944.0742     -1975.4927     -1962.4427     -1.825955      -8.5518951     -1.7149742      15674.924    
    148000   363.43785      0.074          0.19563368     0.19866657     0.19751026    -1946.9052      761.95227      761.95227      761.95227      4.4236759e+08  1.358825      -37519772      -37519772       1082.2559     -37518690      -1930.7543     -1960.6866     -1949.2748     -1.8336163     -7.783094      -1.5923788      15745.696    
    149000   361.64799      0.0745         0.19408415     0.19722935     0.19601074    -1932.1465      762.307        762.307        762.307        4.4298571e+08  1.356929      -37502819      -37502819       1076.926      -37501742      -1915.4617     -1946.5023     -1934.4756     -3.6223437     -7.4205623     -1.5055835      15671.143    
    150000   360.30261      0.075          0.19264        0.19585218     0.19461266    -1918.2658      762.66172      762.66172      762.66172      4.4360441e+08  1.3550365     -37485971      -37485971       1072.9196     -37484898      -1901.209      -1932.9107     -1920.6777     -5.066168      -7.2840722     -1.3487356      15085.249    
    151000   359.13871      0.0755         0.19153583     0.19456235     0.19353731    -1906.8525      763.01645      763.01645      763.01645      4.4422368e+08  1.3531475     -37469217      -37469217       1069.4537     -37468147      -1890.3117     -1920.1811     -1910.0648     -4.8932444     -7.1445048     -1.1216784      15461.599    
    152000   357.82062      0.076          0.19068616     0.19339352     0.19258597    -1897.0825      763.37118      763.37118      763.37118      4.4484352e+08  1.351262      -37452537      -37452537       1065.5287     -37451472      -1881.9261     -1908.6457     -1900.6758     -3.8772963     -6.0969896     -0.89512418     15639.847    
    153000   356.5968       0.0765         0.18987561     0.19224873     0.19151816    -1887.1371      763.7259       763.7259       763.7259       4.4546395e+08  1.34938       -37435927      -37435927       1061.8844     -37434866      -1873.9266     -1897.3475     -1890.1373     -3.4421613     -4.5474392     -1.23757        15567.958    
    154000   355.39988      0.077          0.18890291     0.19097897     0.19036338    -1875.961       764.08063      764.08063      764.08063      4.4608495e+08  1.3475015     -37419394      -37419394       1058.3201     -37418336      -1864.3267     -1884.8159     -1878.7404     -3.4743504     -4.4891779     -2.2666286      15681.254    
    155000   354.05099      0.0775         0.1876322      0.18965616     0.18918958    -1863.5675      764.43536      764.43536      764.43536      4.4670652e+08  1.3456265     -37402941      -37402941       1054.3034     -37401887      -1851.7858     -1871.7607     -1867.156      -3.4291012     -5.9368568     -3.3150831      15531.376    
    156000   352.83947      0.078          0.18627463     0.18842033     0.18800025    -1851.1233      764.79008      764.79008      764.79008      4.4732868e+08  1.343755      -37386578      -37386578       1050.6957     -37385527      -1838.3877     -1859.5641     -1855.4182     -3.4164398     -6.6664521     -2.9190694      15422.848    
    157000   351.77276      0.0785         0.18525348     0.18736096     0.18690526    -1840.6767      765.14481      765.14481      765.14481      4.4795141e+08  1.3418869     -37370302      -37370302       1047.5192     -37369255      -1828.3097     -1849.1089     -1844.6114     -3.709119      -5.8071778     -1.5286537      15663.278    
    158000   350.72125      0.079          0.18439911     0.18640945     0.18597816    -1831.6859      765.49953      765.49953      765.49953      4.4857472e+08  1.3400223     -37354093      -37354093       1044.388      -37353049      -1819.8777     -1839.7182     -1835.4617     -4.5962617     -4.9006777     -0.64425214     15638.24     
    159000   349.99115      0.0795         0.1834665      0.18529893     0.18509504    -1822.0593      765.85426      765.85426      765.85426      4.491986e+08   1.3381612     -37337949      -37337949       1042.2139     -37336907      -1810.6736     -1828.7583     -1826.7461     -5.2854458     -4.279424      -0.23524571     15488.775    
    160000   349.58304      0.08           0.18245132     0.18411995     0.18414873    -1811.7279      766.20899      766.20899      766.20899      4.4982307e+08  1.3363035     -37321883      -37321883       1040.9986     -37320842      -1800.6545     -1817.1227     -1817.4066     -4.4612615     -4.2861682     -0.31541757     15670.21     
    161000   348.92771      0.0805         0.18149727     0.18315849     0.18321395    -1802.3512      766.56371      766.56371      766.56371      4.5044811e+08  1.3344492     -37305889      -37305889       1039.0471     -37304850      -1791.2388     -1807.6337     -1808.1811     -3.1943846     -4.7968227     -0.27401293     15436.118    
    162000   347.75477      0.081          0.18059596     0.18225601     0.18229025    -1793.3785      766.91844      766.91844      766.91844      4.5107374e+08  1.3325984     -37289957      -37289957       1035.5543     -37288921      -1782.3435     -1798.7269     -1799.0649     -2.975576      -4.5009263     -0.37366699     15610.61     
    163000   346.62132      0.0815         0.1797584      0.18125812     0.18133805    -1784.2079      767.27317      767.27317      767.27317      4.5169994e+08  1.330751      -37274082      -37274082       1032.1791     -37273050      -1774.0775     -1788.8786     -1789.6674     -3.8392085     -3.9485951     -1.0388369      15704.826    
    164000   345.56211      0.082          0.17907559     0.1803322      0.18046062    -1776.029       767.62789      767.62789      767.62789      4.5232672e+08  1.328907      -37258265      -37258265       1029.025      -37257236      -1767.3387     -1779.7405     -1781.0078     -4.5634916     -4.1374845     -1.36245        15506.575    
    165000   344.27284      0.0825         0.17837383     0.17952265     0.17964294    -1768.3672      767.98262      767.98262      767.98262      4.5295408e+08  1.3270664     -37242502      -37242502       1025.1857     -37241476      -1760.4128     -1771.7508     -1772.938      -4.6382556     -4.9125748     -1.1948297      15721.098    
    166000   342.95132      0.083          0.17742731     0.17865555     0.17869806    -1759.2925      768.33735      768.33735      768.33735      4.5358202e+08  1.3252292     -37226799      -37226799       1021.2505     -37225778      -1751.0714     -1763.1932     -1763.6128     -4.1876337     -5.2301356     -0.60224843     15662.293    
    167000   342.12557      0.0835         0.1763534      0.17764845     0.17766401    -1749.0447      768.69207      768.69207      768.69207      4.5421054e+08  1.3233954     -37211163      -37211163       1018.7915     -37210145      -1740.4728     -1753.2539     -1753.4074     -3.09161       -4.3138085     -0.17654439     15728.845    
    168000   341.77814      0.084          0.17541544     0.17670045     0.17676639    -1739.8874      769.0468       769.0468       769.0468       4.5483964e+08  1.321565      -37195594      -37195594       1017.7569     -37194576      -1731.2158     -1743.8978     -1744.5486     -2.7702713     -3.2703612     -0.10322532     15544.557    
    169000   341.24246      0.0845         0.17480473     0.17593456     0.17609187    -1733.1398      769.40152      769.40152      769.40152      4.5546932e+08  1.3197379     -37180079      -37180079       1016.1618     -37179063      -1725.1885     -1736.3391     -1737.8916     -3.4420963     -3.3144959     -0.18583564     15731.658    
    170000   340.44971      0.085          0.17431088     0.17521823     0.17553557    -1727.3285      769.75625      769.75625      769.75625      4.5609958e+08  1.3179143     -37164605      -37164605       1013.8011     -37163591      -1720.3146     -1729.2695     -1732.4014     -3.9503585     -4.0916893      0.33976976     15668.714    
    171000   340.10889      0.0855         0.17367769     0.17443743     0.17484983    -1720.4209      770.11098      770.11098      770.11098      4.5673042e+08  1.3160939     -37149175      -37149175       1012.7862     -37148162      -1714.0655     -1721.5636     -1725.6336     -3.423528      -5.0599309      1.0936127      15569.153    
    172000   340.00092      0.086          0.17298577     0.17365689     0.17410216    -1713.1172      770.4657       770.4657       770.4657       4.5736185e+08  1.314277      -37133796      -37133796       1012.4647     -37132783      -1707.2368     -1713.8602     -1718.2547     -2.554584      -5.5518173      0.59553621     15712.891    
    173000   339.36236      0.0865         0.17232155     0.17297439     0.17329069    -1706.0174      770.82043      770.82043      770.82043      4.5799385e+08  1.3124633     -37118466      -37118466       1010.5631     -37117456      -1700.6815     -1707.1245     -1710.2462     -1.9762199     -5.1173867     -0.69791825     15678.054    
    174000   338.2209       0.087          0.17163224     0.17232684     0.17242877    -1698.7839      771.17516      771.17516      771.17516      4.5862644e+08  1.310653      -37103181      -37103181       1007.1641     -37102174      -1693.8785     -1700.7336     -1701.7396     -2.2662409     -4.3468959     -1.0315199      15640.855    
    175000   337.05042      0.0875         0.17082708     0.17160174     0.17170913    -1691.3823      771.52988      771.52988      771.52988      4.5925961e+08  1.3088461     -37087939      -37087939       1003.6786     -37086935      -1685.9322     -1693.5775     -1694.6373     -3.2655018     -4.2405815      0.029429374    15470.791    
    176000   336.40465      0.088          0.17000588     0.17085666     0.17107803    -1684.1535      771.88461      771.88461      771.88461      4.5989337e+08  1.3070424     -37072743      -37072743       1001.7556     -37071741      -1677.8276     -1686.2241     -1688.4089     -3.8735274     -4.0266216      1.4037005      15664.392    
    177000   336.26833      0.0885         0.16939443     0.17023886     0.17055194    -1678.3789      772.23934      772.23934      772.23934      4.605277e+08   1.3052421     -37057593      -37057593       1001.3497     -37056591      -1671.7931     -1680.1269     -1683.2168     -3.5855934     -3.6519809      1.7631886      15775.039    
    178000   335.89221      0.089          0.16902765     0.16973126     0.17006636    -1673.905       772.59406      772.59406      772.59406      4.6116262e+08  1.3034451     -37042479      -37042479       1000.2296     -37041479      -1668.1732     -1675.1173     -1678.4244     -3.1987186     -3.6035014      1.1238047      15638.86     
    179000   335.14493      0.0895         0.16863498     0.16915317     0.16943563    -1668.6365      772.94879      772.94879      772.94879      4.6179812e+08  1.3016513     -37027400      -37027400       998.00437     -37026402      -1664.2978     -1669.412      -1672.1996     -2.7452919     -3.7822627      0.32369504     15656.318    
    180000   334.52113      0.09           0.1680636      0.16844766     0.16870732    -1662.0399      773.30351      773.30351      773.30351      4.6243421e+08  1.2998609     -37012356      -37012356       996.1468      -37011360      -1658.6588     -1662.4491     -1665.0118     -2.6465592     -4.2224107      0.16538521     15702.884    
    181000   334.30126      0.0905         0.16730768     0.16769423     0.16802068    -1654.8157      773.65824      773.65824      773.65824      4.6307088e+08  1.2980737     -36997353      -36997353       995.49208     -36996357      -1651.1984     -1655.0134     -1658.2352     -2.9820013     -4.8603139      0.5154308      15727.796    
    182000   334.2865       0.091          0.16646726     0.1671174      0.16748179    -1648.3805      774.01297      774.01297      774.01297      4.6370813e+08  1.2962899     -36982391      -36982391       995.44813     -36981395      -1642.9041     -1649.3205     -1652.9167     -3.4047087     -4.8492044      0.9662272      15754.715    
    183000   334.21523      0.0915         0.16584904     0.16666447     0.16706005    -1643.4692      774.36769      774.36769      774.36769      4.6434597e+08  1.2945092     -36967466      -36967466       995.23588     -36966471      -1636.8027     -1644.8504     -1648.7545     -3.4215016     -4.3271591      0.95069196     15664.998    
    184000   334.1298       0.092          0.1655614      0.16614251     0.1665808     -1639.2292      774.72242      774.72242      774.72242      4.6498439e+08  1.2927319     -36952581      -36952581       994.98148     -36951586      -1633.964      -1639.6991     -1644.0246     -2.6921225     -4.0946423      0.60892237     15502.171    
    185000   333.89217      0.0925         0.16531782     0.16558225     0.16597791    -1634.6015      775.07715      775.07715      775.07715      4.656234e+08   1.2909578     -36937729      -36937729       994.27387     -36936734      -1631.56       -1634.1697     -1638.0746     -1.7143889     -4.494787       0.24205725     15721.025    
    186000   333.34853      0.093          0.16478504     0.16504509     0.16522465    -1628.6036      775.43187      775.43187      775.43187      4.6626299e+08  1.2891869     -36922905      -36922905       992.65499     -36921912      -1626.3019     -1628.8684     -1630.6405     -1.6141859     -5.1730083      0.28234184     15662.595    
    187000   332.7617       0.0935         0.16397012     0.16450408     0.16458911    -1622.0522      775.7866       775.7866       775.7866       4.6690317e+08  1.2874193     -36908117      -36908117       990.90751     -36907126      -1618.2593     -1623.529      -1624.3683     -2.1268658     -5.2593458      0.4027903      15664.412    
    188000   332.08898      0.094          0.16318949     0.16392129     0.16419303    -1616.2639      776.14133      776.14133      776.14133      4.6754393e+08  1.2856549     -36893367      -36893367       988.90429     -36892378      -1610.555      -1617.7774     -1620.4592     -2.0156432     -4.6205357      0.53280457     15727.97     
    189000   331.39569      0.0945         0.16273825     0.16335113     0.16379634    -1611.5987      776.49605      776.49605      776.49605      4.6818528e+08  1.2838937     -36878650      -36878650       986.83977     -36877663      -1606.1017     -1612.1503     -1616.5442     -1.6180707     -4.0352457      1.2291927      15565.459    
    190000   330.82998      0.095          0.16245274     0.16280404     0.1633234     -1607.3038      776.85078      776.85078      776.85078      4.6882722e+08  1.2821358     -36863959      -36863959       985.15518     -36862974      -1603.2839     -1606.751      -1611.8766     -1.0229539     -3.500789       2.0749285      15647.886    
    191000   330.77536      0.0955         0.16199207     0.16230072     0.16274407    -1602.2267      777.2055       777.2055       777.2055       4.6946974e+08  1.280381      -36849294      -36849294       984.99255     -36848309      -1598.7374     -1601.7836     -1606.1591     -0.74776111    -2.9345122      2.4115322      15659.448    
    192000   331.28565      0.096          0.16144152     0.16181694     0.16213425    -1596.8178      777.56023      777.56023      777.56023      4.7011285e+08  1.2786295     -36834668      -36834668       986.51208     -36833682      -1593.3039     -1597.009      -1600.1406     -1.553069      -3.4661223      2.8966418      15732.266    
    193000   331.65423      0.0965         0.16104072     0.161318       0.16170458    -1592.4445      777.91496      777.91496      777.91496      4.7075654e+08  1.2768811     -36820075      -36820075       987.60967     -36819087      -1589.3484     -1592.0849     -1595.9001     -2.6117592     -4.7527758      2.8944176      15678.207    
    194000   331.33974      0.097          0.16064388     0.16084967     0.16136775    -1588.4902      778.26968      778.26968      778.26968      4.7140083e+08  1.275136      -36805505      -36805505       986.67316     -36804518      -1585.4318     -1587.4628     -1592.5759     -2.3367337     -5.3477588      2.2103127      15726.119    
    195000   330.82201      0.0975         0.16008025     0.16039594     0.16086503    -1583.4895      778.62441      778.62441      778.62441      4.720457e+08   1.273394      -36790964      -36790964       985.13145     -36789979      -1579.8693     -1582.9848     -1587.6144     -1.4167139     -5.2005654      1.2823287      15548.8      
    196000   330.70228      0.098          0.1594833      0.15989349     0.16021574    -1577.7368      778.97914      778.97914      778.97914      4.7269116e+08  1.2716551     -36776463      -36776463       984.77493     -36775478      -1573.9778     -1578.0261     -1581.2064     -1.2141661     -4.4717978      0.81146928     15749.532    
    197000   330.70056      0.0985         0.15900317     0.15941342     0.15974214    -1573.0199      779.33386      779.33386      779.33386      4.7333721e+08  1.2699195     -36761995      -36761995       984.76981     -36761011      -1569.2393     -1573.2881     -1576.5324     -1.4813692     -3.7644253      0.60351068     15652.047    
    198000   330.37955      0.099          0.15855872     0.15906038     0.15939239    -1569.2458      779.68859      779.68859      779.68859      4.7398384e+08  1.268187      -36747548      -36747548       983.81389     -36746564      -1564.8529     -1569.8039     -1573.0806     -1.1979405     -3.4218935      0.9964269      15703.099    
    199000   329.86313      0.0995         0.15808211     0.15870867     0.15897291    -1565.1409      780.04332      780.04332      780.04332      4.7463106e+08  1.2664577     -36733118      -36733118       982.27608     -36732136      -1560.1491     -1566.3328     -1568.9407     -0.51056162    -3.5837664      2.0183449      15541.997    
    200000   329.65435      0.1            0.15771081     0.15824644     0.15846551    -1560.7295      780.39804      780.39804      780.39804      4.7527888e+08  1.2647315     -36718712      -36718712       981.65437     -36717731      -1556.4847     -1561.7709     -1563.9329     -0.47264751    -4.4459888      3.1219328      15130.119    
    201000   329.43483      0.1005         0.15748565     0.15776737     0.15807479    -1557.1275      780.75277      780.75277      780.75277      4.7592728e+08  1.2630084     -36704333      -36704333       981.00068     -36703352      -1554.2625     -1557.0429     -1560.0769     -1.4171849     -5.4008654      3.3147027      15680.917    
    202000   329.13701      0.101          0.15717886     0.15729006     0.15773497    -1553.43        781.1075       781.1075       781.1075       4.7657627e+08  1.2612884     -36689978      -36689978       980.11381     -36688998      -1551.2348     -1552.3322     -1556.7231     -2.6887575     -4.6439383      2.2971876      15697.803    
    203000   329.18042      0.1015         0.15665941     0.15679278     0.15730069    -1548.6566      781.46222      781.46222      781.46222      4.7722585e+08  1.2595716     -36675650      -36675650       980.24307     -36674670      -1546.1082     -1547.4245     -1552.4371     -2.7157072     -3.1499966      1.3980989      15665.783    
    204000   329.4153       0.102          0.15607224     0.15631696     0.15684281    -1543.6533      781.81695      781.81695      781.81695      4.7787602e+08  1.2578579     -36661354      -36661354       980.94251     -36660373      -1540.3133     -1542.7284     -1547.9182     -1.6994545     -2.9051107      1.4527932      15565.956    
    205000   329.48771      0.1025         0.15551222     0.15578967     0.15640652    -1538.641       782.17167      782.17167      782.17167      4.7852679e+08  1.2561473     -36647087      -36647087       981.15813     -36646106      -1534.7862     -1537.5245     -1543.6123     -1.0171032     -4.076779       2.1573815      15728.741    
    206000   329.35419      0.103          0.15509122     0.15536192     0.15596739    -1534.4043      782.5264       782.5264       782.5264       4.7917814e+08  1.2544398     -36632850      -36632850       980.76055     -36631870      -1530.6314     -1533.303      -1539.2785     -1.2952228     -4.9549704      2.2081487      15528.816    
    207000   329.02689      0.1035         0.15481663     0.15509783     0.15550088    -1531.0974      782.88113      782.88113      782.88113      4.7983008e+08  1.2527354     -36618638      -36618638       979.7859      -36617659      -1527.9213     -1530.6966     -1534.6744     -1.0040885     -4.4187321      1.6164435      15681.519    
    208000   328.59835      0.104          0.15459661     0.15488578     0.15512868    -1528.4516      783.23585      783.23585      783.23585      4.8048262e+08  1.2510341     -36604439      -36604439       978.50979     -36603460      -1525.7499     -1528.6038     -1531.0011     -0.13492897    -3.4809799      1.3568847      15638.1      
    209000   328.58839      0.1045         0.154262       0.1545051      0.15479856    -1525.0124      783.59058      783.59058      783.59058      4.8113574e+08  1.2493359     -36590251      -36590251       978.4801      -36589272      -1522.4475     -1524.8468     -1527.743       0.19108003    -2.9322815      1.6618603      15647.068    
    210000   328.8943       0.105          0.15376967     0.1540188      0.15443359    -1520.5923      783.94531      783.94531      783.94531      4.8178946e+08  1.2476407     -36576089      -36576089       979.39106     -36575109      -1517.5886     -1520.0474     -1524.141      -0.24335057    -2.895127       1.9930994      15541.471    
    211000   328.79597      0.1055         0.15326161     0.15357272     0.15396456    -1515.9105      784.30003      784.30003      784.30003      4.8244377e+08  1.2459486     -36561954      -36561954       979.09825     -36560975      -1512.5745     -1515.6449     -1519.5121     -1.13126       -3.3785613      2.3552439      15732.424    
    212000   328.30464      0.106          0.1528781      0.15320665     0.15345424    -1511.7658      784.65476      784.65476      784.65476      4.8309867e+08  1.2442596     -36547845      -36547845       977.63514     -36546868      -1508.7896     -1512.0321     -1514.4756     -2.0269775     -4.1435869      2.6140667      15657.951    
    213000   327.82702      0.1065         0.15251063     0.15281986     0.15300186    -1507.7962      785.00949      785.00949      785.00949      4.8375416e+08  1.2425736     -36533765      -36533765       976.21289     -36532789      -1505.1629     -1508.2147     -1510.011      -2.0427524     -4.4769326      2.3079595      15681.852    
    214000   327.43656      0.107          0.15204654     0.15231782     0.15262565    -1503.3802      785.36421      785.36421      785.36421      4.8441025e+08  1.2408906     -36519710      -36519710       975.05016     -36518735      -1500.5827     -1503.26       -1506.298      -1.5325184     -4.1548677      2.0751736      15720.194    
    215000   327.40196      0.1075         0.15149317     0.15173712     0.15223394    -1498.3608      785.71894      785.71894      785.71894      4.8506693e+08  1.2392107     -36505685      -36505685       974.94712     -36504710      -1495.1213     -1497.5289     -1502.4321     -0.71496821    -3.6030767      2.2248633      15688.353    
    216000   327.7735       0.108          0.15096924     0.15126018     0.15177318    -1493.5524      786.07366      786.07366      786.07366      4.857242e+08   1.2375339     -36491691      -36491691       976.0535      -36490715      -1489.9505     -1492.8219     -1497.8848      0.17533386    -3.6011568      2.2683182      15632.821    
    217000   328.1981       0.1085         0.15071491     0.15095313     0.15133781    -1490.2734      786.42839      786.42839      786.42839      4.8638206e+08  1.23586       -36477722      -36477722       977.3179      -36476745      -1487.4405     -1489.7916     -1493.588       0.16057759    -3.6850713      1.9193542      15603.381    
[...]
   3137000   324.54251      1.5685         0.012183056    0.012145642    0.012115278   -119.89136      1822.2294      1822.2294      1822.2294      6.0507494e+09  0.09934309    -11202476      -11202476       966.43218     -11201509      -120.23742     -119.86817     -119.56849      0.059194611    0.30080562     0.79968201     14224.695    
   3138000   324.57007      1.569          0.012175853    0.01213916     0.012104374   -119.81047      1822.5842      1822.5842      1822.5842      6.0542837e+09  0.099285096   -11196456      -11196456       966.51426     -11195490      -120.16633     -119.80419     -119.46088      0.055821791    0.30136323     0.8056017      14017.087    
   3139000   324.60449      1.5695         0.012167601    0.012129626    0.012094005   -119.71784      1822.9389      1822.9389      1822.9389      6.0578194e+09  0.099227148   -11190439      -11190439       966.61674     -11189472      -120.08488     -119.7101      -119.35855      0.054873523    0.29815445     0.80705781     14040.699    
   3140000   324.64189      1.57           0.012157965    0.012118149    0.012086366   -119.62326      1823.2936      1823.2936      1823.2936      6.0613565e+09  0.099169244   -11184424      -11184424       966.72812     -11183457      -119.98978     -119.59684     -119.28316      0.058353877    0.29760444     0.79773264     13916.877    
   3141000   324.6852       1.5705         0.012147018    0.012106546    0.012081232   -119.53219      1823.6483      1823.6483      1823.6483      6.064895e+09   0.099111386   -11178411      -11178411       966.85709     -11177444      -119.88175     -119.48232     -119.23248      0.067082669    0.29995854     0.79119375     14061.553    
   3142000   324.7329       1.571          0.012135971    0.012097013    0.012075629   -119.44605      1824.0031      1824.0031      1824.0031      6.0684348e+09  0.099053573   -11172401      -11172401       966.99912     -11171434      -119.77272     -119.38824     -119.1772       0.078442909    0.3047659      0.7968433      14092.103    
   3143000   324.75453      1.5715         0.012127686    0.012088259    0.012068461   -119.36641      1824.3578      1824.3578      1824.3578      6.071976e+09   0.098995804   -11166393      -11166393       967.06353     -11165426      -119.69095     -119.30184     -119.10644      0.081934179    0.29948339     0.80724975     14094.173    
   3144000   324.73894      1.572          0.012118848    0.012079041    0.012059624   -119.27794      1824.7125      1824.7125      1824.7125      6.0755185e+09  0.098938081   -11160387      -11160387       967.01711     -11159420      -119.60373     -119.21086     -119.01924      0.074802678    0.29727229     0.82123688     14018.435    
   3145000   324.68352      1.5725         0.012108404    0.012070558    0.012049817   -119.18342      1825.0672      1825.0672      1825.0672      6.0790625e+09  0.098880402   -11154383      -11154383       966.85207     -11153416      -119.50065     -119.12715     -118.92245      0.071151207    0.30673458     0.83180157     14077.453    
   3146000   324.60385      1.573          0.012098099    0.01206391     0.012039187   -119.09267      1825.422       1825.422       1825.422       6.0826078e+09  0.098822768   -11148381      -11148381       966.61483     -11147414      -119.39895     -119.06153     -118.81754      0.076750202    0.3311511      0.83214796     13967.674    
   3147000   324.53918      1.5735         0.012089822    0.012058569    0.012027842   -119.01055      1825.7767      1825.7767      1825.7767      6.0861545e+09  0.098765179   -11142381      -11142381       966.42227     -11141415      -119.31726     -119.00882     -118.70557      0.083721425    0.35745156     0.82627777     14066.057    
   3148000   324.53053      1.574          0.012082549    0.012053714    0.012016814   -118.93437      1826.1314      1826.1314      1826.1314      6.0897026e+09  0.098707635   -11136383      -11136383       966.3965      -11135417      -119.24548     -118.9609      -118.59673      0.090488923    0.36343071     0.81580206     13863.784    
   3149000   324.58788      1.5745         0.012074741    0.012048391    0.012008003   -118.86219      1826.4861      1826.4861      1826.4861      6.0932521e+09  0.098650135   -11130387      -11130387       966.56728     -11129420      -119.16842     -118.90837     -118.50978      0.093744093    0.35151671     0.80049542     14341.446    
   3150000   324.68277      1.575          0.012068498    0.01204104     0.012001724   -118.79681      1826.8409      1826.8409      1826.8409      6.0968029e+09  0.09859268    -11124391      -11124391       966.84986     -11123424      -119.10681     -118.83582     -118.4478       0.0909803      0.33089242     0.78715394     13602.172    
   3151000   324.77413      1.5755         0.012063628    0.012031194    0.01199491    -118.72599      1827.1956      1827.1956      1827.1956      6.1003552e+09  0.09853527    -11118397      -11118397       967.1219      -11117430      -119.05875     -118.73865     -118.38056      0.083473088    0.31431396     0.77328806     14300.692    
   3152000   324.84595      1.576          0.012057526    0.012020847    0.011987603   -118.64784      1827.5503      1827.5503      1827.5503      6.1039088e+09  0.098477904   -11112405      -11112405       967.33578     -11111438      -118.99853     -118.63653     -118.30844      0.071761557    0.30741249     0.76199778     14268.518    
   3153000   324.88788      1.5765         0.012049711    0.012010504    0.011980324   -118.56416      1827.9051      1827.9051      1827.9051      6.1074638e+09  0.098420583   -11106415      -11106415       967.46063     -11105448      -118.9214      -118.53446     -118.23661      0.058129802    0.31182772     0.76294527     14237.007    
   3154000   324.88704      1.577          0.012042031    0.012000304    0.011971924   -118.4777       1828.2598      1828.2598      1828.2598      6.1110201e+09  0.098363306   -11100427      -11100427       967.45811     -11099459      -118.84561     -118.43379     -118.15371      0.038692255    0.31334281     0.76630076     14208.4      
   3155000   324.84377      1.5775         0.012034537    0.011992663    0.011963764   -118.40107      1828.6145      1828.6145      1828.6145      6.1145779e+09  0.098306074   -11094440      -11094440       967.32927     -11093473      -118.77165     -118.35838     -118.07317      0.019505568    0.30078221     0.75622887     14274.366    
   3156000   324.77166      1.578          0.01202641     0.011987393    0.011956453   -118.33294      1828.9692      1828.9692      1828.9692      6.118137e+09   0.098248886   -11088455      -11088455       967.11454     -11087488      -118.69144     -118.30637     -118.00102      0.013948753    0.28500042     0.74341921     14288.397    
   3157000   324.69749      1.5785         0.012018016    0.011981752    0.011949809   -118.26491      1829.324       1829.324       1829.324       6.1216975e+09  0.098191742   -11082471      -11082471       966.89368     -11081504      -118.6086      -118.2507      -117.93544      0.026983543    0.28062189     0.74836032     14094.111    
   3158000   324.6385       1.579          0.012007887    0.011973486    0.011942608   -118.18071      1829.6787      1829.6787      1829.6787      6.1252594e+09  0.098134643   -11076488      -11076488       966.71802     -11075521      -118.50863     -118.16912     -117.86438      0.051069006    0.28519955     0.76897571     14037.62     
   3159000   324.59774      1.5795         0.011994393    0.01196261     0.011933385   -118.0702       1830.0334      1830.0334      1830.0334      6.1288227e+09  0.098077588   -11070507      -11070507       966.59664     -11069540      -118.37545     -118.06178     -117.77336      0.068418584    0.2805833      0.77933715     14053.672    
   3160000   324.57563      1.58           0.01198054     0.011951921    0.011922009   -117.95203      1830.3881      1830.3881      1830.3881      6.1323873e+09  0.098020577   -11064531      -11064531       966.53079     -11063564      -118.23873     -117.95629     -117.66108      0.075900833    0.26536495     0.76432613     14031.104    
   3161000   324.56948      1.5805         0.011970745    0.011942976    0.011910188   -117.8515       1830.7429      1830.7429      1830.7429      6.1359533e+09  0.097963611   -11058557      -11058557       966.51249     -11057591      -118.14207     -117.86801     -117.54442      0.075481343    0.26261854     0.74933225     14100.198    
   3162000   324.57844      1.581          0.011964726    0.011935089    0.011899812   -117.77162      1831.0976      1831.0976      1831.0976      6.1395208e+09  0.097906688   -11052586      -11052586       966.53916     -11051620      -118.08267     -117.79017     -117.44201      0.066043848    0.27889258     0.75854048     13947.885    
   3163000   324.58948      1.5815         0.011959433    0.011927062    0.011890715   -117.69787      1831.4523      1831.4523      1831.4523      6.1430896e+09  0.09784981    -11046617      -11046617       966.57205     -11045650      -118.03043     -117.71095     -117.35224      0.051154011    0.29972017     0.78251304     14090.933    
   3164000   324.58602      1.582          0.011953566    0.011917451    0.011882353   -117.61945      1831.807       1831.807       1831.807       6.1466597e+09  0.097792975   -11040649      -11040649       966.56174     -11039682      -117.97253     -117.6161      -117.26971      0.039007963    0.3105655      0.79970724     14075.976    
   3165000   324.57153      1.5825         0.011945454    0.011906134    0.011874769   -117.53058      1832.1618      1832.1618      1832.1618      6.1502313e+09  0.097736185   -11034683      -11034683       966.51859     -11033716      -117.89247     -117.50441     -117.19485      0.042645215    0.31452545     0.80557603     14030.129    
   3166000   324.56718      1.583          0.011935222    0.011895186    0.011868268   -117.43951      1832.5165      1832.5165      1832.5165      6.1538042e+09  0.097679439   -11028719      -11028719       966.50564     -11027753      -117.79148     -117.39636     -117.1307       0.058922342    0.32672536     0.80137104     14127.702    
   3167000   324.58568      1.5835         0.011927118    0.011885825    0.01186303    -117.36483      1832.8712      1832.8712      1832.8712      6.1573786e+09  0.097622736   -11022758      -11022758       966.56074     -11021791      -117.71151     -117.30397     -117.079        0.069012902    0.34118046     0.78931488     13998.983    
   3168000   324.6264       1.584          0.011920429    0.011877903    0.011858268   -117.30109      1833.2259      1833.2259      1833.2259      6.1609543e+09  0.097566078   -11016798      -11016798       966.68197     -11015831      -117.64548     -117.22579     -117.03201      0.070285489    0.34904019     0.77062297     14237.622    
   3169000   324.67559      1.5845         0.011910976    0.011871329    0.011852086   -117.22803      1833.5807      1833.5807      1833.5807      6.1645314e+09  0.097509463   -11010839      -11010839       966.82846     -11009872      -117.5522      -117.16091     -116.97099      0.058468087    0.34371866     0.74486137     13977.241    
   3170000   324.70448      1.585          0.011900071    0.011865495    0.011843789   -117.14567      1833.9354      1833.9354      1833.9354      6.1681099e+09  0.097452892   -11004881      -11004881       966.91449     -11003914      -117.44457     -117.10333     -116.88911      0.042256178    0.3311963      0.71810416     14029.761    
   3171000   324.68631      1.5855         0.01189002     0.011859399    0.011832556   -117.0556       1834.2901      1834.2901      1834.2901      6.1716897e+09  0.097396365   -10998926      -10998926       966.86039     -10997959      -117.34537     -117.04317     -116.77825      0.035274426    0.32384274     0.70127061     14166.661    
   3172000   324.63581      1.586          0.011881061    0.011852504    0.011821009   -116.96545      1834.6449      1834.6449      1834.6449      6.175271e+09   0.097339881   -10992973      -10992973       966.71001     -10992006      -117.25695     -116.97512     -116.66429      0.03728773     0.32488583     0.70733198     14053.4      
   3173000   324.59875      1.5865         0.011873195    0.011843654    0.011810564   -116.8761       1834.9996      1834.9996      1834.9996      6.1788536e+09  0.097283441   -10987022      -10987022       966.59966     -10986056      -117.17932     -116.88778     -116.56121      0.039885666    0.32067443     0.73282347     14124.481    
   3174000   324.60696      1.587          0.011866406    0.011831388    0.011801677   -116.78418      1835.3543      1835.3543      1835.3543      6.1824376e+09  0.097227045   -10981074      -10981074       966.6241      -10980108      -117.11232     -116.76672     -116.47349      0.044676792    0.30561835     0.75323288     14105.751    
   3175000   324.63465      1.5875         0.01186069     0.011819378    0.01179548    -116.70548      1835.709       1835.709       1835.709       6.186023e+09   0.097170693   -10975128      -10975128       966.70656     -10974162      -117.05591     -116.64819     -116.41234      0.043409815    0.28621165     0.75785894     14066.675    
   3176000   324.63849      1.588          0.011853856    0.0118098      0.011789015   -116.63022      1836.0638      1836.0638      1836.0638      6.1896098e+09  0.097114384   -10969184      -10969184       966.71798     -10968217      -116.98846     -116.55367     -116.34853      0.035366444    0.27259071     0.75755791     13958.935    
   3177000   324.6126       1.5885         0.01184567     0.011802209    0.01178004    -116.54879      1836.4185      1836.4185      1836.4185      6.193198e+09   0.097058118   -10963241      -10963241       966.6409      -10962274      -116.90768     -116.47875     -116.25996      0.035153742    0.2726882      0.76333056     14161.577    
   3178000   324.57964      1.589          0.011838639    0.011796316    0.011770588   -116.47518      1836.7732      1836.7732      1836.7732      6.1967876e+09  0.097001896   -10957300      -10957300       966.54274     -10956333      -116.83828     -116.42059     -116.16667      0.057234547    0.28652204     0.77321999     14182.067    
   3179000   324.56532      1.5895         0.011831781    0.011790588    0.01176301    -116.40885      1837.1279      1837.1279      1837.1279      6.2003785e+09  0.096945717   -10951360      -10951360       966.5001      -10950393      -116.7706      -116.36405     -116.09188      0.091954798    0.31433869     0.77827993     14185.626    
   3180000   324.57251      1.59           0.01182318     0.01178398     0.011756081   -116.33602      1837.4827      1837.4827      1837.4827      6.2039709e+09  0.096889582   -10945421      -10945421       966.52152     -10944455      -116.68572     -116.29884     -116.0235       0.11066344     0.34789747     0.77890381     14125.741    
   3181000   324.5819       1.5905         0.011811709    0.011777169    0.011748754   -116.25177      1837.8374      1837.8374      1837.8374      6.2075646e+09  0.09683349    -10939484      -10939484       966.54948     -10938518      -116.5725      -116.23162     -115.95119      0.10667387     0.36365634     0.77912678     14032.581    
   3182000   324.57428      1.591          0.011798073    0.011770416    0.011742075   -116.16272      1838.1921      1838.1921      1838.1921      6.2111597e+09  0.096777441   -10933549      -10933549       966.52678     -10932583      -116.43792     -116.16497     -115.88527      0.097757156    0.35135257     0.77847412     14122.653    
   3183000   324.54265      1.5915         0.011784936    0.011762433    0.01173556    -116.07181      1838.5468      1838.5468      1838.5468      6.2147562e+09  0.096721436   -10927617      -10927617       966.43259     -10926651      -116.30828     -116.08618     -115.82097      0.092247409    0.32427411     0.77271506     14114.227    
   3184000   324.49215      1.592          0.011775493    0.011753806    0.011728254   -115.98833      1838.9016      1838.9016      1838.9016      6.2183541e+09  0.096665473   -10921687      -10921687       966.28221     -10920721      -116.21508     -116.00105     -115.74886      0.079682544    0.303884       0.76158084     14046.487    
   3185000   324.45259      1.5925         0.011769403    0.011745174    0.011718004   -115.90618      1839.2563      1839.2563      1839.2563      6.2219534e+09  0.096609554   -10915758      -10915758       966.1644      -10914792      -116.15498     -115.91586     -115.64771      0.060570169    0.29662431     0.75307844     13956.94     
   3186000   324.45722      1.593          0.011766431    0.011737279    0.011705004   -115.82767      1839.611       1839.611       1839.611       6.2255541e+09  0.096553678   -10909832      -10909832       966.1782      -10908866      -116.12565     -115.83794     -115.51941      0.050567264    0.29888332     0.74965011     14096.019    
   3187000   324.50221      1.5935         0.011763661    0.011728299    0.01169125    -115.74376      1839.9657      1839.9657      1839.9657      6.2291561e+09  0.096497846   -10903907      -10903907       966.31218     -10902941      -116.09831     -115.74931     -115.38367      0.049573118    0.3007559      0.74714362     14074.95     
   3188000   324.55746      1.594          0.011758616    0.011717026    0.011680988   -115.65632      1840.3205      1840.3205      1840.3205      6.2327596e+09  0.096442056   -10897985      -10897985       966.4767      -10897019      -116.04851     -115.63806     -115.28239      0.055055456    0.29957177     0.74011986     14004.946    
   3189000   324.58572      1.5945         0.011751777    0.011706439    0.011675724   -115.58168      1840.6752      1840.6752      1840.6752      6.2363644e+09  0.096386309   -10892065      -10892065       966.56084     -10891099      -115.98102     -115.53357     -115.23044      0.061529087    0.28885253     0.74016103     13998.051    
   3190000   324.56748      1.595          0.011742755    0.01169844     0.01167196    -115.5133       1841.0299      1841.0299      1841.0299      6.2399706e+09  0.096330605   -10886146      -10886146       966.50653     -10885180      -115.89198     -115.45463     -115.19329      0.058018884    0.26710056     0.75579391     13960.819    
   3191000   324.52998      1.5955         0.01173148     0.011691945    0.011665181   -115.43254      1841.3847      1841.3847      1841.3847      6.2435782e+09  0.096274944   -10880229      -10880229       966.39487     -10879262      -115.78071     -115.39053     -115.12638      0.046843549    0.24576        0.77510223     13937.339    
   3192000   324.521        1.596          0.011720725    0.01168437     0.011656139   -115.34249      1841.7394      1841.7394      1841.7394      6.2471872e+09  0.096219326   -10874313      -10874313       966.36811     -10873347      -115.67457     -115.31576     -115.03715      0.042695834    0.23792797     0.78331602     14054.326    
   3193000   324.56098      1.5965         0.011712513    0.011675888    0.011647185   -115.25812      1842.0941      1842.0941      1842.0941      6.2507976e+09  0.096163751   -10868400      -10868400       966.48718     -10867434      -115.59351     -115.23206     -114.94877      0.048256937    0.2470645      0.77595832     13930.478    
   3194000   324.63289      1.597          0.011705546    0.011668445    0.011639202   -115.18445      1842.4488      1842.4488      1842.4488      6.2544094e+09  0