LAMMPS (23 Jun 2022 - Update 1)
OMP_NUM_THREADS environment is not set. Defaulting to 1 thread. (src/comm.cpp:98)
  using 1 OpenMP thread(s) per MPI task
###

# Read restart info
read_restart ${read_res}
read_restart ./trial10/1090/equpmf70.res
Reading restart file ...
  restart file = 23 Jun 2022, LAMMPS = 23 Jun 2022
  restoring atom style atomic from restart
  orthogonal box = (1623.9773 1623.9773 1623.9773) to (2376.0227 2376.0227 2376.0227)
  1 by 2 by 2 MPI processor grid
  restoring pair style table from restart
  1000 atoms
  read_restart CPU = 0.028 seconds

# Settings
pair_style table/pgn spline 10941
pair_coeff 1 1 N20e.txt DE_GNP 308 72.9   # 1.35 * r
pair_coeff 2 2 N100e.txt DE_GNP 473.9 111.78
WARNING: 20 of 10941 force values in table DE_GNP are inconsistent with -dE/dr.
WARNING:  Should only be flagged at inflection points (src/pair_table_pgn.cpp:478)
pair_coeff 1 2 mixed_potentiale.txt DE_GNP 391.2 92.95
WARNING: 1564 of 10941 force values in table DE_GNP are inconsistent with -dE/dr.
WARNING:  Should only be flagged at inflection points (src/pair_table_pgn.cpp:478)

# Neighbor list
neighbor 2.0 bin
neigh_modify delay 0 every 1 check no once yes

# Temperature
variable T equal ${Temp}
variable T equal 300

# Deformation
reset_timestep 0
variable tmp equal "lx"
variable L0 equal ${tmp}
variable L0 equal 752.045322531573
variable strain equal "(lx - v_L0)/v_L0"
variable stp equal "step"
variable tmpe equal "temp"
variable p1 equal "v_strain"
variable p2 equal "-pxx*1.01325/10000"
variable p3 equal "-pyy*1.01325/10000"
variable p4 equal "-pzz*1.01325/10000"
variable p5 equal "lx"
variable p6 equal "ly"
variable p7 equal "lz"
variable p8 equal "press"
variable p9 equal "epair"
variable p10 equal "etotal"

# Thermo
thermo_style custom step temp v_p1 v_p2 v_p3 v_p4 press lx ly lz vol density epair pe ke etotal pxx pyy pzz pxy pxz pyz spcpu
thermo ${ts_save}
thermo 1000

# Dump
# dump 1 all custom 2000 ./${N20}${N100}/tensile/trajectory/trajectory_${usic}_${trial}_*.tensile.custom id type x y z ix iy iz
# dump_modify 1 sort id
dump 2 all cfg 50000 ./trial${trial}/${N20}${N100}/tensile/trajectory/dumpten.tens_${usic}_${trial}_*.cfg mass type xs ys zs fx fy fz
dump 2 all cfg 50000 ./trial10/${N20}${N100}/tensile/trajectory/dumpten.tens_${usic}_${trial}_*.cfg mass type xs ys zs fx fy fz
dump 2 all cfg 50000 ./trial10/10${N100}/tensile/trajectory/dumpten.tens_${usic}_${trial}_*.cfg mass type xs ys zs fx fy fz
dump 2 all cfg 50000 ./trial10/1090/tensile/trajectory/dumpten.tens_${usic}_${trial}_*.cfg mass type xs ys zs fx fy fz
dump 2 all cfg 50000 ./trial10/1090/tensile/trajectory/dumpten.tens_1_${trial}_*.cfg mass type xs ys zs fx fy fz
dump 2 all cfg 50000 ./trial10/1090/tensile/trajectory/dumpten.tens_1_10_*.cfg mass type xs ys zs fx fy fz
dump_modify 2 element N20 N100

fix 1 all nvt temp ${T} ${T} 100
fix 1 all nvt temp 300 ${T} 100
fix 1 all nvt temp 300 300 100
fix 2 all deform 1 x erate ${strain_rate} y erate ${strain_rate} z erate ${strain_rate} units box
fix 2 all deform 1 x erate 5e-6 y erate ${strain_rate} z erate ${strain_rate} units box
fix 2 all deform 1 x erate 5e-6 y erate 5e-6 z erate ${strain_rate} units box
fix 2 all deform 1 x erate 5e-6 y erate 5e-6 z erate 5e-6 units box
fix             def1 all print ${ts_save} "${p1} ${p2} ${p3} ${p4}" file ./tensile/${trial}/tensile${N20}${N100}_${usic}_${trial}.txt screen no
fix             def1 all print 1000 "${p1} ${p2} ${p3} ${p4}" file ./tensile/${trial}/tensile${N20}${N100}_${usic}_${trial}.txt screen no
fix             def1 all print 1000 "${p1} ${p2} ${p3} ${p4}" file ./tensile/10/tensile${N20}${N100}_${usic}_${trial}.txt screen no
fix             def1 all print 1000 "${p1} ${p2} ${p3} ${p4}" file ./tensile/10/tensile10${N100}_${usic}_${trial}.txt screen no
fix             def1 all print 1000 "${p1} ${p2} ${p3} ${p4}" file ./tensile/10/tensile1090_${usic}_${trial}.txt screen no
fix             def1 all print 1000 "${p1} ${p2} ${p3} ${p4}" file ./tensile/10/tensile1090_1_${trial}.txt screen no
fix             def1 all print 1000 "${p1} ${p2} ${p3} ${p4}" file ./tensile/10/tensile1090_1_10.txt screen no

timestep       		${ts}
timestep       		0.1
run				${steps_tensile}
run				6000000
Generated 0 of 1 mixed pair_coeff terms from geometric mixing rule
Unused restart file global fix info:
  fix style: npt, fix ID: 5
Neighbor list info ...
  update every 1 steps, delay 0 steps, check no
  max neighbors/atom: 2000, page size: 100000
  master list distance cutoff = 113.78
  ghost atom cutoff = 113.78
  binsize = 56.89, bins = 14 14 14
  1 neighbor lists, perpetual/occasional/extra = 1 0 0
  (1) pair table/pgn, perpetual
      attributes: half, newton on
      pair build: half/bin/atomonly/newton
      stencil: half/bin/3d
      bin: standard
Per MPI rank memory allocation (min/avg/max) = 3.84 | 3.84 | 3.84 Mbytes
   Step          Temp           v_p1           v_p2           v_p3           v_p4          Press            Lx             Ly             Lz           Volume        Density         E_pair         PotEng         KinEng         TotEng          Pxx            Pyy            Pzz            Pxy            Pxz            Pyz           S/CPU     
         0   305.61946     -6.0468078e-16  0.0069848494  -0.0032707073  -0.0048540289   3.749936       752.04532      752.04532      752.04532      4.253359e+08   1.5695551     -52375517      -52375517       910.08255     -52374607      -68.935104      32.279371      47.905541      75.436803      16.498278      38.961331      0            
      1000   349.39735      0.0005         0.014870804    0.004869153    0.0031649994  -75.351447      752.42135      752.42135      752.42135      4.2597423e+08  1.5672031     -52375388      -52375388       1040.4456     -52374348      -146.76342     -48.054804     -31.236115      74.476174      16.281132      37.178903      13645.463    
      2000   395.73312      0.001          0.022431119    0.012637288    0.010828049   -150.9876       752.79737      752.79737      752.79737      4.2661319e+08  1.5648558     -52374640      -52374640       1178.4257     -52373461      -221.37793     -124.72033     -106.86454      73.321127      15.934723      36.308635      13757.148    
      3000   426.71468      0.0015         0.029781371    0.020128747    0.018385583   -224.67539      753.17339      753.17339      753.17339      4.2725279e+08  1.5625132     -52373265      -52373265       1270.6834     -52371994      -293.91928     -198.65529     -181.4516       71.924801      15.776671      35.929372      13784.428    
      4000   442.54339      0.002          0.037117515    0.02753678     0.025993178   -298.207        753.54941      753.54941      753.54941      4.2789303e+08  1.5601753     -52371239      -52371239       1317.8187     -52369922      -366.32139     -271.76689     -256.53272      70.648021      16.191052      35.793658      14174.916    
      5000   446.50046      0.0025         0.044413474    0.034950428    0.033483915   -371.24045      753.92544      753.92544      753.92544      4.285339e+08   1.557842      -52368546      -52368546       1329.6021     -52367217      -438.32691     -344.9339      -330.46054      69.458321      16.32614       35.482849      14303.051    
      6000   442.93475      0.003          0.051524049    0.042281481    0.040771212   -442.72306      754.30146      754.30146      754.30146      4.2917542e+08  1.5555134     -52365188      -52365188       1318.9841     -52363869      -508.50283     -417.28577     -402.38058      68.327429      15.522581      34.751027      14328.491    
      7000   435.52663      0.0035         0.058406542    0.049422201    0.047955904   -512.49164      754.67748      754.67748      754.67748      4.2981758e+08  1.5531894     -52361179      -52361179       1296.9239     -52359882      -576.42775     -487.7592      -473.28797      67.27536       14.544404      33.872001      14338.034    
      8000   426.71675      0.004          0.065142327    0.056395957    0.055030069   -580.86472      755.0535       755.0535       755.0535       4.3046038e+08  1.5508701     -52356518      -52356518       1270.6896     -52355247      -642.90478     -556.58482     -543.10455      66.592538      14.21256       33.411564      16180.552    
      9000   417.81739      0.0045         0.07196101     0.063317037    0.062050652   -649.16095      755.42953      755.42953      755.42953      4.3110382e+08  1.5485554     -52351197      -52351197       1244.1888     -52349953      -710.19995     -624.89057     -612.39232      66.364692      14.276354      33.461352      16148.683    
     10000   409.5153       0.005          0.078831511    0.070200337    0.068978549   -717.19845      755.80555      755.80555      755.80555      4.3174789e+08  1.5462452     -52345215      -52345215       1219.4666     -52343996      -778.00652     -692.82346     -680.76535      65.574179      14.32678       32.83777       16201.697    
     11000   402.35028      0.0055         0.085491712    0.076987101    0.075774042   -783.79095      756.18157      756.18157      756.18157      4.3239262e+08  1.5439397     -52338583      -52338583       1198.1304     -52337385      -843.73759     -759.80361     -747.83165      64.527944      14.688314      31.227066      16229.473    
     12000   396.50253      0.006          0.091879371    0.083472616    0.082305634   -847.62767      756.55759      756.55759      756.55759      4.3303798e+08  1.5416387     -52331331      -52331331       1180.7168     -52330151      -906.77889     -823.81067     -812.29345      63.459171      15.029346      29.666283      16191.517    
     13000   391.74897      0.0065         0.098038832    0.089614319    0.088578781   -908.7324       756.93362      756.93362      756.93362      4.3368398e+08  1.5393424     -52323486      -52323486       1166.5615     -52322320      -967.56804     -884.42457     -874.2046       62.430629      14.436478      28.762953      16049.976    
     14000   387.63643      0.007          0.10402994     0.095690699    0.094741      -968.70349      757.30964      757.30964      757.30964      4.3433063e+08  1.5370505     -52315052      -52315052       1154.3151     -52313898      -1026.6957     -944.39377     -935.02097      61.887039      13.793007      28.488506      16137.085    
     15000   384.34756      0.0075         0.10993431     0.101848       0.10087586    -1028.5654      757.68566      757.68566      757.68566      4.3497792e+08  1.5347633     -52306031      -52306031       1144.5214     -52304886      -1084.9673     -1005.1616     -995.56733      61.223361      14.376825      28.692094      16189.332    
     16000   382.32799      0.008          0.11579284     0.10803792     0.10704414    -1088.4938      758.06169      758.06169      758.06169      4.3562585e+08  1.5324805     -52296430      -52296430       1138.5075     -52295292      -1142.7864     -1066.2514     -1056.4435      60.100335      14.919426      28.384316      16233.183    
     17000   381.19538      0.0085         0.12160665     0.11409275     0.1132083     -1147.8171      758.43771      758.43771      758.43771      4.3627442e+08  1.5302023     -52286261      -52286261       1135.1348     -52285126      -1200.1643     -1126.0079     -1117.2791      59.043848      14.547813      27.584005      16244.18     
     18000   380.2802       0.009          0.1272826      0.11992679     0.11918945    -1205.3584      758.81373      758.81373      758.81373      4.3692364e+08  1.5279286     -52275536      -52275536       1132.4095     -52274404      -1256.1816     -1183.5853     -1176.3084      58.512377      13.743211      26.961192      16249.116    
     19000   379.47482      0.0095         0.13276309     0.12547299     0.12483833    -1260.2168      759.18975      759.18975      759.18975      4.375735e+08   1.5256594     -52264270      -52264270       1130.0112     -52263140      -1310.2698     -1238.3221     -1232.0585      58.451442      13.080641      26.701504      16222.944    
     20000   379.07319      0.01           0.13812356     0.13085231     0.13027085    -1313.4196      759.56578      759.56578      759.56578      4.3822401e+08  1.5233947     -52252478      -52252478       1128.8152     -52251349      -1363.1735     -1291.4119     -1285.6734      58.048649      12.948319      26.52169       16248.346    
     21000   379.09671      0.0105         0.14342684     0.13625253     0.13564781    -1366.3202      759.9418       759.9418       759.9418       4.3887516e+08  1.5211345     -52240163      -52240163       1128.8853     -52239034      -1415.5129     -1344.7079     -1338.7398      56.82982       13.19391       25.914833      16253.609    
     22000   379.48658      0.011          0.14866468     0.14171745     0.14098952    -1419.1024      760.31782      760.31782      760.31782      4.3952695e+08  1.5188787     -52227335      -52227335       1130.0462     -52226204      -1467.2064     -1398.6425     -1391.4583      55.335904      13.151957      24.997864      16192.558    
     23000   380.09565      0.0115         0.15377321     0.14710079     0.14621415    -1470.8057      760.69384      760.69384      760.69384      4.4017939e+08  1.5166274     -52214005      -52214005       1131.86       -52212873      -1517.6236     -1451.7719     -1443.0215      54.245352      12.453451      24.17885       16247.138    
     24000   381.0386       0.012          0.1586206      0.15219295     0.15126734    -1520.1279      761.06987      761.06987      761.06987      4.4083248e+08  1.5143805     -52200192      -52200192       1134.6679     -52199058      -1565.4636     -1502.0276     -1492.8926      53.454247      12.254231      23.510383      16235.056    
     25000   382.38579      0.0125         0.1633209      0.15697997     0.15624687    -1567.7202      761.44589      761.44589      761.44589      4.4148621e+08  1.5121381     -52185911      -52185911       1138.6796     -52184773      -1611.852      -1549.2719     -1542.0367      52.731382      12.995373      23.2841        16237.568    
     26000   383.6936       0.013          0.16799194     0.16166438     0.16113148    -1614.5663      761.82191      761.82191      761.82191      4.4214058e+08  1.5099001     -52171168      -52171168       1142.574      -52170026      -1657.9515     -1595.5034     -1590.2441      52.146933      13.108463      23.30408       16229.393    
     27000   384.781        0.0135         0.17257323     0.16640813     0.16582561    -1660.6858      762.19793      762.19793      762.19793      4.4279561e+08  1.5076665     -52155968      -52155968       1145.8121     -52154822      -1703.1653     -1642.3205     -1636.5715      51.635114      12.19191       23.037739      16183.685    
     28000   385.89881      0.014          0.17707899     0.17107404     0.17039958    -1705.9055      762.57396      762.57396      762.57396      4.4345128e+08  1.5054374     -52140320      -52140320       1149.1408     -52139171      -1747.6338     -1688.3695     -1681.7131      50.993924      11.347948      22.478797      16216.152    
     29000   387.40958      0.0145         0.18155259     0.17556969     0.17499307    -1750.5234      762.94998      762.94998      762.94998      4.4410759e+08  1.5032126     -52124233      -52124233       1153.6396     -52123080      -1791.7848     -1732.7381     -1727.0474      49.978747      11.350226      21.917104      16234.889    
     30000   388.98439      0.015          0.1859702      0.18004961     0.17955153    -1794.7902      763.326        763.326        763.326        4.4476456e+08  1.5009922     -52107711      -52107711       1158.3291     -52106553      -1835.3832     -1776.9515     -1772.0358      49.036657      12.169913      20.814239      16197.833    
     31000   390.49691      0.0155         0.1902512      0.18442977     0.1838722     -1837.4971      763.70203      763.70203      763.70203      4.4542217e+08  1.4987762     -52090763      -52090763       1162.8331     -52089600      -1877.6333     -1820.1804     -1814.6775      48.44815       12.806387      19.296895      16188.374    
     32000   392.36945      0.016          0.19429874     0.18860983     0.18791662    -1877.8689      764.07805      764.07805      764.07805      4.4608043e+08  1.4965645     -52073412      -52073412       1168.4092     -52072244      -1917.5795     -1861.4343     -1854.5929      47.863722      12.055239      18.531468      16214.625    
     33000   394.44442      0.0165         0.1981468      0.19258481     0.19191541    -1916.7597      764.45407      764.45407      764.45407      4.4673933e+08  1.4943572     -52055667      -52055667       1174.5881     -52054493      -1955.5569     -1900.6643     -1894.0579      46.800547      11.015918      18.77332       16235.293    
     34000   396.27108      0.017          0.20193889     0.1964615      0.19597786    -1955.3524      764.83009      764.83009      764.83009      4.4739889e+08  1.4921542     -52037533      -52037533       1180.0276     -52036353      -1992.9819     -1938.9242     -1934.1511      45.287666      11.486467      19.349027      16232.365    
     35000   397.95301      0.0175         0.20573294     0.20043735     0.20000195    -1994.1516      765.20612      765.20612      765.20612      4.4805909e+08  1.4899555     -52019015      -52019015       1185.0361     -52017830      -2030.4262     -1978.1628     -1973.8657      43.974238      12.147702      18.97632       16176.611    
     36000   399.43312      0.018          0.20952441     0.20440974     0.20401248    -2032.8863      765.58214      765.58214      765.58214      4.4871995e+08  1.4877612     -52000114      -52000114       1189.4436     -51998925      -2067.8452     -2017.3673     -2013.4466      43.613915      11.966883      17.908659      16255.184    
     37000   400.72336      0.0185         0.21320633     0.20806896     0.20788505    -2069.7766      765.95816      765.95816      765.95816      4.4938145e+08  1.4855712     -51980840      -51980840       1193.2857     -51979647      -2104.1829     -2053.481      -2051.6659      43.529186      11.303656      17.247152      16197.707    
     38000   402.18697      0.019          0.21659048     0.21141297     0.2114698     -2103.7034      766.33418      766.33418      766.33418      4.5004361e+08  1.4833854     -51961215      -51961215       1197.6441     -51960017      -2137.5819     -2086.4838     -2087.0447      42.74192       10.641596      16.690371      16211.368    
     39000   403.96812      0.0195         0.2198571      0.21480984     0.2148626     -2136.786       766.71021      766.71021      766.71021      4.5070641e+08  1.481204      -51941252      -51941252       1202.9481     -51940049      -2169.8208     -2120.0083     -2120.5289      41.492339      10.594204      16.204135      16242.247    
     40000   405.65193      0.02           0.22323224     0.21840002     0.21824614    -2170.8311      767.08623      767.08623      767.08623      4.5136986e+08  1.4790268     -51920950      -51920950       1207.9622     -51919742      -2203.1309     -2155.4406     -2153.9219      40.123427      11.058711      15.827646      16228.112    
     41000   407.08841      0.0205         0.22659153     0.22193204     0.22162676    -2204.6232      767.46225      767.46225      767.46225      4.5203397e+08  1.4768539     -51900304      -51900304       1212.2398     -51899091      -2236.2845     -2190.299      -2187.286       39.129565      11.142245      15.115282      16248.146    
     42000   408.5706       0.021          0.22976031     0.22521952     0.22481438    -2236.3491      767.83827      767.83827      767.83827      4.5269872e+08  1.4746852     -51879327      -51879327       1216.6535     -51878110      -2267.558      -2222.7439     -2218.7455      39.170398      10.81928       14.337249      16244.664    
     43000   410.00064      0.0215         0.2327007      0.2282416      0.22781829    -2265.8462      768.2143       768.2143       768.2143       4.5336413e+08  1.4725208     -51858043      -51858043       1220.9119     -51856822      -2296.5773     -2252.5694     -2248.3917      39.239754      10.83761       13.460372      16255.552    
     44000   411.25763      0.022          0.23547516     0.23111765     0.23071745    -2293.9724      768.59032      768.59032      768.59032      4.5403019e+08  1.4703606     -51836462      -51836462       1224.655      -51835237      -2323.9591     -2280.9539     -2277.0042      38.409884      10.841917      12.850836      16200.612    
     45000   412.48567      0.0225         0.23819302     0.23403985     0.233686      -2322.2925      768.96634      768.96634      768.96634      4.546969e+08   1.4682047     -51814588      -51814588       1228.3119     -51813359      -2350.7823     -2309.7938     -2306.3015      37.022388      10.784026      12.362373      16206.199    
     46000   413.71698      0.023          0.24096444     0.23696232     0.23671284    -2350.9815      769.34236      769.34236      769.34236      4.5536426e+08  1.466053      -51792420      -51792420       1231.9785     -51791188      -2378.1341     -2338.6362     -2336.1741      35.776314      10.846098      11.743313      16223.804    
     47000   415.01365      0.0235         0.24380958     0.23973664     0.23963637    -2379.0858      769.71839      769.71839      769.71839      4.5603228e+08  1.4639054     -51769960      -51769960       1235.8398     -51768725      -2406.2134     -2366.0167     -2365.0271      34.770135      10.667679      11.190328      16190.07     
     48000   416.34146      0.024          0.24653796     0.24236109     0.24234903    -2405.6192      770.09441      770.09441      770.09441      4.5670095e+08  1.4617621     -51747224      -51747224       1239.7938     -51745985      -2433.1405     -2391.918      -2391.799       33.912378      10.473792      10.855876      16224.218    
     49000   417.61559      0.0245         0.24897868     0.24484373     0.24490315    -2430.2182      770.47043      770.47043      770.47043      4.5737027e+08  1.4596229     -51724224      -51724224       1243.5879     -51722980      -2457.2285     -2416.4197     -2417.0062      33.726463      10.833813      10.008487      16234.761    
     50000   418.58271      0.025          0.25125443     0.24725113     0.24735875    -2453.7028      770.84646      770.84646      770.84646      4.5804025e+08  1.4574879     -51700973      -51700973       1246.4678     -51699727      -2479.6885     -2440.1789     -2441.241       33.679194      11.540899      8.8270984      15825.056    
     51000   419.37898      0.0255         0.25352562     0.24968106     0.24964095    -2476.6761      771.22248      771.22248      771.22248      4.5871088e+08  1.4553571     -51677476      -51677476       1248.839      -51676228      -2502.1033     -2464.1604     -2463.7646      32.236206      11.512817      8.089266       16182.112    
     52000   420.2195       0.026          0.25569714     0.25207601     0.25187483    -2499.0475      771.5985       771.5985       771.5985       4.5938216e+08  1.4532304     -51653739      -51653739       1251.3419     -51652488      -2523.5346     -2487.7968     -2485.8113      30.524623      10.825688      7.5334174      16228.093    
     53000   421.29578      0.0265         0.25775268     0.25431888     0.25411054    -2520.5431      771.97452      771.97452      771.97452      4.600541e+08   1.4511079     -51629765      -51629765       1254.5469     -51628511      -2543.8212     -2509.9322     -2507.8761      30.558204      10.342847      7.0375103      15758.828    
     54000   422.36284      0.027          0.25985234     0.25653265     0.25638143    -2542.2038      772.35055      772.35055      772.35055      4.6072669e+08  1.4489895     -51605557      -51605557       1257.7244     -51604299      -2564.5432     -2531.7804     -2530.288       31.268368      10.272995      6.2667157      16233.376    
     55000   423.10171      0.0275         0.26193134     0.25865961     0.25856682    -2563.2298      772.72657      772.72657      772.72657      4.6139994e+08  1.4468752     -51581122      -51581122       1259.9246     -51579863      -2585.0613     -2552.7719     -2551.8561      30.561239      10.750844      5.3626186      16221.446    
     56000   423.76915      0.028          0.26383732     0.2606118      0.26047731    -2582.2072      773.10259      773.10259      773.10259      4.6207385e+08  1.444765      -51556474      -51556474       1261.9122     -51555212      -2603.8719     -2572.0384     -2570.7112      28.769571      11.255197      4.7262506      16230.471    
     57000   424.68955      0.0285         0.26558177     0.26242957     0.26219469    -2599.5757      773.47861      773.47861      773.47861      4.6274841e+08  1.4426589     -51531630      -51531630       1264.6529     -51530365      -2621.0883     -2589.9785     -2587.6604      27.409845      11.583734      3.8206043      16235.115    
     58000   425.61891      0.029          0.26722569     0.26414893     0.2639332     -2616.3593      773.85464      773.85464      773.85464      4.6342362e+08  1.440557      -51506602      -51506602       1267.4204     -51505335      -2637.3125     -2606.9473     -2604.8182      27.223835      12.030739      2.3567295      16235.222    
     59000   426.05799      0.0295         0.26882147     0.26580992     0.26576213    -2633.09        774.23066      774.23066      774.23066      4.640995e+08   1.4384591     -51481387      -51481387       1268.7279     -51480119      -2653.0616     -2623.34       -2622.8683      27.439958      12.2587        1.3124251      16218.119    
     60000   426.40737      0.03           0.27037225     0.26745298     0.26748076    -2649.2507      774.60668      774.60668      774.60668      4.6477603e+08  1.4363652     -51455981      -51455981       1269.7683     -51454711      -2668.3667     -2639.5557     -2639.8298      27.023625      11.700936      1.4085997      16234.805    
     61000   427.02864      0.0305         0.2719124      0.26916003     0.26903046    -2665.0313      774.9827       774.9827       774.9827       4.6545321e+08  1.4342755     -51430396      -51430396       1271.6184     -51429124      -2683.5667     -2656.403      -2655.1242      26.128428      11.048225      1.3776828      16229.847    
     62000   427.6451       0.031          0.27329906     0.27079744     0.27049638    -2679.8022      775.35873      775.35873      775.35873      4.6613106e+08  1.4321898     -51404648      -51404648       1273.4541     -51403374      -2697.252      -2672.5629     -2669.5917      25.426549      11.299578      0.32937772     16256.108    
     63000   428.04046      0.0315         0.27457882     0.27223926     0.27193132    -2693.4761      775.73475      775.73475      775.73475      4.6680956e+08  1.4301081     -51378740      -51378740       1274.6314     -51377466      -2709.8823     -2686.7926     -2683.7534      24.52587       12.021774     -1.2833319      16236.785    
     64000   428.28445      0.032          0.27589567     0.27355402     0.27336274    -2706.8424      776.11077      776.11077      776.11077      4.6748872e+08  1.4280304     -51352671      -51352671       1275.3579     -51351395      -2722.8785     -2699.7683     -2697.8805      23.631499      12.538344     -2.0343301      16248.27     
     65000   428.63928      0.0325         0.27713971     0.27474079     0.27462517    -2718.9922      776.4868       776.4868       776.4868       4.6816854e+08  1.4259568     -51326450      -51326450       1276.4146     -51325173      -2735.1562     -2711.4808     -2710.3397      23.392452      12.571399     -2.3457436      16217.114    
     66000   429.20472      0.033          0.2782197      0.27584315     0.27573485    -2729.8222      776.86282      776.86282      776.86282      4.6884901e+08  1.4238872     -51300094      -51300094       1278.0984     -51298816      -2745.815      -2722.3602     -2721.2914      23.277595      12.374525     -3.0024805      16240.926    
     67000   429.58623      0.0335         0.27915506     0.27698815     0.27683044    -2740.2703      777.23884      777.23884      777.23884      4.6953015e+08  1.4218216     -51273612      -51273612       1279.2344     -51272333      -2755.0463     -2733.6605     -2732.104       22.601773      12.338435     -3.6976226      16251.472    
     68000   429.78382      0.034          0.2800059      0.27816618     0.27790915    -2750.4934      777.61486      777.61486      777.61486      4.7021195e+08  1.41976       -51247004      -51247004       1279.8228     -51245724      -2763.4434     -2745.2868     -2742.75        21.374111      12.175956     -4.4559982      16241.672    
     69000   430.12318      0.0345         0.28085997     0.27919113     0.27897332    -2760.1757      777.99089      777.99089      777.99089      4.708944e+08   1.4177024     -51220274      -51220274       1280.8334     -51218993      -2771.8723     -2755.4022     -2753.2526      20.27012       12.063078     -5.253155       16212.119    
     70000   430.28201      0.035          0.28171977     0.28002667     0.27996172    -2769.0046      778.36691      778.36691      778.36691      4.7157752e+08  1.4156487     -51193429      -51193429       1281.3063     -51192147      -2780.3579     -2763.6484     -2763.0074      19.751791      11.823323     -5.9405564      16256.848    
     71000   430.14581      0.0355         0.28250867     0.28077758     0.28072626    -2776.5853      778.74293      778.74293      778.74293      4.7226129e+08  1.4135991     -51166474      -51166474       1280.9008     -51165193      -2788.1438     -2771.0593     -2770.5528      20.087663      11.400582     -6.4020059      16240.024    
     72000   430.09373      0.036          0.28318327     0.28158867     0.28135442    -2783.5393      779.11895      779.11895      779.11895      4.7294573e+08  1.4115533     -51139422      -51139422       1280.7457     -51138141      -2794.8016     -2779.0641     -2776.7522      20.360463      11.162063     -6.8712817      16222.228    
     73000   430.07762      0.0365         0.28371195     0.2824728      0.28204188    -2790.4486      779.49498      779.49498      779.49498      4.7363083e+08  1.4095115     -51112281      -51112281       1280.6977     -51111001      -2800.0192     -2787.7898     -2783.5369      19.513459      10.932566     -8.0391199      16238.706    
     74000   429.82872      0.037          0.28420741     0.2832328      0.2827633     -2796.9521      779.871        779.871        779.871        4.7431659e+08  1.4074737     -51085048      -51085048       1279.9565     -51083768      -2804.909      -2795.2904     -2790.6568      18.679447      10.921425     -9.5485015      16236.517    
     75000   429.43675      0.0375         0.28472547     0.28372509     0.2833797     -2802.3037      780.24702      780.24702      780.24702      4.7500301e+08  1.4054398     -51057726      -51057726       1278.7893     -51056447      -2810.0219     -2800.149      -2796.7402      17.743034      11.024284     -9.9898614      16245.556    
     76000   429.3726       0.038          0.28505901     0.28409324     0.28386083    -2806.1949      780.62304      780.62304      780.62304      4.7569009e+08  1.4034098     -51030330      -51030330       1278.5983     -51029052      -2813.3137     -2803.7823     -2801.4886      16.169313      10.730334     -9.4652305      16204.241    
     77000   429.53371      0.0385         0.28526456     0.28453411     0.2841962     -2809.4247      780.99907      780.99907      780.99907      4.7637783e+08  1.4013837     -51002875      -51002875       1279.078      -51001596      -2815.3423     -2808.1334     -2804.7984      15.416876      10.150905     -9.5871778      16240.239    
     78000   429.32095      0.039          0.28552874     0.28497407     0.28444464    -2812.5584      781.37509      781.37509      781.37509      4.7706624e+08  1.3993615     -50975364      -50975364       1278.4445     -50974085      -2817.9495     -2812.4754     -2807.2503      15.799548      9.1202441     -10.995938      16025.429    
     79000   428.82258      0.0395         0.28574628     0.28524964     0.28477073    -2815.2534      781.75111      781.75111      781.75111      4.7775531e+08  1.3973432     -50947801      -50947801       1276.9604     -50946524      -2820.0965     -2815.195      -2810.4686      15.877117      7.9819514     -11.983227      16163.646    
     80000   428.34702      0.04           0.28584916     0.28544643     0.28509461    -2817.3047      782.12714      782.12714      782.12714      4.7844505e+08  1.3953287     -50920190      -50920190       1275.5443     -50918914      -2821.1119     -2817.1372     -2813.6651      14.955518      7.3620128     -12.008424      16231.587    
     81000   427.8105       0.0405         0.28591626     0.28571077     0.28527302    -2818.982       782.50316      782.50316      782.50316      4.7913544e+08  1.3933182     -50892523      -50892523       1273.9466     -50891249      -2821.7741     -2819.7461     -2815.4258      13.504905      7.9571154     -11.952223      16233.517    
     82000   427.06124      0.041          0.28595344     0.28600158     0.28532457    -2820.2306      782.87918      782.87918      782.87918      4.798265e+08   1.3913115     -50864806      -50864806       1271.7154     -50863534      -2822.1411     -2822.6161     -2815.9346      12.378377      8.7895243     -12.432903      16192.144    
     83000   426.24803      0.0415         0.28588881     0.28607554     0.28531084    -2820.2161      783.2552       783.2552       783.2552       4.8051823e+08  1.3893086     -50837061      -50837061       1269.2939     -50835791      -2821.5032     -2823.3461     -2815.7991      11.437428      8.6925065     -13.126591      16228.834    
     84000   425.82962      0.042          0.28579216     0.28594892     0.28523837    -2819.2432      783.63123      783.63123      783.63123      4.8121062e+08  1.3873096     -50809302      -50809302       1268.0479     -50808034      -2820.5493     -2822.0964     -2815.0838      10.815288      7.7595446     -12.941816      16229.116    
     85000   425.64051      0.0425         0.28564542     0.28588935     0.28522255    -2818.5124      784.00725      784.00725      784.00725      4.8190367e+08  1.3853145     -50781524      -50781524       1267.4847     -50780256      -2819.1011     -2821.5085     -2814.9277      10.627809      6.8488182     -12.898028      16233.243    
     86000   425.13783      0.043          0.28539773     0.28588251     0.28525933    -2817.7961      784.38327      784.38327      784.38327      4.8259739e+08  1.3833231     -50753722      -50753722       1265.9879     -50752456      -2816.6566     -2821.441      -2815.2907      10.570208      6.3434678     -13.956695      16262.467    
     87000   424.38508      0.0435         0.28506133     0.28569387     0.2850695     -2815.4444      784.75929      784.75929      784.75929      4.8329177e+08  1.3813356     -50725912      -50725912       1263.7463     -50724648      -2813.3365     -2819.5793     -2813.4173      10.498516      5.9012683     -15.127685      16210.333    
     88000   423.58576      0.044          0.28467634     0.2852967      0.28459455    -2811.3088      785.13532      785.13532      785.13532      4.8398682e+08  1.3793519     -50698107      -50698107       1261.3661     -50696846      -2809.537      -2815.6595     -2808.7299      9.6285952      4.9071137     -15.403759      16260.743    
     89000   422.63795      0.0445         0.28433235     0.2848711      0.28408203    -2807.091       785.51134      785.51134      785.51134      4.8468254e+08  1.3773719     -50670304      -50670304       1258.5436     -50669046      -2806.1421     -2811.4592     -2803.6716      8.3924746      4.3487402     -14.601068      16251.127    
     90000   421.46789      0.045          0.28391216     0.28452935     0.28369893    -2803.3241      785.88736      785.88736      785.88736      4.8537892e+08  1.3753958     -50642506      -50642506       1255.0594     -50641251      -2801.9952     -2808.0864     -2799.8907      7.3435639      4.2666991     -13.357173      16247.023    
     91000   420.36806      0.0455         0.28338938     0.28410864     0.28330303    -2798.9178      786.26338      786.26338      786.26338      4.8607597e+08  1.3734234     -50614726      -50614726       1251.7843     -50613474      -2796.8358     -2803.9343     -2795.9835      6.7088622      3.8531932     -12.588442      16203.92     
     92000   419.59486      0.046          0.28277029     0.28353466     0.28275114    -2793.1773      786.63941      786.63941      786.63941      4.8677369e+08  1.3714548     -50586984      -50586984       1249.4818     -50585735      -2790.7258     -2798.2695     -2790.5368      6.173777       2.6325308     -12.466075      16253.705    
     93000   418.97858      0.0465         0.28204756     0.28290911     0.28214761    -2786.7564      787.01543      787.01543      787.01543      4.8747207e+08  1.36949       -50559278      -50559278       1247.6467     -50558031      -2783.593      -2792.0958     -2784.5805      5.0252222      1.4321446     -13.127878      16253.027    
     94000   418.38968      0.047          0.28132903     0.28228888     0.28153783    -2780.3462      787.39145      787.39145      787.39145      4.8817113e+08  1.3675289     -50531598      -50531598       1245.893      -50530353      -2776.5016     -2785.9747     -2778.5624      4.4449817      1.108219      -13.859637      16206.073    
     95000   417.66301      0.0475         0.28060606     0.28164941     0.28093085    -2773.8673      787.76748      787.76748      787.76748      4.8887085e+08  1.3655716     -50503948      -50503948       1243.7291     -50502704      -2769.3664     -2779.6635     -2772.5719      4.7740009      1.7002341     -13.633385      16244.669    
     96000   416.4877       0.048          0.27988679     0.28098247     0.28035494    -2767.4125      788.1435       788.1435       788.1435       4.8957123e+08  1.363618      -50476333      -50476333       1240.2293     -50475093      -2762.2679     -2773.0814     -2766.8881      4.9289868      1.9438891     -12.801038      16263.331    
     97000   415.22164      0.0485         0.27910815     0.28020561     0.27963028    -2759.9113      788.51952      788.51952      788.51952      4.9027229e+08  1.3616681     -50448768      -50448768       1236.4591     -50447532      -2754.5833     -2765.4144     -2759.7363      4.1634791      1.2206223     -12.06974       16188.904    
     98000   414.32794      0.049          0.27820493     0.27931683     0.27871024    -2750.9894      788.89554      788.89554      788.89554      4.9097402e+08  1.3597219     -50421263      -50421263       1233.7978     -50420029      -2745.6692     -2756.6428     -2750.6562      2.9473141     -0.011011568   -11.589489      16244.051    
     99000   413.56575      0.0495         0.27727581     0.27829837     0.27770495    -2741.2752      789.27157      789.27157      789.27157      4.9167641e+08  1.3577794     -50393824      -50393824       1231.5282     -50392593      -2736.4994     -2746.5913     -2740.7348      2.0707544     -1.1116763     -11.434648      16219.368    
    100000   412.71774      0.05           0.2763752      0.2771624      0.27671229    -2731.3098      789.64759      789.64759      789.64759      4.9237947e+08  1.3558407     -50366449      -50366449       1229.003      -50365220      -2727.6111     -2735.3803     -2730.9379      1.9441957     -1.3743689     -11.712372      15841.126    
    101000   411.75363      0.0505         0.2753985      0.27607045     0.27584621    -2721.6553      790.02361      790.02361      790.02361      4.9308321e+08  1.3539056     -50339143      -50339143       1226.132      -50337917      -2717.9719     -2724.6035     -2722.3905      1.9920686     -1.8098815     -11.679531      16211.938    
    102000   410.62075      0.051          0.27424371     0.2750035      0.27495064    -2711.4001      790.39963      790.39963      790.39963      4.9378761e+08  1.3519742     -50311912      -50311912       1222.7585     -50310689      -2706.575      -2714.0735     -2713.5519      1.3224699     -2.991123      -10.417642      16237.237    
    103000   409.49768      0.0515         0.27298887     0.27386755     0.2738543     -2699.9284      790.77566      790.77566      790.77566      4.9449269e+08  1.3500465     -50284763      -50284763       1219.4142     -50283544      -2694.1907     -2702.8626     -2702.7318      0.18069432    -3.614699      -8.7332042      16263.279    
    104000   408.57394      0.052          0.27172918     0.27257925     0.27262935    -2687.5163      791.15168      791.15168      791.15168      4.9519843e+08  1.3481224     -50257713      -50257713       1216.6634     -50256497      -2681.7585     -2690.148      -2690.6425     -0.21912345    -3.4419745     -8.066727       16216.361    
    105000   407.65294      0.0525         0.2705465      0.27122964     0.2714196     -2675.206       791.5277       791.5277       791.5277       4.9590485e+08  1.346202      -50230760      -50230760       1213.9208     -50229546      -2670.0864     -2676.8284     -2678.7032      0.1681727     -3.9096699     -8.3568506      16257.657    
    106000   406.68054      0.053          0.26939072     0.26991494     0.27024504    -2663.2148      791.90372      791.90372      791.90372      4.9661194e+08  1.3442853     -50203899      -50203899       1211.0252     -50202688      -2658.6797     -2663.8534     -2667.1112      0.55852619    -5.03619       -8.5645322      16266.039    
    107000   405.7193       0.0535         0.26811936     0.26862824     0.2690559     -2650.8874      792.27975      792.27975      792.27975      4.973197e+08   1.3423722     -50177133      -50177133       1208.1628     -50175925      -2646.1323     -2651.1546     -2655.3753      0.56762402    -5.2739174     -8.1191209      16252.681    
    108000   404.60798      0.054          0.26670715     0.26728041     0.26785347    -2637.8519      792.65577      792.65577      792.65577      4.9802813e+08  1.3404627     -50150475      -50150475       1204.8535     -50149270      -2632.1949     -2637.8526     -2643.5082      0.079857945   -4.7232447     -7.326998       16201.242    
    109000   403.29957      0.0545         0.26524229     0.26582229     0.26660634    -2624.1333      793.03179      793.03179      793.03179      4.9873724e+08  1.3385568     -50123930      -50123930       1200.9572     -50122729      -2617.7379     -2623.462      -2631.2        -0.92320099    -5.2348331     -6.9032851      16280.277    
    110000   401.85185      0.055          0.26383423     0.26434541     0.2653058     -2610.3642      793.40782      793.40782      793.40782      4.9944702e+08  1.3366545     -50097494      -50097494       1196.6462     -50096298      -2603.8414     -2608.8864     -2618.3647     -1.9428131     -6.8910928     -6.5439656      16267.527    
    111000   400.44305      0.0555         0.26240994     0.26287953     0.2638417     -2596.0397      793.78384      793.78384      793.78384      5.0015747e+08  1.3347559     -50071168      -50071168       1192.451      -50069976      -2589.7848     -2594.4193     -2603.9151     -2.3625289     -8.0708668     -5.874423       16222.498    
    112000   399.31944      0.056          0.26095111     0.26136968     0.26229688    -2581.1914      794.15986      794.15986      794.15986      5.0086859e+08  1.3328608     -50044955      -50044955       1189.1051     -50043766      -2575.3873     -2579.5182     -2588.6689     -2.1591184     -8.3047277     -5.0895691      16271.614    
    113000   398.41413      0.0565         0.25953629     0.25987162     0.26085053    -2566.8507      794.53588      794.53588      794.53588      5.0158039e+08  1.3309693     -50018869      -50018869       1186.4092     -50017683      -2561.4241     -2564.7335     -2574.3946     -2.1782209     -8.1535684     -4.1238639      16273.827    
    114000   397.33234      0.057          0.25805668     0.25829501     0.25952191    -2552.4257      794.91191      794.91191      794.91191      5.0229286e+08  1.3290814     -49992920      -49992920       1183.1879     -49991737      -2546.8215     -2549.1736     -2561.2821     -2.4393456     -7.6765668     -3.1832009      16254.338    
    115000   395.9403       0.0575         0.25643874     0.25665196     0.25818134    -2537.2877      795.28793      795.28793      795.28793      5.0300601e+08  1.3271971     -49967094      -49967094       1179.0426     -49965915      -2530.8536     -2532.9579     -2548.0517     -2.294285      -7.2517473     -2.2641452      16268.037    
    116000   394.59178      0.058          0.25465927     0.25498637     0.25664309    -2520.8939      795.66395      795.66395      795.66395      5.0371983e+08  1.3253163     -49941393      -49941393       1175.0269     -49940217      -2513.2915     -2516.5198     -2532.8703     -2.1076808     -7.7082748     -1.8205388      16276.513    
    117000   393.49118      0.0585         0.25288966     0.25330991     0.25491242    -2503.8638      796.03997      796.03997      796.03997      5.0443432e+08  1.3234391     -49915830      -49915830       1171.7495     -49914658      -2495.8269     -2499.9744     -2515.7899     -2.5671911     -8.4966213     -2.4106563      16285.232    
    118000   392.25476      0.059          0.25134015     0.25165771     0.25325129    -2487.8663      796.416        796.416        796.416        5.051495e+08   1.3215655     -49890413      -49890413       1168.0677     -49889245      -2480.5344     -2483.6685     -2499.3959     -3.4901773     -8.7742029     -3.0431295      16267.997    
    119000   390.76385      0.0595         0.24991213     0.25003957     0.25169919    -2472.7392      796.79202      796.79202      796.79202      5.0586534e+08  1.3196953     -49865133      -49865133       1163.628      -49863969      -2466.441      -2467.6987     -2484.0778     -4.2340451     -8.8944684     -2.3808228      16290.488    
    120000   389.32897      0.06           0.24843461     0.2485252      0.25016919    -2457.8633      797.16804      797.16804      797.16804      5.0658187e+08  1.3178287     -49839983      -49839983       1159.3552     -49838824      -2451.859      -2452.753      -2468.9779     -4.3460188     -9.321737      -0.93475217     16258.963    
    121000   388.17501      0.0605         0.24683451     0.24700017     0.24858328    -2442.3652      797.54406      797.54406      797.54406      5.0729906e+08  1.3159656     -49814967      -49814967       1155.9189     -49813812      -2436.0672     -2437.7022     -2453.3262     -4.0344628     -9.997371      -0.077715225    16236.743    
    122000   387.2455       0.061          0.24504999     0.24528183     0.24689353    -2425.2829      797.92009      797.92009      797.92009      5.0801694e+08  1.314106      -49790093      -49790093       1153.151      -49788940      -2418.4554     -2420.7435     -2436.6497     -3.901414      -10.346091      0.095946556    16286.187    
    123000   386.30779      0.0615         0.24320633     0.24343481     0.2451927     -2407.5462      798.29611      798.29611      798.29611      5.0873549e+08  1.3122499     -49765367      -49765367       1150.3586     -49764216      -2400.2599     -2402.5148     -2419.8638     -4.5226769     -10.60949       0.13688742     16298.042    
    124000   385.05769      0.062          0.24136563     0.24162324     0.24349056    -2389.9315      798.67213      798.67213      798.67213      5.0945472e+08  1.3103974     -49740797      -49740797       1146.636      -49739651      -2382.0936     -2384.636      -2403.065      -5.0168199     -11.181056      0.49606302     16318.229    
    125000   383.50023      0.0625         0.23961598     0.23991772     0.24175233    -2372.8465      799.04816      799.04816      799.04816      5.1017463e+08  1.3085483     -49716386      -49716386       1141.9982     -49715244      -2364.8259     -2367.8038     -2385.91       -5.0915704     -11.572425      1.119619       16292.749    
    126000   381.8132       0.063          0.23798407     0.23821573     0.2399919     -2356.0875      799.42418      799.42418      799.42418      5.1089522e+08  1.3067026     -49692121      -49692121       1136.9745     -49690984      -2348.7201     -2351.0065     -2368.5359     -5.0890307     -11.1326        1.6753846      16302.86     
    127000   380.35775      0.0635         0.23638035     0.23646464     0.23824155    -2339.2928      799.8002       799.8002       799.8002       5.1161648e+08  1.3048605     -49668002      -49668002       1132.6404     -49666869      -2332.8927     -2333.7246     -2351.2613     -5.1995058     -10.317878      1.4741512      16270.442    
    128000   379.19492      0.064          0.23470986     0.23479947     0.23650042    -2322.5915      800.17622      800.17622      800.17622      5.1233842e+08  1.3030218     -49644032      -49644032       1129.1777     -49642903      -2316.4063     -2317.2906     -2334.0777     -5.2694093     -10.119432      0.51490686     16291.127    
    129000   378.1072       0.0645         0.23300637     0.23325612     0.23479529    -2306.3008      800.55225      800.55225      800.55225      5.1306104e+08  1.3011865     -49620211      -49620211       1125.9387     -49619085      -2299.594      -2302.0589     -2317.2493     -5.0358567     -10.644955      0.38002959     16276.843    
    130000   376.94757      0.065          0.23135612     0.23167937     0.23317168    -2290.3435      800.92827      800.92827      800.92827      5.1378434e+08  1.2993547     -49596532      -49596532       1122.4855     -49595409      -2283.3073     -2286.4976     -2301.2256     -5.2137441     -11.503602      1.9272296      16189.097    
    131000   375.81094      0.0655         0.22973402     0.23001387     0.23160455    -2274.3727      801.30429      801.30429      801.30429      5.1450832e+08  1.2975264     -49572997      -49572997       1119.1008     -49571878      -2267.2985     -2270.0604     -2285.7592     -5.9021548     -11.972298      3.577602       16301.975    
    132000   374.78318      0.066          0.22803935     0.22826257     0.22996591    -2257.6456      801.68031      801.68031      801.68031      5.1523298e+08  1.2957014     -49549609      -49549609       1116.0403     -49548493      -2250.5734     -2252.7764     -2269.5871     -5.9036454     -11.75635       3.983735       16266.852    
    133000   373.74086      0.0665         0.22636691     0.22651759     0.22819894    -2240.5903      802.05634      802.05634      802.05634      5.1595832e+08  1.2938799     -49526367      -49526367       1112.9365     -49525254      -2234.0678     -2235.5548     -2252.1485     -5.1596952     -11.057753      3.5541609      16239.814    
    134000   372.62555      0.067          0.22479181     0.22485011     0.22634952    -2223.8389      802.43236      802.43236      802.43236      5.1668434e+08  1.2920618     -49503275      -49503275       1109.6153     -49502166      -2218.5227     -2219.098      -2233.8961     -4.8865705     -11.153071      3.5508864      16244.721    
    135000   371.51182      0.0675         0.22319218     0.22319802     0.22462865    -2207.4804      802.80838      802.80838      802.80838      5.1741104e+08  1.2902471     -49480333      -49480333       1106.2988     -49479227      -2202.7355     -2202.7932     -2216.9125     -5.4533774     -12.042736      4.0677221      16304.435    
    136000   370.25151      0.068          0.22148192     0.22156729     0.22304346    -2191.2745      803.1844       803.1844       803.1844       5.1813843e+08  1.2884358     -49457541      -49457541       1102.5458     -49456438      -2185.8566     -2186.6991     -2201.2678     -5.7496777     -12.285889      4.5755234      16310.342    
    137000   368.7986       0.0685         0.2198347      0.21997122     0.22144809    -2175.3566      803.56043      803.56043      803.56043      5.1886649e+08  1.2866279     -49434895      -49434895       1098.2193     -49433796      -2169.5998     -2170.9472     -2185.5227     -5.2919199     -11.745878      4.5093846      16314.448    
    138000   367.28014      0.069          0.21830507     0.21836902     0.21981873    -2159.6935      803.93645      803.93645      803.93645      5.1959523e+08  1.2848234     -49412393      -49412393       1093.6975     -49411299      -2154.5036     -2155.1347     -2169.4421     -4.5691039     -11.327414      4.7286819      16327.687    
    139000   366.10301      0.0695         0.21676936     0.2167536      0.21817937    -2143.934       804.31247      804.31247      804.31247      5.2032466e+08  1.2830223     -49390028      -49390028       1090.1922     -49388938      -2139.3473     -2139.1917     -2153.2629     -3.9271948     -11.413442      5.5848577      16312.534    
    140000   365.2077       0.07           0.21525748     0.21518249     0.21657603    -2128.5172      804.6885       804.6885       804.6885       5.2105477e+08  1.2812245     -49367794      -49367794       1087.5262     -49366706      -2124.4262     -2123.6861     -2137.4393     -3.9579671     -11.529537      5.954634       16332.198    
    141000   364.17415      0.0705         0.21373117     0.2136981      0.21504343    -2113.5708      805.06452      805.06452      805.06452      5.2178556e+08  1.27943       -49345695      -49345695       1084.4484     -49344610      -2109.3626     -2109.0363     -2122.3137     -4.6869182     -11.260687      5.286675       16310.162    
    142000   363.00269      0.071          0.21215424     0.21222854     0.21358992    -2098.767       805.44054      805.44054      805.44054      5.2251704e+08  1.277639      -49323737      -49323737       1080.96       -49322656      -2093.7996     -2094.5328     -2107.9687     -5.5627304     -10.869144      4.4689562      16323.56     
    143000   361.77846      0.0715         0.21066099     0.21071654     0.21219652    -2084.2965      805.81656      805.81656      805.81656      5.232492e+08   1.2758512     -49301913      -49301913       1077.3145     -49300835      -2079.0623     -2079.6105     -2094.2168     -5.8422575     -11.436032      4.1610571      16285.535    
    144000   360.61457      0.072          0.20927026     0.20919486     0.21076229    -2069.9972      806.19259      806.19259      806.19259      5.2398204e+08  1.2740668     -49280215      -49280215       1073.8486     -49279141      -2065.3369     -2064.5927     -2080.0621     -5.4281577     -12.642949      4.6689548      16271.395    
    145000   359.49526      0.0725         0.20790293     0.20778025     0.20924717    -2055.861       806.56861      806.56861      806.56861      5.2471556e+08  1.2722857     -49258641      -49258641       1070.5155     -49257571      -2051.8423     -2050.6316     -2065.109      -4.9134957     -13.382829      5.357311       16335.385    
    146000   358.37756      0.073          0.20649476     0.20643276     0.20771493    -2041.7549      806.94463      806.94463      806.94463      5.2544977e+08  1.270508      -49237195      -49237195       1067.1872     -49236128      -2037.9448     -2037.3329     -2049.987      -4.6783513     -12.910865      5.6655397      16327.776    
    147000   357.19936      0.0735         0.20508922     0.20501221     0.20619492    -2027.4574      807.32065      807.32065      807.32065      5.2618467e+08  1.2687335     -49215878      -49215878       1063.6787     -49214815      -2024.0733     -2023.3132     -2034.9856     -4.8013874     -12.244202      5.9464482      16305.18     
    148000   355.8854       0.074          0.20371962     0.20360381     0.20481413    -2013.776       807.69668      807.69668      807.69668      5.2692025e+08  1.2669624     -49194683      -49194683       1059.766      -49193624      -2010.5563     -2009.4134     -2021.3583     -4.9967801     -12.001198      5.5065263      16334.474    
    149000   354.39669      0.0745         0.20233171     0.20230241     0.20357465    -2000.8513      808.0727       808.0727       808.0727       5.2765651e+08  1.2651945     -49173601      -49173601       1055.3328     -49172546      -1996.8587     -1996.5695     -2009.1256     -4.9337345     -11.46          4.4939214      16329.854    
    150000   353.1852       0.075          0.2009508      0.20107107     0.20235389    -1988.2416      808.44872      808.44872      808.44872      5.2839346e+08  1.2634299     -49152627      -49152627       1051.7252     -49151575      -1983.2302     -1984.4171     -1997.0776     -4.3956745     -10.864979      4.0794429      15952.973    
    151000   352.38339      0.0755         0.1996571      0.19983581     0.20106229    -1975.673       808.82474      808.82474      808.82474      5.291311e+08   1.2616687     -49131771      -49131771       1049.3376     -49130722      -1970.4624     -1972.2261     -1984.3305     -3.5791704     -10.873998      4.3360152      16322.702    
    152000   351.59842      0.076          0.19841481     0.19850332     0.19964099    -1962.5269      809.20077      809.20077      809.20077      5.2986942e+08  1.2599106     -49111035      -49111035       1047.0001     -49109988      -1958.2019     -1959.0755     -1970.3034     -3.2657397     -11.258746      4.5857272      16289.392    
    153000   350.39274      0.0765         0.19716512     0.19711845     0.1982267     -1949.2072      809.57679      809.57679      809.57679      5.3060843e+08  1.2581559     -49090414      -49090414       1043.4098     -49089371      -1945.8684     -1945.4078     -1956.3455     -3.7783418     -11.490394      4.3125127      16335.874    
    154000   348.83076      0.077          0.1959105      0.19582102     0.19696628    -1936.6652      809.95281      809.95281      809.95281      5.3134813e+08  1.2564044     -49069900      -49069900       1038.7584     -49068862      -1933.4863     -1932.6032     -1943.9061     -4.2421125     -11.476525      4.329642       16330.764    
    155000   347.4651       0.0775         0.19470609     0.19471875     0.19585727    -1925.4284      810.32884      810.32884      810.32884      5.3208851e+08  1.2546562     -49049487      -49049487       1034.6917     -49048452      -1921.5997     -1921.7246     -1932.9609     -4.0395167     -11.440283      4.8804457      16345.576    
    156000   346.68142      0.078          0.19353814     0.19373677     0.19477121    -1914.7829      810.70486      810.70486      810.70486      5.3282958e+08  1.2529112     -49029169      -49029169       1032.3581     -49028137      -1910.0729     -1912.0332     -1922.2424     -3.501342      -11.4521        5.0980866      16345.557    
    157000   346.09013      0.0785         0.19237177     0.1927588      0.19369958    -1904.2031      811.08088      811.08088      811.08088      5.3357134e+08  1.2511694     -49008948      -49008948       1030.5973     -49007918      -1898.5617     -1902.3814     -1911.6662     -2.5198663     -11.221959      4.4776601      16282.396    
    158000   345.20167      0.079          0.19124847     0.19169166     0.19262794    -1893.4717      811.4569       811.4569       811.4569       5.3431378e+08  1.2494308     -48988820      -48988820       1027.9516     -48987792      -1887.4756     -1891.8496     -1901.09       -2.0582188     -10.897448      3.4899563      16336.138    
    159000   343.90819      0.0795         0.19023965     0.19057539     0.19146837    -1882.6661      811.83293      811.83293      811.83293      5.3505692e+08  1.2476955     -48968783      -48968783       1024.0999     -48967759      -1877.5194     -1880.8329     -1889.6459     -2.7062377     -10.513545      3.0327777      16353.185    
    160000   342.65056      0.08           0.18926997     0.18942394     0.19028481    -1871.7945      812.20895      812.20895      812.20895      5.3580074e+08  1.2459634     -48948839      -48948839       1020.3549     -48947818      -1867.9493     -1869.469      -1877.9651     -3.1744476     -10.390748      3.1247201      16285.984    
    161000   341.66819      0.0805         0.18821316     0.18831675     0.18925       -1861.2712      812.58497      812.58497      812.58497      5.3654525e+08  1.2442345     -48928988      -48928988       1017.4295     -48927971      -1857.5195     -1858.5419     -1867.7523     -2.7301562     -10.743829      3.1939356      16345.291    
    162000   340.78647      0.081          0.18707132     0.18730665     0.18828951    -1851.0321      812.96099      812.96099      812.96099      5.3729045e+08  1.2425088     -48909224      -48909224       1014.8039     -48908209      -1846.2504     -1848.5729     -1858.2729     -1.7873459     -11.14097       3.2234972      16363.767    
    163000   339.93227      0.0815         0.18598228     0.18643576     0.18728962    -1841.295       813.33702      813.33702      813.33702      5.3803635e+08  1.2407863     -48889548      -48889548       1012.2603     -48888536      -1835.5024     -1839.9779     -1848.4048     -1.0389411     -11.241219      3.3163221      16365.862    
    164000   338.96976      0.082          0.18505368     0.18567097     0.18628243    -1832.4108      813.71304      813.71304      813.71304      5.3878293e+08  1.239067      -48869957      -48869957       1009.3941     -48868948      -1826.3379     -1832.43       -1838.4647     -0.67256636    -10.912778      2.878534       16382.076    
    165000   338.07776      0.0825         0.18423328     0.18481083     0.18533474    -1823.7646      814.08906      814.08906      814.08906      5.395302e+08   1.2373508     -48850437      -48850437       1006.7378     -48849431      -1818.2411     -1823.9411     -1829.1116     -0.91631801    -10.486261      2.1806638      16248.607    
    166000   337.58569      0.083          0.18343946     0.18383767     0.18448066    -1815.142       814.46508      814.46508      814.46508      5.4027816e+08  1.2356378     -48830983      -48830983       1005.2725     -48829977      -1810.4067     -1814.3367     -1820.6825     -1.7339343     -10.219993      2.0544394      16354.312    
    167000   337.10973      0.0835         0.18264928     0.18292274     0.18368758    -1806.9236      814.84111      814.84111      814.84111      5.4102681e+08  1.233928      -48811596      -48811596       1003.8552     -48810592      -1802.6083     -1805.3071     -1812.8555     -2.0488579     -10.398227      2.0995233      16377.851    
    168000   336.21122      0.084          0.18180879     0.18217906     0.18282645    -1798.8792      815.21713      815.21713      815.21713      5.4177616e+08  1.2322213     -48792281      -48792281       1001.1796     -48791279      -1794.3132     -1797.9676     -1804.3568     -1.092647      -10.963425      1.8481933      16377.465    
    169000   335.18853      0.0845         0.18094952     0.18142197     0.18189045    -1790.4826      815.59315      815.59315      815.59315      5.425262e+08   1.2305178     -48773038      -48773038       998.1342      -48772040      -1785.8329     -1790.4957     -1795.1192     -0.060072138   -11.149537      1.686699       16390.162    
    170000   334.4183       0.085          0.18011416     0.18049792     0.18097203    -1781.6732      815.96917      815.96917      815.96917      5.4327692e+08  1.2288174     -48753866      -48753866       995.8406      -48752870      -1777.5885     -1781.376      -1786.055       0.11347791    -10.741336      2.039556       16382.017    
    171000   334.1285       0.0855         0.17928964     0.1795082      0.1801409     -1772.9706      816.3452       816.3452       816.3452       5.4402834e+08  1.2271201     -48734763      -48734763       994.97762     -48733768      -1769.4512     -1771.6082     -1777.8525      0.040209462   -10.339739      2.4611651      16347.643    
    172000   333.96927      0.086          0.17850764     0.17871376     0.17941807    -1765.4066      816.72122      816.72122      816.72122      5.4478046e+08  1.225426      -48715727      -48715727       994.50346     -48714733      -1761.7334     -1763.7676     -1770.7187      0.20173927    -10.147372      2.3029732      16370.275    
    173000   333.33188      0.0865         0.17781134     0.17815741     0.17875912    -1759.1179      817.09724      817.09724      817.09724      5.4553326e+08  1.223735      -48696750      -48696750       992.60541     -48695757      -1754.8614     -1758.2769     -1764.2154      0.64152527    -9.5441256      1.7695882      16388.155    
    174000   332.34036      0.087          0.17718358     0.1776103      0.17812503    -1753.1669      817.47327      817.47327      817.47327      5.4628676e+08  1.222047      -48677822      -48677822       989.65284     -48676833      -1748.666      -1752.8773     -1757.9574      0.93869337    -8.9336945      1.2844917      16397.53     
    175000   331.48136      0.0875         0.17648828     0.17685895     0.17739657    -1746.0113      817.84929      817.84929      817.84929      5.4704095e+08  1.2203622     -48658945      -48658945       987.09488     -48657958      -1741.8039     -1745.4621     -1750.768       0.83799839    -8.8750775      0.76927042     16346.617    
    176000   330.91727      0.088          0.17570384     0.17595011     0.17652389    -1737.57        818.22531      818.22531      818.22531      5.4779584e+08  1.2186805     -48640127      -48640127       985.41513     -48639142      -1734.062      -1736.4926     -1742.1554      0.7016673     -9.1984374      0.58589942     16393.203    
    177000   330.51438      0.0885         0.17494224     0.1751155      0.175692      -1729.5822      818.60133      818.60133      818.60133      5.4855142e+08  1.2170019     -48621375      -48621375       984.21538     -48620390      -1726.5456     -1728.2557     -1733.9453      0.80907202    -9.6802952      0.93227785     16379.865    
    178000   329.97595      0.089          0.1742651      0.17450798     0.17504401    -1723.2243      818.97736      818.97736      818.97736      5.4930769e+08  1.2153264     -48602680      -48602680       982.61204     -48601698      -1719.8629     -1722.2599     -1727.5501      1.2854111     -9.6593613      1.4781532      16395.166    
    179000   329.39706      0.0895         0.17359696     0.17400435     0.17447551    -1717.4992      819.35338      819.35338      819.35338      5.5006466e+08  1.2136539     -48584036      -48584036       980.88819     -48583055      -1713.2688     -1717.2894     -1721.9394      1.8567503     -9.2468279      1.8052571      16398.259    
    180000   329.14284      0.09           0.17300837     0.17342436     0.17383702    -1711.5544      819.7294       819.7294       819.7294       5.5082233e+08  1.2119845     -48565442      -48565442       980.13119     -48564462      -1707.4598     -1711.5654     -1715.638       2.2406819     -8.9794472      1.5367106      16355.278    
    181000   329.05833      0.0905         0.17253966     0.17279771     0.17319493    -1705.8386      820.10542      820.10542      820.10542      5.5158069e+08  1.2103182     -48546898      -48546898       979.87953     -48545918      -1702.8341     -1705.3808     -1709.3011      2.4738691     -8.9502199      0.6745802      16408.257    
    182000   328.65263      0.091          0.17202783     0.17220157     0.17265037    -1700.4022      820.48145      820.48145      820.48145      5.5233974e+08  1.2086549     -48528395      -48528395       978.67142     -48527416      -1697.7826     -1699.4974     -1703.9267      2.4296889     -9.0850414     -0.057936759    16392.632    
    183000   328.11282      0.0915         0.17139804     0.17158958     0.17209598    -1694.4933      820.85747      820.85747      820.85747      5.530995e+08   1.2069946     -48509928      -48509928       977.06396     -48508951      -1691.5672     -1693.4575     -1698.4552      2.3588333     -9.1236684      0.18707034     16398.558    
    184000   327.79805      0.092          0.17075541     0.1709745      0.17148187    -1688.3355      821.23349      821.23349      821.23349      5.5385995e+08  1.2053374     -48491506      -48491506       976.12662     -48490530      -1685.2249     -1687.3871     -1692.3944      2.1225331     -9.0084438      1.067606       16417.267    
    185000   327.52931      0.0925         0.17015215     0.17037584     0.170821      -1682.2074      821.60951      821.60951      821.60951      5.5462109e+08  1.2036833     -48473136      -48473136       975.32637     -48472160      -1679.2712     -1681.4788     -1685.8721      1.8917054     -8.7683122      1.9367096      16379.928    
    186000   327.18325      0.093          0.16964398     0.16978063     0.17016371    -1676.4152      821.98554      821.98554      821.98554      5.5538293e+08  1.2020321     -48454810      -48454810       974.29586     -48453836      -1674.2559     -1675.6045     -1679.3852      2.0961094     -8.5881305      1.8955072      16413.01     
    187000   326.74671      0.0935         0.16918676     0.16922608     0.16957975    -1671.1657      822.36156      822.36156      822.36156      5.5614547e+08  1.200384      -48436526      -48436526       972.99592     -48435553      -1669.7435     -1670.1315     -1673.6221      2.5647        -8.6172417      1.03184        16359.329    
    188000   326.44374      0.094          0.16866963     0.16869713     0.16908203    -1666.087       822.73758      822.73758      822.73758      5.5690871e+08  1.1987389     -48418286      -48418286       972.09371     -48417314      -1664.6399     -1664.9112     -1668.7099      2.7915426     -8.3351581      0.49336999     16397.478    
    189000   326.42961      0.0945         0.16803687     0.16815492     0.16858005    -1660.5703      823.11361      823.11361      823.11361      5.5767264e+08  1.1970968     -48400088      -48400088       972.05163     -48399116      -1658.3949     -1659.5601     -1663.7558      2.7533093     -7.6422532      0.63268288     16419.484    
    190000   326.50261      0.095          0.16736538     0.16763514     0.16803399    -1654.8549      823.48963      823.48963      823.48963      5.5843728e+08  1.1954577     -48381931      -48381931       972.26903     -48380959      -1651.7679     -1654.4302     -1658.3665      2.7179454     -7.1430338      0.84717648     16405.64     
    191000   326.22821      0.0955         0.16677457     0.16714551     0.16749181    -1649.5169      823.86565      823.86565      823.86565      5.5920261e+08  1.1938215     -48363819      -48363819       971.45191     -48362847      -1645.937      -1649.5979     -1653.0156      2.8375239     -7.4874624      0.78179187     16376.719    
    192000   325.56806      0.096          0.1663562      0.16659736     0.16699023    -1644.6872      824.24167      824.24167      824.24167      5.5996864e+08  1.1921884     -48345742      -48345742       969.48609     -48344772      -1641.808      -1644.1881     -1648.0654      2.8742246     -8.5499874      0.82973534     16418.284    
    193000   324.99365      0.0965         0.16605131     0.16596627     0.16650108    -1639.9988      824.6177       824.6177       824.6177       5.6073537e+08  1.1905583     -48327694      -48327694       967.77559     -48326727      -1638.799      -1637.9597     -1643.2378      2.7847667     -9.1759251      1.3349119      16419.085    
    194000   324.71268      0.097          0.16566797     0.16539918     0.16602432    -1635.3038      824.99372      824.99372      824.99372      5.615028e+08   1.1889311     -48309680      -48309680       966.93891     -48308713      -1635.0158     -1632.363      -1638.5326      3.1586753     -8.8774115      1.709643       16415.02     
    195000   324.52187      0.0975         0.16509965     0.16496669     0.16552114    -1630.3561      825.36974      825.36974      825.36974      5.6227093e+08  1.1873068     -48291703      -48291703       966.3707      -48290736      -1629.4068     -1628.0947     -1633.5667      3.9363158     -8.2426908      1.6236417      16426.371    
    196000   324.37653      0.098          0.16445715     0.16454263     0.16493365    -1624.9147      825.74576      825.74576      825.74576      5.6303976e+08  1.1856856     -48273773      -48273773       965.93791     -48272807      -1623.0659     -1623.9095     -1627.7686      4.0829428     -7.7482527      1.6951999      16397.686    
    197000   324.32668      0.0985         0.16388222     0.16400828     0.16433784    -1619.3054      826.12179      826.12179      826.12179      5.6380929e+08  1.1840673     -48255893      -48255893       965.78948     -48254927      -1617.3918     -1618.6359     -1621.8884      3.5998053     -7.5372195      2.1956408      16423.924    
    198000   324.27156      0.099          0.16345199     0.16344897     0.16383234    -1614.3871      826.49781      826.49781      826.49781      5.6457952e+08  1.1824519     -48238047      -48238047       965.62534     -48237081      -1613.1457     -1613.1159     -1616.8995      3.0895209     -7.7021473      2.7224639      16437.721    
    199000   324.28758      0.0995         0.16310586     0.16299438     0.16341752    -1610.3882      826.87383      826.87383      826.87383      5.6535045e+08  1.1808395     -48220224      -48220224       965.67304     -48219259      -1609.7297     -1608.6295     -1612.8055      3.1029551     -8.1236696      2.5865892      16400.838    
    200000   324.46454      0.1            0.16269977     0.16262964     0.16302636    -1606.5656      827.24985      827.24985      827.24985      5.6612209e+08  1.17923       -48202429      -48202429       966.19998     -48201463      -1605.7219     -1605.0298     -1608.9451      3.6065938     -8.3202199      1.8411345      15994.902    
    201000   324.60036      0.1005         0.16225497     0.16226456     0.16259114    -1602.4695      827.62588      827.62588      827.62588      5.6689442e+08  1.1776234     -48184670      -48184670       966.60444     -48183703      -1601.3321     -1601.4267     -1604.6498      4.1362739     -8.4164786      1.1377998      16424.916    
    202000   324.55765      0.101          0.16185529     0.16182647     0.16210459    -1598.1128      828.0019       828.0019       828.0019       5.6766746e+08  1.1760197     -48166948      -48166948       966.47727     -48165982      -1597.3875     -1597.1031     -1599.8479      4.3243628     -8.4979055      1.2354213      16390.698    
    203000   324.24659      0.1015         0.16144956     0.16132893     0.16161229    -1593.5218      828.37792      828.37792      828.37792      5.684412e+08   1.174419      -48149256      -48149256       965.55097     -48148291      -1593.3833     -1592.1927     -1594.9893      4.3003143     -8.5380954      2.1629452      16436.086    
    204000   323.79942      0.102          0.16103077     0.16078403     0.16114658    -1588.8194      828.75395      828.75395      828.75395      5.6921564e+08  1.1728211     -48131593      -48131593       964.21937     -48130629      -1589.2501     -1586.815      -1590.3931      4.2739178     -8.4483847      2.5907778      16448.593    
    205000   323.68358      0.1025         0.16055085     0.16024211     0.16071463    -1584.0368      829.12997      829.12997      829.12997      5.6999079e+08  1.1712262     -48113964      -48113964       963.87443     -48113000      -1584.5137     -1581.4667     -1586.1301      4.3384809     -8.0408541      2.3757654      16443.864    
    206000   323.72936      0.103          0.1600293      0.15986642     0.16033189    -1579.826       829.50599      829.50599      829.50599      5.7076664e+08  1.1696341     -48096371      -48096371       964.01075     -48095406      -1579.3664     -1577.7588     -1582.3527      4.2430626     -7.4903515      2.1620546      16393.058    
    207000   323.54065      0.1035         0.15957603     0.15960541     0.1599289     -1576.1505      829.88201      829.88201      829.88201      5.7154319e+08  1.1680449     -48078802      -48078802       963.44882     -48077838      -1574.893      -1575.183      -1578.3755      4.0469727     -7.4561585      2.1409843      16443.019    
    208000   323.30859      0.104          0.1592141      0.15925301     0.15945325    -1572.2357      830.25804      830.25804      830.25804      5.7232045e+08  1.1664586     -48061258      -48061258       962.75776     -48060295      -1571.321      -1571.705      -1573.6812      4.0899968     -7.7546949      2.3652841      16425.766    
    209000   323.20495      0.1045         0.15884233     0.15874261     0.15891698    -1567.5695      830.63406      830.63406      830.63406      5.7309841e+08  1.1648752     -48043754      -48043754       962.44916     -48042792      -1567.652      -1566.6677     -1568.3887      4.2579036     -7.9132788      2.7814771      16380.726    
    210000   322.9588       0.105          0.15842667     0.15821567     0.15839933    -1562.7656      831.01008      831.01008      831.01008      5.7387708e+08  1.1632946     -48026293      -48026293       961.71616     -48025331      -1563.5496     -1561.4672     -1563.2799      4.2742362     -7.6239048      2.5847725      16435.321    
    211000   322.50218      0.1055         0.15803351     0.15772528     0.15802526    -1558.6283      831.3861       831.3861       831.3861       5.7465645e+08  1.1617169     -48008856      -48008856       960.35643     -48007896      -1559.6695     -1556.6275     -1559.588       4.250908      -7.1307696      1.9891821      16435.349    
    212000   322.46594      0.106          0.15762189     0.15722734     0.15771878    -1554.6279      831.76213      831.76213      831.76213      5.7543652e+08  1.1601421     -47991438      -47991438       960.2485      -47990477      -1555.6072     -1551.7132     -1556.5633      4.2148615     -7.1144015      2.0216597      16406.82     
    213000   323.11699      0.1065         0.15716434     0.15682682     0.15738969    -1550.7224      832.13815      832.13815      832.13815      5.7621731e+08  1.1585701     -47974049      -47974049       962.18723     -47973087      -1551.0914     -1547.7604     -1553.3155      3.8457091     -7.5799136      2.4874953      16423.176    
    214000   323.74672      0.107          0.1567552      0.15657658     0.15705264    -1547.4444      832.51417      832.51417      832.51417      5.7699879e+08  1.1570009     -47956696      -47956696       964.06246     -47955732      -1547.0535     -1545.2907     -1549.9891      3.6755014     -7.7582466      2.8263836      16305.136    
    215000   323.8152       0.1075         0.1564458      0.1563251      0.15665383    -1544.2873      832.89019      832.89019      832.89019      5.7778099e+08  1.1554346     -47939368      -47939368       964.26638     -47938404      -1544          -1542.8088     -1546.0531      4.0017881     -7.576947       2.7557845      16425.869    
    216000   323.50107      0.108          0.15610821     0.15590863     0.15614359    -1540.1281      833.26622      833.26622      833.26622      5.7856389e+08  1.153871      -47922061      -47922061       963.33095     -47921098      -1540.6682     -1538.6985     -1541.0175      4.6513515     -7.4964976      2.5340532      16334.59     
    217000   323.15713      0.1085         0.15569181     0.15540635     0.15563786    -1535.4421      833.64224      833.64224      833.64224      5.793475e+08   1.1523104     -47904785      -47904785       962.30676     -47903822      -1536.5587     -1533.7414     -1536.0263      5.0335925     -7.6750337      2.6183226      16401.652    
[...]
   3165000   321.9849       1.5825         0.013410928    0.013412202    0.013358596   -132.1876       1942.157       1942.157       1942.157       7.3257659e+09  0.091128782   -14708252      -14708252       958.81604     -14707293      -132.35557     -132.36815     -131.83909      0.64772563    -0.47281953     0.51792542     15389.332    
   3166000   322.03291      1.583          0.013400631    0.013402021    0.013349541   -132.09045      1942.5331      1942.5331      1942.5331      7.3300217e+09  0.091075872   -14700191      -14700191       958.95903     -14699232      -132.25395     -132.26766     -131.74973      0.6603176     -0.49180811     0.52536212     15371.868    
   3167000   322.04911      1.5835         0.013393356    0.013394957    0.013341126   -132.01559      1942.9091      1942.9091      1942.9091      7.3342792e+09  0.091023003   -14692131      -14692131       959.00725     -14691172      -132.18214     -132.19795     -131.66668      0.68815544    -0.50061033     0.52605531     15421.356    
   3168000   322.02616      1.584          0.013387559    0.013388377    0.013333021   -131.94821      1943.2851      1943.2851      1943.2851      7.3385384e+09  0.090970175   -14684073      -14684073       958.93892     -14683114      -132.12494     -132.133       -131.58668      0.71433628    -0.50546652     0.51859136     15371.581    
   3169000   321.97541      1.5845         0.013380988    0.013379341    0.013325268   -131.87136      1943.6611      1943.6611      1943.6611      7.3427992e+09  0.090917388   -14676016      -14676016       958.78779     -14675057      -132.06008     -132.04383     -131.51017      0.72697279    -0.50624798     0.49792474     15393.586    
   3170000   321.91825      1.585          0.013373597    0.013369138    0.013317243   -131.78708      1944.0372      1944.0372      1944.0372      7.3470617e+09  0.090864641   -14667960      -14667960       958.61759     -14667002      -131.98714     -131.94314     -131.43097      0.72386615    -0.49975107     0.47711725     15379.768    
   3171000   321.86469      1.5855         0.013365178    0.013358705    0.013306194   -131.68872      1944.4132      1944.4132      1944.4132      7.3513258e+09  0.090811935   -14659907      -14659907       958.45808     -14658949      -131.90405     -131.84017     -131.32192      0.71333447    -0.49480616     0.47181604     15381.96     
   3172000   321.8342       1.586          0.013354269    0.013347559    0.013291702   -131.56848      1944.7892      1944.7892      1944.7892      7.3555915e+09  0.090759271   -14651858      -14651858       958.3673      -14650899      -131.79639     -131.73016     -131.1789       0.7097977     -0.49653873     0.48876038     15369.671    
   3173000   321.85565      1.5865         0.013340583    0.013336035    0.013278202   -131.44114      1945.1652      1945.1652      1945.1652      7.359859e+09   0.090706646   -14643813      -14643813       958.43117     -14642855      -131.66132     -131.61643     -131.04567      0.71713367    -0.50199366     0.5195683      15386.291    
   3174000   321.90786      1.587          0.01332828     0.013326367    0.01326951    -131.34027      1945.5412      1945.5412      1945.5412      7.364128e+09   0.090654063   -14635773      -14635773       958.58663     -14634814      -131.53989     -131.52102     -130.95988      0.71394775    -0.49979252     0.54265354     15414.603    
   3175000   321.94165      1.5875         0.013320373    0.013319426    0.013264822   -131.276        1945.9173      1945.9173      1945.9173      7.3683987e+09  0.09060152    -14627735      -14627735       958.68725     -14626776      -131.46186     -131.45251     -130.91361      0.68889336    -0.49149463     0.5494295      15362.39     
   3176000   321.95442      1.588          0.013314734    0.013314527    0.013259422   -131.22356      1946.2933      1946.2933      1946.2933      7.3726711e+09  0.090549017   -14619696      -14619696       958.72527     -14618738      -131.40621     -131.40416     -130.86032      0.66081796    -0.48522732     0.54302839     15390.623    
   3177000   321.97904      1.5885         0.013307322    0.01330899     0.01324933    -131.14776      1946.6693      1946.6693      1946.6693      7.3769451e+09  0.090496556   -14611659      -14611659       958.79859     -14610700      -131.33306     -131.34952     -130.76072      0.6514589     -0.47977107     0.5261683      15397.052    
   3178000   322.03067      1.589          0.013296813    0.013300129    0.013236571   -131.04207      1947.0453      1947.0453      1947.0453      7.3812208e+09  0.090444134   -14603624      -14603624       958.95233     -14602665      -131.22934     -131.26206     -130.6348       0.65938671    -0.47045127     0.5155908      15399.293    
   3179000   322.09529      1.5895         0.013284813    0.013287927    0.013224319   -130.92215      1947.4214      1947.4214      1947.4214      7.3854981e+09  0.090391754   -14595593      -14595593       959.14478     -14594634      -131.11091     -131.14164     -130.51389      0.66745968    -0.45859301     0.52473064     15414.945    
   3180000   322.13684      1.59           0.013274282    0.013274951    0.013214996   -130.81414      1947.7974      1947.7974      1947.7974      7.389777e+09   0.090339413   -14587567      -14587567       959.26849     -14586608      -131.00698     -131.01358     -130.42187      0.66712831    -0.45064711     0.53889478     15390.819    
   3181000   322.12728      1.5905         0.013267064    0.013263253    0.013208686   -130.73115      1948.1734      1948.1734      1948.1734      7.3940577e+09  0.090287113   -14579544      -14579544       959.24002     -14578584      -130.93574     -130.89813     -130.35959      0.66805691    -0.44516732     0.53899042     15399.032    
   3182000   322.07399      1.591          0.013260856    0.013253063    0.013204407   -130.66313      1948.5494      1948.5494      1948.5494      7.3983399e+09  0.090234854   -14571521      -14571521       959.08135     -14570562      -130.87447     -130.79756     -130.31737      0.67974108    -0.44054342     0.52492835     15379.604    
   3183000   322.00653      1.5915         0.013253038    0.013244659    0.013198766   -130.59121      1948.9255      1948.9255      1948.9255      7.4026239e+09  0.090182635   -14563500      -14563500       958.88045     -14562541      -130.79731     -130.71462     -130.2617       0.69006911    -0.44121556     0.51070278     15396.009    
   3184000   321.95002      1.592          0.013242368    0.013236076    0.013189606   -130.49774      1949.3015      1949.3015      1949.3015      7.4069094e+09  0.090130456   -14555480      -14555480       958.71217     -14554522      -130.69202     -130.62992     -130.17129      0.680289      -0.44762686     0.51257024     15394.241    
   3185000   321.93222      1.5925         0.013231123    0.01322688     0.013178618   -130.39435      1949.6775      1949.6775      1949.6775      7.4111967e+09  0.090078317   -14547464      -14547464       958.65918     -14546506      -130.58104     -130.53915     -130.06285      0.65800473    -0.45674722     0.52698206     15421.574    
   3186000   321.94781      1.593          0.013221117    0.013219525    0.013168639   -130.3044       1950.0535      1950.0535      1950.0535      7.4154856e+09  0.090026218   -14539451      -14539451       958.70559     -14538492      -130.48228     -130.46657     -129.96436      0.64461162    -0.46949861     0.53351689     15433.257    
   3187000   321.96871      1.5935         0.013212717    0.013214059    0.013159521   -130.22879      1950.4295      1950.4295      1950.4295      7.4197761e+09  0.08997416    -14531440      -14531440       958.76784     -14530481      -130.39938     -130.41262     -129.87437      0.64537346    -0.48208952     0.53059865     15402.873    
   3188000   322.00107      1.594          0.013204953    0.013206778    0.013149382   -130.14594      1950.8056      1950.8056      1950.8056      7.4240683e+09  0.089922142   -14523431      -14523431       958.86419     -14522472      -130.32275     -130.34076     -129.77431      0.66154283    -0.48856722     0.52733616     15440.351    
   3189000   322.07564      1.5945         0.013196948    0.013196068    0.013138589   -130.04887      1951.1816      1951.1816      1951.1816      7.4283621e+09  0.089870164   -14515424      -14515424       959.08627     -14514465      -130.24375     -130.23506     -129.66779      0.68648424    -0.49427817     0.52258118     15421.173    
   3190000   322.16326      1.595          0.013189861    0.013185213    0.013129243   -129.9591       1951.5576      1951.5576      1951.5576      7.4326577e+09  0.089818226   -14507421      -14507421       959.34718     -14506461      -130.17381     -130.12793     -129.57556      0.70485368    -0.4953277      0.51158962     15443.386    
   3191000   322.19505      1.5955         0.013182956    0.013176392    0.013120049   -129.87712      1951.9336      1951.9336      1951.9336      7.4369548e+09  0.089766328   -14499419      -14499419       959.44185     -14498460      -130.10566     -130.04088     -129.48482      0.70781056    -0.49107175     0.48958521     15441.417    
   3192000   322.14751      1.596          0.013174261    0.013167885    0.01311009    -129.78777      1952.3097      1952.3097      1952.3097      7.4412536e+09  0.08971447    -14491420      -14491420       959.30029     -14490460      -130.01985     -129.95692     -129.38653      0.69811631    -0.48700351     0.46781209     15383.344    
   3193000   322.05379      1.5965         0.013162456    0.013157975    0.013100028   -129.68323      1952.6857      1952.6857      1952.6857      7.4455541e+09  0.089662651   -14483423      -14483423       959.02121     -14482464      -129.90334     -129.85912     -129.28722      0.68330548    -0.48061919     0.45879244     15429.336    
   3194000   321.97218      1.597          0.013148532    0.013146829    0.013090164   -129.5683       1953.0617      1953.0617      1953.0617      7.4498562e+09  0.089610873   -14475430      -14475430       958.77816     -14474471      -129.76592     -129.74911     -129.18988      0.6690993     -0.47317388     0.46688506     15068.356    
   3195000   321.93447      1.5975         0.013135662    0.013137167    0.01308144    -129.46548      1953.4377      1953.4377      1953.4377      7.45416e+09    0.089559135   -14467441      -14467441       958.66588     -14466482      -129.6389      -129.65375     -129.10378      0.65793635    -0.4663698      0.48305811     15378.52     
   3196000   321.93443      1.598          0.013126734    0.013129574    0.013073614   -129.38538      1953.8137      1953.8137      1953.8137      7.4584655e+09  0.089507436   -14459455      -14459455       958.66577     -14458496      -129.5508      -129.57882     -129.02654      0.65811087    -0.46717788     0.49535428     15429.74     
   3197000   321.95467      1.5985         0.013120597    0.013121365    0.013066139   -129.3136       1954.1898      1954.1898      1954.1898      7.4627726e+09  0.089455778   -14451470      -14451470       958.72602     -14450511      -129.49023     -129.4978      -128.95277      0.66970941    -0.47645213     0.49795882     15401.634    
   3198000   321.98917      1.599          0.013113979    0.013111266    0.013057898   -129.23149      1954.5658      1954.5658      1954.5658      7.4670813e+09  0.089404158   -14443486      -14443486       958.82878     -14442527      -129.42491     -129.39814     -128.87144      0.67973041    -0.48928882     0.49840592     15443.172    
   3199000   322.02803      1.5995         0.01310558     0.013100211    0.013048356   -129.1361       1954.9418      1954.9418      1954.9418      7.4713918e+09  0.089352579   -14435505      -14435505       958.94448     -14434547      -129.34202     -129.28903     -128.77726      0.68200823    -0.50727281     0.50835283     15374.34     
   3200000   322.05362      1.6            0.013097401    0.013091159    0.01303872    -129.04772      1955.3178      1955.3178      1955.3178      7.4757038e+09  0.08930104    -14427528      -14427528       959.02068     -14426569      -129.2613      -129.19969     -128.68216      0.67756393    -0.52122399     0.52157889     15064.281    
   3201000   322.06343      1.6005         0.013090512    0.013085406    0.013029795   -128.97677      1955.6939      1955.6939      1955.6939      7.4800176e+09  0.089249539   -14419552      -14419552       959.0499      -14418593      -129.19331     -129.14292     -128.59408      0.66997297    -0.51419079     0.52755111     15394.11     
   3202000   322.06035      1.601          0.013084006    0.013080176    0.013022179   -128.91311      1956.0699      1956.0699      1956.0699      7.484333e+09   0.089198079   -14411577      -14411577       959.04073     -14410618      -129.1291      -129.0913      -128.51892      0.66319013    -0.48651418     0.52493907     15414.915    
   3203000   322.04434      1.6015         0.01307453     0.013072047    0.013014995   -128.83156      1956.4459      1956.4459      1956.4459      7.48865e+09    0.089146658   -14403603      -14403603       958.99305     -14402644      -129.03558     -129.01107     -128.44801      0.66381338    -0.4599699      0.51370779     15401.018    
   3204000   322.02374      1.602          0.013061776    0.013061075    0.01300571    -128.72296      1956.8219      1956.8219      1956.8219      7.4929687e+09  0.089095277   -14395632      -14395632       958.93171     -14394673      -128.90971     -128.90279     -128.35638      0.66780718    -0.45580578     0.49214677     15390.999    
   3205000   322.0091       1.6025         0.013049457    0.013050059    0.012994588   -128.6096       1957.198       1957.198       1957.198       7.4972891e+09  0.089043935   -14387666      -14387666       958.8881      -14386707      -128.78813     -128.79407     -128.24661      0.66822875    -0.4732934      0.47667343     15381.1      
   3206000   322.0012       1.603          0.013039271    0.013040511    0.012983489   -128.50817      1957.574       1957.574       1957.574       7.5016111e+09  0.088992633   -14379703      -14379703       958.86458     -14378744      -128.6876      -128.69983     -128.13707      0.66416614    -0.48692925     0.48162674     15444.252    
   3207000   321.99556      1.6035         0.013030858    0.01303236     0.012972705   -128.4182       1957.95        1957.95        1957.95        7.5059348e+09  0.088941369   -14371743      -14371743       958.8478      -14370784      -128.60457     -128.61939     -128.03065      0.6629319     -0.4856172      0.4926944      15387.749    
   3208000   321.99571      1.604          0.013022418    0.013024163    0.012962483   -128.32984      1958.326       1958.326       1958.326       7.5102602e+09  0.088890146   -14363785      -14363785       958.84824     -14362826      -128.52127     -128.5385      -127.92976      0.66965782    -0.47437213     0.49795457     15379.837    
   3209000   322.02423      1.6045         0.013013063    0.013014542    0.012954094   -128.23982      1958.702       1958.702       1958.702       7.5145872e+09  0.088838961   -14355830      -14355830       958.93318     -14354871      -128.42894     -128.44354     -127.84697      0.6865976     -0.45495228     0.49592714     15412.253    
   3210000   322.07874      1.605          0.013004477    0.013004641    0.012947724   -128.15805      1959.0781      1959.0781      1959.0781      7.5189159e+09  0.088787816   -14347877      -14347877       959.0955      -14346918      -128.34421     -128.34583     -127.7841       0.70061946    -0.43196616     0.49027978     15390.3      
   3211000   322.13187      1.6055         0.012996711    0.012995695    0.012942182   -128.08483      1959.4541      1959.4541      1959.4541      7.5232462e+09  0.088736711   -14339927      -14339927       959.25371     -14338967      -128.26757     -128.25754     -127.7294       0.70045492    -0.41442649     0.48915444     15425.775    
   3212000   322.16763      1.606          0.0129876      0.012986802    0.012937521   -128.01027      1959.8301      1959.8301      1959.8301      7.5275782e+09  0.088685644   -14331978      -14331978       959.3602      -14331018      -128.17764     -128.16977     -127.6834       0.6782881     -0.41331288     0.49229581     15382.729    
   3213000   322.18093      1.6065         0.012977756    0.01297576     0.012931164   -127.92065      1960.2061      1960.2061      1960.2061      7.5319119e+09  0.088634617   -14324030      -14324030       959.39978     -14323071      -128.08049     -128.06079     -127.62067      0.6496497     -0.42076006     0.49885672     15440.499    
   3214000   322.1753       1.607          0.012967565    0.012963582    0.012918797   -127.80638      1960.5822      1960.5822      1960.5822      7.5362472e+09  0.088583628   -14316086      -14316086       959.38303     -14315127      -127.97992     -127.94061     -127.49861      0.63839137    -0.42735781     0.50835663     15365.069    
   3215000   322.15454      1.6075         0.012956639    0.012952243    0.012901851   -127.67738      1960.9582      1960.9582      1960.9582      7.5405842e+09  0.088532679   -14308147      -14308147       959.3212      -14307188      -127.87208     -127.82869     -127.33137      0.64441817    -0.4338439      0.52769149     15432.396    
   3216000   322.11554      1.608          0.012946562    0.012943217    0.012886868   -127.56525      1961.3342      1961.3342      1961.3342      7.5449229e+09  0.088481769   -14300213      -14300213       959.20507     -14299254      -127.77263     -127.73962     -127.1835       0.64989139    -0.44160459     0.55065377     15440.822    
   3217000   322.06637      1.6085         0.012937753    0.012936885    0.012878399   -127.48758      1961.7102      1961.7102      1961.7102      7.5492632e+09  0.088430898   -14292282      -14292282       959.05866     -14291323      -127.68569     -127.67713     -127.09992      0.6503296     -0.44273536     0.55470068     15385.641    
   3218000   322.04496      1.609          0.012928982    0.012930582    0.012874582   -127.42543      1962.0862      1962.0862      1962.0862      7.5536052e+09  0.088380066   -14284351      -14284351       958.9949      -14283392      -127.59913     -127.61492     -127.06225      0.64872271    -0.43500086     0.53547641     15401.566    
   3219000   322.05273      1.6095         0.012920036    0.012922712    0.01287099    -127.3583       1962.4623      1962.4623      1962.4623      7.5579488e+09  0.088329273   -14276422      -14276422       959.01802     -14275463      -127.51084     -127.53725     -127.0268       0.63956201    -0.42984018     0.50281441     15430.691    
   3220000   322.0509       1.61           0.012911141    0.012912726    0.01286471    -127.27552      1962.8383      1962.8383      1962.8383      7.5622941e+09  0.088278519   -14268494      -14268494       959.0126      -14267535      -127.42305     -127.4387      -126.96482      0.6307635     -0.43829735     0.47968644     15223.974    
   3221000   322.03871      1.6105         0.012902141    0.012901231    0.012855032   -127.17626      1963.2143      1963.2143      1963.2143      7.5666411e+09  0.088227803   -14260568      -14260568       958.97628     -14259609      -127.33423     -127.32525     -126.8693       0.63913186    -0.45470847     0.48213468     15427.85     
   3222000   322.03528      1.611          0.012892935    0.012890586    0.012845072   -127.07819      1963.5903      1963.5903      1963.5903      7.5709898e+09  0.088177127   -14252647      -14252647       958.96608     -14251688      -127.24337     -127.22019     -126.77101      0.65664696    -0.46608087     0.49945831     15430.463    
ERROR on proc 0: Pair distance > table outer cutoff: ijtype 2 1 dist 308.0000159726731 (src/pair_table_pgn.cpp:138)
Last command: run				${steps_tensile}
