LAMMPS (23 Jun 2022 - Update 1)
OMP_NUM_THREADS environment is not set. Defaulting to 1 thread. (src/comm.cpp:98)
  using 1 OpenMP thread(s) per MPI task
###

# Read restart info
read_restart ${read_res}
read_restart ./trial10/8020/equpmf70.res
Reading restart file ...
  restart file = 23 Jun 2022, LAMMPS = 23 Jun 2022
  restoring atom style atomic from restart
  orthogonal box = (1711.241 1711.241 1711.241) to (2288.759 2288.759 2288.759)
  2 by 1 by 2 MPI processor grid
  restoring pair style table from restart
  1000 atoms
  read_restart CPU = 0.021 seconds

# Settings
pair_style table/pgn spline 10941
pair_coeff 1 1 N20e.txt DE_GNP 308 72.9   # 1.35 * r
pair_coeff 2 2 N100e.txt DE_GNP 473.9 111.78
WARNING: 20 of 10941 force values in table DE_GNP are inconsistent with -dE/dr.
WARNING:  Should only be flagged at inflection points (src/pair_table_pgn.cpp:478)
pair_coeff 1 2 mixed_potentiale.txt DE_GNP 391.2 92.95
WARNING: 1564 of 10941 force values in table DE_GNP are inconsistent with -dE/dr.
WARNING:  Should only be flagged at inflection points (src/pair_table_pgn.cpp:478)

# Neighbor list
neighbor 2.0 bin
neigh_modify delay 0 every 1 check no once yes

# Temperature
variable T equal ${Temp}
variable T equal 300

# Deformation
reset_timestep 0
variable tmp equal "lx"
variable L0 equal ${tmp}
variable L0 equal 577.518097058417
variable strain equal "(lx - v_L0)/v_L0"
variable stp equal "step"
variable tmpe equal "temp"
variable p1 equal "v_strain"
variable p2 equal "-pxx*1.01325/10000"
variable p3 equal "-pyy*1.01325/10000"
variable p4 equal "-pzz*1.01325/10000"
variable p5 equal "lx"
variable p6 equal "ly"
variable p7 equal "lz"
variable p8 equal "press"
variable p9 equal "epair"
variable p10 equal "etotal"

# Thermo
thermo_style custom step temp v_p1 v_p2 v_p3 v_p4 press lx ly lz vol density epair pe ke etotal pxx pyy pzz pxy pxz pyz spcpu
thermo ${ts_save}
thermo 1000

# Dump
# dump 1 all custom 2000 ./${N20}${N100}/tensile/trajectory/trajectory_${usic}_${trial}_*.tensile.custom id type x y z ix iy iz
# dump_modify 1 sort id
dump 2 all cfg 50000 ./trial${trial}/${N20}${N100}/tensile/trajectory/dumpten.tens_${usic}_${trial}_*.cfg mass type xs ys zs fx fy fz
dump 2 all cfg 50000 ./trial10/${N20}${N100}/tensile/trajectory/dumpten.tens_${usic}_${trial}_*.cfg mass type xs ys zs fx fy fz
dump 2 all cfg 50000 ./trial10/80${N100}/tensile/trajectory/dumpten.tens_${usic}_${trial}_*.cfg mass type xs ys zs fx fy fz
dump 2 all cfg 50000 ./trial10/8020/tensile/trajectory/dumpten.tens_${usic}_${trial}_*.cfg mass type xs ys zs fx fy fz
dump 2 all cfg 50000 ./trial10/8020/tensile/trajectory/dumpten.tens_1_${trial}_*.cfg mass type xs ys zs fx fy fz
dump 2 all cfg 50000 ./trial10/8020/tensile/trajectory/dumpten.tens_1_10_*.cfg mass type xs ys zs fx fy fz
dump_modify 2 element N20 N100

fix 1 all nvt temp ${T} ${T} 100
fix 1 all nvt temp 300 ${T} 100
fix 1 all nvt temp 300 300 100
fix 2 all deform 1 x erate ${strain_rate} y erate ${strain_rate} z erate ${strain_rate} units box
fix 2 all deform 1 x erate 5e-6 y erate ${strain_rate} z erate ${strain_rate} units box
fix 2 all deform 1 x erate 5e-6 y erate 5e-6 z erate ${strain_rate} units box
fix 2 all deform 1 x erate 5e-6 y erate 5e-6 z erate 5e-6 units box
fix             def1 all print ${ts_save} "${p1} ${p2} ${p3} ${p4}" file ./tensile/${trial}/tensile${N20}${N100}_${usic}_${trial}.txt screen no
fix             def1 all print 1000 "${p1} ${p2} ${p3} ${p4}" file ./tensile/${trial}/tensile${N20}${N100}_${usic}_${trial}.txt screen no
fix             def1 all print 1000 "${p1} ${p2} ${p3} ${p4}" file ./tensile/10/tensile${N20}${N100}_${usic}_${trial}.txt screen no
fix             def1 all print 1000 "${p1} ${p2} ${p3} ${p4}" file ./tensile/10/tensile80${N100}_${usic}_${trial}.txt screen no
fix             def1 all print 1000 "${p1} ${p2} ${p3} ${p4}" file ./tensile/10/tensile8020_${usic}_${trial}.txt screen no
fix             def1 all print 1000 "${p1} ${p2} ${p3} ${p4}" file ./tensile/10/tensile8020_1_${trial}.txt screen no
fix             def1 all print 1000 "${p1} ${p2} ${p3} ${p4}" file ./tensile/10/tensile8020_1_10.txt screen no

timestep       		${ts}
timestep       		0.1
run				${steps_tensile}
run				6000000
Generated 0 of 1 mixed pair_coeff terms from geometric mixing rule
Unused restart file global fix info:
  fix style: npt, fix ID: 5
Neighbor list info ...
  update every 1 steps, delay 0 steps, check no
  max neighbors/atom: 2000, page size: 100000
  master list distance cutoff = 113.78
  ghost atom cutoff = 113.78
  binsize = 56.89, bins = 11 11 11
  1 neighbor lists, perpetual/occasional/extra = 1 0 0
  (1) pair table/pgn, perpetual
      attributes: half, newton on
      pair build: half/bin/atomonly/newton
      stencil: half/bin/3d
      bin: standard
Per MPI rank memory allocation (min/avg/max) = 3.856 | 3.857 | 3.857 Mbytes
   Step          Temp           v_p1           v_p2           v_p3           v_p4          Press            Lx             Ly             Lz           Volume        Density         E_pair         PotEng         KinEng         TotEng          Pxx            Pyy            Pzz            Pxy            Pxz            Pyz           S/CPU     
         0   304.13602     -7.8741663e-16  0.015652766    0.018858633    0.021146583   -183.10052      577.5181       577.5181       577.5181       1.9261797e+08  2.2577343     -11837596      -11837596       905.66513     -11836690      -154.48079     -186.12024     -208.70055     -66.595099     -105.2553      -50.233911      0            
      1000   355.42877      0.0005         0.024760957    0.028169772    0.030771961   -275.36044      577.80686      577.80686      577.80686      1.9290704e+08  2.2543511     -11836823      -11836823       1058.4062     -11835765      -244.37165     -278.01404     -303.69564     -66.462698     -103.72943     -49.026004      13207.551    
      2000   439.43121      0.001          0.032580755    0.035706528    0.03860431    -351.646        578.09562      578.09562      578.09562      1.931964e+08   2.2509747     -11835942      -11835942       1308.5511     -11834634      -321.54705     -352.39604     -380.99491     -65.079674     -101.17313     -48.378231      13323.522    
      3000   506.7023       0.0015         0.038678839    0.041522341    0.04418796    -409.20845      578.38437      578.38437      578.38437      1.9348605e+08  2.2476049     -11834951      -11834951       1508.8729     -11833442      -381.73046     -409.79364     -436.10126     -63.431524     -97.088844     -48.303218      13396.282    
      4000   540.7915       0.002          0.044192801    0.046916129    0.0488682     -460.48895      578.67313      578.67313      578.67313      1.9377599e+08  2.2442419     -11833817      -11833817       1610.3847     -11832206      -436.14903     -463.0262      -482.29163     -61.846574     -93.83448      -46.14954       13748.412    
      5000   545.73588      0.0025         0.050178206    0.052767462    0.054340791   -517.43222      578.96189      578.96189      578.96189      1.9406622e+08  2.2408857     -11832473      -11832473       1625.1083     -11830848      -495.22039     -520.77436     -536.30191     -59.631543     -92.667981     -43.525494      15225.202    
      6000   532.86787      0.003          0.056721195    0.059169385    0.060951564   -581.76542      579.25065      579.25065      579.25065      1.9435673e+08  2.237536      -11830864      -11830864       1586.7895     -11829277      -559.79467     -583.95643     -601.54517     -58.720719     -92.64962      -43.010798      15995.448    
      7000   512.55548      0.0035         0.063306645    0.065769565    0.067977984   -648.2579       579.53941      579.53941      579.53941      1.9464754e+08  2.2341931     -11828962      -11828962       1526.3027     -11827436      -624.78801     -649.09514     -670.89054     -60.484718     -93.148671     -44.508103      16024.234    
      8000   491.57335      0.004          0.070043454    0.072478091    0.07492222    -715.33437      579.82817      579.82817      579.82817      1.9493864e+08  2.2308568     -11826758      -11826758       1463.8215     -11825294      -691.27514     -715.30315     -739.42482     -63.768878     -92.343492     -45.632235      16019.695    
      9000   472.90581      0.0045         0.077006228    0.079132207    0.081482469   -781.712        580.11693      580.11693      580.11693      1.9523003e+08  2.2275272     -11824234      -11824234       1408.2327     -11822826      -759.99238     -780.97416     -804.16945     -65.455505     -89.26095      -45.483977      15895.185    
     10000   457.06031      0.005          0.083400317    0.085473712    0.087473344   -843.31729      580.40569      580.40569      580.40569      1.9552171e+08  2.2242042     -11821393      -11821393       1361.0476     -11820032      -823.09713     -843.55995     -863.29478     -63.201687     -86.670919     -44.662202      15990.964    
     11000   443.35773      0.0055         0.089099949    0.09138968     0.09288804    -899.34261      580.69445      580.69445      580.69445      1.9581367e+08  2.2208878     -11818266      -11818266       1320.2436     -11816946      -879.34813     -901.94602     -916.73368     -58.676932     -84.81533      -44.20867       15974.308    
     12000   431.02651      0.006          0.094329611    0.096934511    0.098237416   -952.38601      580.98321      580.98321      580.98321      1.9610593e+08  2.217578      -11814883      -11814883       1283.5233     -11813600      -930.96088     -956.66924     -969.52791     -55.805039     -81.867777     -44.017586      15797.961    
     13000   419.95074      0.0065         0.099448933    0.10229991     0.10377601    -1005.0986      581.27196      581.27196      581.27196      1.9639848e+08  2.2142747     -11811251      -11811251       1250.5416     -11810001      -981.48465     -1009.6216     -1024.1896     -55.268577     -79.837351     -42.575381      15983.335    
     14000   410.55109      0.007          0.10510271     0.10758708     0.10931671    -1059.319       581.56072      581.56072      581.56072      1.9669132e+08  2.210978      -11807371      -11807371       1222.5511     -11806148      -1037.2831     -1061.8019     -1078.8721     -55.667557     -80.231021     -39.058004      15764.467    
     15000   403.27561      0.0075         0.11112708     0.11266629     0.11455885    -1113.0923      581.84948      581.84948      581.84948      1.9698446e+08  2.2076879     -11803249      -11803249       1200.8859     -11802048      -1096.739      -1111.9299     -1130.608      -55.760531     -80.367405     -35.813878      16007.407    
     16000   397.8802       0.008          0.11682897     0.11753916     0.11960538    -1164.4823      582.13824      582.13824      582.13824      1.9727788e+08  2.2044043     -11798890      -11798890       1184.8193     -11797705      -1153.0123     -1160.0213     -1180.4133     -54.745518     -79.193521     -36.3477        16002.035    
     17000   393.57099      0.0085         0.12188629     0.12246106     0.12449796    -1213.4067      582.427        582.427        582.427        1.9757159e+08  2.2011272     -11794298      -11794298       1171.9872     -11793126      -1202.9242     -1208.5967     -1228.6993     -53.403434     -77.420318     -39.561787      15825.548    
     18000   389.67631      0.009          0.12638044     0.12759674     0.12889807    -1259.5616      582.71576      582.71576      582.71576      1.978656e+08   2.1978565     -11789479      -11789479       1160.3895     -11788319      -1247.2779     -1259.2819     -1272.1251     -53.2865       -73.961891     -40.48151       15967.006    
     19000   386.17134      0.0095         0.13067967     0.13266477     0.13313803    -1304.3259      583.00452      583.00452      583.00452      1.9815989e+08  2.1945924     -11784439      -11784439       1149.9523     -11783289      -1289.7081     -1309.2995     -1313.9702     -54.213324     -70.217807     -38.751202      16002.759    
     20000   383.18001      0.01           0.13515806     0.13720861     0.13786297    -1349.5506      583.29328      583.29328      583.29328      1.9845448e+08  2.1913347     -11779188      -11779188       1141.0446     -11778047      -1333.9063     -1354.1437     -1360.6017     -53.339258     -69.188402     -37.394111      15909.104    
     21000   381.05986      0.0105         0.1398095      0.14131907     0.14286165    -1394.8194      583.58204      583.58204      583.58204      1.9874936e+08  2.1880835     -11773737      -11773737       1134.7312     -11772602      -1379.8124     -1394.7108     -1409.9349     -51.432958     -68.04076      -36.14954       16034.8      
     22000   380.34986      0.011          0.14438949     0.14535291     0.14741904    -1438.1493      583.8708       583.8708       583.8708       1.9904454e+08  2.1848387     -11768108      -11768108       1132.6169     -11766976      -1425.0134     -1434.5217     -1454.9128     -50.580933     -64.539201     -33.034757      16174.176    
     23000   380.76116      0.0115         0.14904885     0.14952052     0.15148099    -1480.5506      584.15956      584.15956      584.15956      1.9934e+08     2.1816003     -11762303      -11762303       1133.8417     -11761169      -1470.9978     -1475.6528     -1495.0012     -51.30713      -62.604015     -28.71867       15697.539    
     24000   381.26088      0.012          0.1537948      0.15380022     0.15547361    -1523.3773      584.44831      584.44831      584.44831      1.9963576e+08  2.1783683     -11756302      -11756302       1135.3298     -11755166      -1517.8367     -1517.8902     -1534.4052     -52.222972     -64.683735     -26.626975      16105.308    
     25000   381.35189      0.0125         0.1579227      0.15813414     0.15941589    -1564.1837      584.73707      584.73707      584.73707      1.9993181e+08  2.1751427     -11750099      -11750099       1135.6008     -11748963      -1558.5759     -1560.6626     -1573.3125     -52.757201     -67.756517     -28.161479      16182.765    
     26000   381.5218       0.013          0.16133863     0.16241034     0.16295032    -1601.1162      585.02583      585.02583      585.02583      2.0022815e+08  2.1719234     -11743719      -11743719       1136.1068     -11742583      -1592.2885     -1602.8654     -1608.1946     -51.191513     -66.962684     -29.84035       16027.681    
     27000   382.30313      0.0135         0.16467978     0.16630636     0.16616651    -1635.505       585.31459      585.31459      585.31459      2.0052478e+08  2.1687105     -11737190      -11737190       1138.4334     -11736051      -1625.263      -1641.3161     -1639.9359     -46.667263     -62.21376      -30.014753      16005.682    
     28000   383.62296      0.014          0.16864998     0.16987097     0.16987932    -1672.5068      585.60335      585.60335      585.60335      2.0082171e+08  2.1655039     -11730510      -11730510       1142.3637     -11729368      -1664.4459     -1676.4961     -1676.5785     -42.568019     -57.130388     -30.545232      16019.488    
     29000   385.12144      0.0145         0.17297795     0.17330119     0.1740321     -1711.6909      585.89211      585.89211      585.89211      2.0111893e+08  2.1623037     -11723667      -11723667       1146.8259     -11722520      -1707.1597     -1710.3497     -1717.5633     -42.126592     -54.115119     -30.311324      16058.91     
     30000   386.79659      0.015          0.17666107     0.17652643     0.17753245    -1745.9329      586.18087      586.18087      586.18087      2.0141644e+08  2.1591097     -11716664      -11716664       1151.8142     -11715512      -1743.5092     -1742.1804     -1752.1091     -44.598927     -52.651709     -27.791991      16196.071    
     31000   388.88526      0.0155         0.17959995     0.17951052     0.18049257    -1775.156       586.46963      586.46963      586.46963      2.0171425e+08  2.1559221     -11709520      -11709520       1158.0339     -11708362      -1772.5137     -1771.6311     -1781.3232     -47.597068     -51.006935     -25.049285      16003.814    
     32000   390.85771      0.016          0.18252411     0.18267962     0.18349869    -1805.0906      586.75839      586.75839      586.75839      2.0201235e+08  2.1527407     -11702242      -11702242       1163.9075     -11701079      -1801.3729     -1802.9077     -1810.9913     -48.287942     -50.622458     -24.074674      16038.01     
     33000   392.31285      0.0165         0.18570625     0.18612128     0.18643291    -1836.5341      587.04715      587.04715      587.04715      2.0231074e+08  2.1495655     -11694829      -11694829       1168.2407     -11693661      -1832.7781     -1836.8742     -1839.9498     -45.650035     -52.826347     -23.339499      16030.423    
     34000   393.5887       0.017          0.18893933     0.18941149     0.18924954    -1867.26        587.3359       587.3359       587.3359       2.0260943e+08  2.1463966     -11687279      -11687279       1172.0399     -11686107      -1864.6862     -1869.3461     -1867.7478     -42.023168     -53.094423     -22.351467      16172.654    
     35000   395.13875      0.0175         0.19199312     0.19225718     0.19227739    -1896.6286      587.62466      587.62466      587.62466      2.0290841e+08  2.143234      -11679599      -11679599       1176.6557     -11678422      -1894.8248     -1897.4308     -1897.6303     -40.349371     -50.004605     -22.387931      16029.7      
     36000   397.17872      0.018          0.19491178     0.19493826     0.19536614    -1925.2115      587.91342      587.91342      587.91342      2.0320768e+08  2.1400775     -11671794      -11671794       1182.7304     -11670611      -1923.6297     -1923.891      -1928.1139     -39.129703     -47.470444     -23.105797      16133.032    
     37000   399.74745      0.0185         0.19777701     0.19758894     0.19828015    -1952.9438      588.20218      588.20218      588.20218      2.0350725e+08  2.1369273     -11663876      -11663876       1190.3797     -11662685      -1951.9074     -1950.0512     -1956.8729     -39.135346     -46.19009      -22.955144      16030.007    
     38000   402.41885      0.019          0.20047423     0.2002477      0.20080005    -1978.8535      588.49094      588.49094      588.49094      2.0380712e+08  2.1337832     -11655844      -11655844       1198.3346     -11654646      -1978.5269     -1976.2911     -1981.7424     -42.368323     -45.465368     -21.485354      16212.544    
     39000   404.99426      0.0195         0.20308863     0.20308426     0.20307671    -2004.2754      588.7797       588.7797       588.7797       2.0410727e+08  2.1306453     -11647692      -11647692       1206.0038     -11646486      -2004.329      -2004.2858     -2004.2113     -44.688256     -43.563542     -19.370774      16005.083    
     40000   407.44328      0.02           0.20567328     0.20569964     0.20551758    -2029.412       589.06846      589.06846      589.06846      2.0440773e+08  2.1275135     -11639425      -11639425       1213.2965     -11638212      -2029.8375     -2030.0977     -2028.3008     -42.742983     -41.312652     -18.271165      16202.756    
     41000   409.81849      0.0205         0.20822896     0.20765014     0.20794915    -2052.2354      589.35722      589.35722      589.35722      2.0470847e+08  2.1243879     -11631057      -11631057       1220.3695     -11629837      -2055.0601     -2049.3476     -2052.2985     -38.862826     -41.949862     -17.381012      16036.139    
     42000   411.83774      0.021          0.21074481     0.2095993      0.21045626    -2075.1719      589.64598      589.64598      589.64598      2.0500952e+08  2.1212684     -11622594      -11622594       1226.3825     -11621368      -2079.8896     -2068.5842     -2077.0418     -35.733848     -43.09622      -17.221923      16025.959    
     43000   413.53186      0.0215         0.21307355     0.21197504     0.21275182    -2098.2002      589.93474      589.93474      589.93474      2.0531085e+08  2.118155      -11614029      -11614029       1231.4273     -11612798      -2102.8724     -2092.031      -2099.6972     -35.10744      -41.584594     -18.075006      16204.586    
     44000   415.24305      0.022          0.21500248     0.21444641     0.21469243    -2119.0602      590.2235       590.2235       590.2235       2.0561248e+08  2.1150476     -11605365      -11605365       1236.5229     -11604129      -2121.9095     -2116.4215     -2118.8496     -36.247696     -37.45526      -17.628611      16033.593    
     45000   417.01056      0.0225         0.21661998     0.21685596     0.21651785    -2138.3134      590.51225      590.51225      590.51225      2.0591441e+08  2.1119464     -11596612      -11596612       1241.7862     -11595371      -2137.873      -2140.202      -2136.8651     -38.145399     -33.581451     -16.184518      16035.27     
     46000   418.91962      0.023          0.21826476     0.21890226     0.21829222    -2156.2932      590.80101      590.80101      590.80101      2.0621663e+08  2.1088512     -11587780      -11587780       1247.4711     -11586533      -2154.1057     -2160.3973     -2154.3767     -38.593164     -33.142833     -14.878216      16020.914    
     47000   420.92972      0.0235         0.2203438      0.22068812     0.22028196    -2175.5535      591.08977      591.08977      591.08977      2.0651915e+08  2.1057621     -11578863      -11578863       1253.4568     -11577609      -2174.6242     -2178.0224     -2174.0139     -37.405809     -35.360681     -14.613796      16036.246    
     48000   422.67617      0.024          0.22272344     0.22247237     0.22243175    -2196.3239      591.37853      591.37853      591.37853      2.0682197e+08  2.102679      -11569851      -11569851       1258.6575     -11568592      -2198.1094     -2195.6316     -2195.2307     -35.879768     -35.507834     -14.600538      16057.793    
     49000   424.75156      0.0245         0.22490084     0.22430923     0.22423953    -2215.4769      591.66729      591.66729      591.66729      2.0712508e+08  2.0996019     -11560746      -11560746       1264.8376     -11559482      -2219.5987     -2213.76       -2213.072      -34.20784      -34.147998     -14.531328      16188.612    
     50000   426.9387       0.025          0.22688153     0.2262018      0.22601095    -2234.0465      591.95605      591.95605      591.95605      2.0742848e+08  2.0965308     -11551562      -11551562       1271.3506     -11550291      -2239.1466     -2232.4382     -2230.5546     -33.244768     -32.335557     -15.056273      15496.288    
     51000   428.59771      0.0255         0.22881031     0.22780237     0.22762901    -2250.9801      592.24481      592.24481      592.24481      2.0773218e+08  2.0934657     -11542307      -11542307       1276.2908     -11541030      -2258.1822     -2248.2346     -2246.5236     -31.298979     -29.829506     -15.525003      16024.759    
     52000   430.10133      0.026          0.23038774     0.22920991     0.22886825    -2264.8767      592.53357      592.53357      592.53357      2.0803618e+08  2.0904066     -11532977      -11532977       1280.7683     -11531696      -2273.7502     -2262.1259     -2258.754      -29.024221     -29.227683     -15.422596      15937.024    
     53000   431.88627      0.0265         0.23139909     0.23054622     0.23018651    -2276.9367      592.82233      592.82233      592.82233      2.0834048e+08  2.0873534     -11523586      -11523586       1286.0836     -11522300      -2283.7314     -2275.3143     -2271.7642     -29.707886     -31.151915     -14.693742      15872.604    
     54000   433.65413      0.027          0.23228493     0.23200316     0.23159786    -2289.2868      593.11109      593.11109      593.11109      2.0864507e+08  2.0843061     -11514143      -11514143       1291.348      -11512852      -2292.474      -2289.6931     -2285.6932     -31.950524     -30.183522     -13.350013      16015.045    
     55000   434.82196      0.0275         0.23345432     0.23349772     0.23286584    -2302.2218      593.39984      593.39984      593.39984      2.0894996e+08  2.0812648     -11504640      -11504640       1294.8255     -11503346      -2304.015      -2304.4433     -2298.2071     -31.138551     -26.587381     -11.555625      16014.544    
     56000   435.39115      0.028          0.23507929     0.23484633     0.23411877    -2316.126       593.6886       593.6886       593.6886       2.0925514e+08  2.0782295     -11495066      -11495066       1296.5205     -11493769      -2320.0522     -2317.7531     -2310.5726     -28.799747     -24.863778     -10.153673      16032.493    
     57000   435.82496      0.0285         0.23697667     0.23593417     0.2353877     -2330.121       593.97736      593.97736      593.97736      2.0956062e+08  2.0752        -11485422      -11485422       1297.8123     -11484125      -2338.7779     -2328.4892     -2323.096      -28.130528     -25.112119     -8.7059882      16127.429    
     58000   437.085        0.029          0.23858144     0.23676513     0.23631727    -2341.192       594.26612      594.26612      594.26612      2.098664e+08   2.0721764     -11475724      -11475724       1301.5645     -11474423      -2354.6158     -2336.6902     -2332.2701     -26.984111     -23.766486     -8.9275317      16022.58     
     59000   439.11107      0.0295         0.23960406     0.23781177     0.23732409    -2351.3115      594.55488      594.55488      594.55488      2.1017248e+08  2.0691586     -11465977      -11465977       1307.5978     -11464669      -2364.7082     -2347.0196     -2342.2067     -25.929305     -21.053149     -10.900922      15979.542    
     60000   440.45058      0.03           0.24008351     0.23911884     0.23841746    -2360.7856      594.84364      594.84364      594.84364      2.1047885e+08  2.0661468     -11456185      -11456185       1311.5866     -11454873      -2369.44       -2359.9194     -2352.9974     -27.430993     -19.977234     -12.66672       16007.985    
     61000   440.85413      0.0305         0.24030677     0.2401846      0.23949998    -2368.5874      595.1324       595.1324       595.1324       2.1078552e+08  2.0631407     -11446352      -11446352       1312.7883     -11445039      -2371.6435     -2370.4377     -2363.6811     -28.970282     -19.162089     -13.438274      16185.313    
     62000   441.27872      0.031          0.24093017     0.24081848     0.24025951    -2375.2222      595.42116      595.42116      595.42116      2.1109249e+08  2.0601405     -11436484      -11436484       1314.0527     -11435170      -2377.796      -2376.6936     -2371.177      -27.395608     -18.315428     -12.215582      16012.082    
     63000   442.39036      0.0315         0.24223459     0.24140546     0.24098835    -2383.8421      595.70992      595.70992      595.70992      2.1139976e+08  2.0571461     -11426569      -11426569       1317.363      -11425252      -2390.6696     -2382.4867     -2378.3701     -25.191017     -19.602361     -8.7690915      16173.613    
     64000   443.61528      0.032          0.2437326      0.24234641     0.24208325    -2395.4676      595.99868      595.99868      595.99868      2.1170733e+08  2.0541575     -11416603      -11416603       1321.0106     -11415282      -2405.4537     -2391.7731     -2389.1759     -23.928958     -20.759475     -6.3746017      16030.452    
     65000   444.69218      0.0325         0.24479827     0.24347041     0.24284777    -2405.1861      596.28744      596.28744      596.28744      2.1201519e+08  2.0511747     -11406590      -11406590       1324.2174     -11405266      -2415.9711     -2402.8661     -2396.7211     -24.4035       -18.366078     -6.7027241      15991.35     
     66000   445.95328      0.033          0.24543577     0.24404715     0.24306866    -2409.9073      596.57619      596.57619      596.57619      2.1232335e+08  2.0481977     -11396540      -11396540       1327.9727     -11395212      -2422.2627     -2408.5581     -2398.9012     -25.612717     -14.6579       -7.9878342      16187.457    
     67000   446.81156      0.0335         0.24599477     0.24424226     0.24328899    -2413.113       596.86495      596.86495      596.86495      2.1263181e+08  2.0452264     -11386461      -11386461       1330.5285     -11385130      -2427.7796     -2410.4837     -2401.0757     -25.21732      -12.480909     -9.6401667      15995.189    
     68000   446.7845       0.034          0.24631511     0.24465054     0.24366623    -2416.7509      597.15371      597.15371      597.15371      2.1294057e+08  2.0422609     -11376355      -11376355       1330.4479     -11375024      -2430.9411     -2414.5131     -2404.7987     -22.228888     -12.506882     -9.7800082      15876.843    
     69000   446.19078      0.0345         0.24633665     0.24510381     0.2442836     -2420.344       597.44247      597.44247      597.44247      2.1324963e+08  2.0393011     -11366228      -11366228       1328.6799     -11364899      -2431.1538     -2418.9865     -2410.8917     -19.290024     -12.675047     -8.4114193      15988.23     
     70000   445.94838      0.035          0.24602383     0.24530744     0.24461643    -2421.0797      597.73123      597.73123      597.73123      2.1355898e+08  2.036347      -11356096      -11356096       1327.9581     -11354768      -2428.0665     -2420.9962     -2414.1764     -18.152789     -11.284611     -6.2076178      16174.251    
     71000   446.659        0.0355         0.24591938     0.24545831     0.24502243    -2422.5681      598.01999      598.01999      598.01999      2.1386864e+08  2.0333986     -11345956      -11345956       1330.0742     -11344626      -2427.0356     -2422.4852     -2418.1834     -18.993482     -9.276031      -4.4973708      16020.543    
     72000   447.27196      0.036          0.24661279     0.24616575     0.24595829    -2430.2552      598.30875      598.30875      598.30875      2.1417859e+08  2.030456      -11335781      -11335781       1331.8995     -11334449      -2433.879      -2429.4671     -2427.4196     -22.148836     -7.3594477     -4.1908985      16034.124    
     73000   447.19244      0.0365         0.24766155     0.24703718     0.24658301    -2438.6273      598.59751      598.59751      598.59751      2.1448885e+08  2.0275189     -11325551      -11325551       1331.6627     -11324219      -2444.2294     -2438.0674     -2433.5851     -25.391037     -5.7756075     -3.7450211      16195.392    
     74000   447.41572      0.037          0.24855097     0.24736109     0.24625514    -2441.5403      598.88627      598.88627      598.88627      2.147994e+08   2.0245876     -11315287      -11315287       1332.3276     -11313955      -2453.0074     -2441.2641     -2430.3493     -23.645044     -5.2374339     -4.5416605      16185.102    
     75000   448.06663      0.0375         0.24886909     0.24707823     0.2456805     -2439.7659      599.17503      599.17503      599.17503      2.1511025e+08  2.0216619     -11305026      -11305026       1334.2659     -11303691      -2456.147      -2438.4726     -2424.678      -18.353394     -6.2424819     -7.3642044      16174.931    
     76000   448.47759      0.038          0.24857996     0.24655206     0.24537788    -2436.0882      599.46378      599.46378      599.46378      2.154214e+08   2.0187418     -11294772      -11294772       1335.4897     -11293437      -2453.2935     -2433.2797     -2421.6914     -15.670806     -5.2460694     -8.3092483      15856.841    
     77000   448.29539      0.0385         0.24823335     0.24622512     0.24540833    -2433.9725      599.75254      599.75254      599.75254      2.1573286e+08  2.0158274     -11284520      -11284520       1334.9471     -11283186      -2449.8727     -2430.053      -2421.9919     -17.291503     -2.8733721     -6.4789043      16215.49     
     78000   447.81692      0.039          0.2481368      0.24635362     0.2455567     -2434.5658      600.0413       600.0413       600.0413       2.1604461e+08  2.0129185     -11274262      -11274262       1333.5223     -11272928      -2448.9199     -2431.3212     -2423.4562     -20.271514     -1.519955      -5.2275768      15986.024    
     79000   447.44432      0.0395         0.24803879     0.24686154     0.24567003    -2436.2871      600.33006      600.33006      600.33006      2.1635666e+08  2.0100153     -11263989      -11263989       1332.4128     -11262657      -2447.9525     -2436.334      -2424.5747     -20.366621     -1.4606981     -5.5970279      15919.295    
     80000   447.42926      0.04           0.2476664      0.24722464     0.24570514    -2436.372       600.61882      600.61882      600.61882      2.1666902e+08  2.0071176     -11253701      -11253701       1332.3679     -11252369      -2444.2773     -2439.9175     -2424.9212     -17.657553     -0.84025707    -5.8795516      16045.051    
     81000   447.80852      0.0405         0.24738899     0.24717098     0.24552852    -2434.7018      600.90758      600.90758      600.90758      2.1698167e+08  2.0042255     -11243402      -11243402       1333.4973     -11242069      -2441.5395     -2439.3879     -2423.178      -15.475415     -0.67508604    -5.102933       15662.734    
     82000   448.12461      0.041          0.24729229     0.2465795      0.24518906    -2431.3212      601.19634      601.19634      601.19634      2.1729462e+08  2.001339      -11233112      -11233112       1334.4386     -11231778      -2440.5852     -2433.5505     -2419.8279     -15.598356     -1.1402815     -3.805098       15929.156    
     83000   448.04401      0.0415         0.24705895     0.24562655     0.24487815    -2426.3958      601.4851       601.4851       601.4851       2.1760788e+08  1.998458      -11222841      -11222841       1334.1986     -11221506      -2438.2823     -2424.1456     -2416.7594     -15.530108     -0.11145418    -3.2192586      16127.757    
     84000   447.88292      0.042          0.24672749     0.24479238     0.24448859    -2421.2796      601.77386      601.77386      601.77386      2.1792144e+08  1.9955825     -11212587      -11212587       1333.7189     -11211253      -2435.011      -2415.913      -2412.9148     -14.41575       1.8591802     -3.4845711      15970.88     
     85000   447.60596      0.0425         0.24644425     0.24456448     0.24397487    -2417.908       602.06262      602.06262      602.06262      2.1823529e+08  1.9927125     -11202334      -11202334       1332.8941     -11201001      -2432.2156     -2413.6638     -2407.8447     -12.823006      4.2206025     -3.5926894      16000.549    
     86000   446.91661      0.043          0.24607794     0.24444993     0.24332571    -2414.1906      602.35138      602.35138      602.35138      2.1854945e+08  1.9898481     -11192071      -11192071       1330.8414     -11190740      -2428.6005     -2412.5332     -2401.4381     -11.52167       6.2440058     -3.0540767      16031.943    
     87000   445.84365      0.0435         0.24545844     0.24394468     0.24263895    -2408.2312      602.64013      602.64013      602.64013      2.1886391e+08  1.9869891     -11181818      -11181818       1327.6463     -11180491      -2422.4865     -2407.5468     -2394.6602     -12.274827      7.0547853     -1.8692726      16199.683    
     88000   444.81924      0.044          0.24447809     0.24319148     0.24190568    -2400.116       602.92889      602.92889      602.92889      2.1917867e+08  1.9841356     -11171600      -11171600       1324.5957     -11170275      -2412.8112     -2400.1133     -2387.4235     -13.052685      5.4737789      1.1444831      16058.607    
     89000   444.2886       0.0445         0.24353205     0.24236573     0.24114905    -2391.7981      603.21765      603.21765      603.21765      2.1949373e+08  1.9812875     -11161417      -11161417       1323.0156     -11160094      -2403.4744     -2391.9638     -2379.9561     -11.594784      2.4288235      3.0714117      16011.048    
     90000   443.58866      0.045          0.24305147     0.24162502     0.24068432    -2386.2515      603.50641      603.50641      603.50641      2.198091e+08   1.9784449     -11151251      -11151251       1320.9313     -11149930      -2398.7315     -2384.6535     -2375.3696     -9.9890382      1.4680103      1.5706094      16186.435    
     91000   442.52939      0.0455         0.24246409     0.24091988     0.24025762    -2380.5957      603.79517      603.79517      603.79517      2.2012476e+08  1.9756078     -11141088      -11141088       1317.777      -11139771      -2392.9345     -2377.6943     -2371.1584     -8.9320593      3.6354781     -1.242794       16018.732    
     92000   442.17576      0.046          0.24150916     0.24027255     0.23933531    -2372.2906      604.08393      604.08393      604.08393      2.2044073e+08  1.972776      -11130940      -11130940       1316.7239     -11129623      -2383.5101     -2371.3057     -2362.0559     -8.9924619      6.362393      -3.0862798      16007.521    
     93000   442.27222      0.0465         0.24080417     0.23964213     0.23852158    -2365.2204      604.37269      604.37269      604.37269      2.20757e+08    1.9699497     -11120825      -11120825       1317.0111     -11119508      -2376.5524     -2365.0839     -2354.025      -8.7107638      8.5585271     -2.9177356      16190.072    
     94000   441.99722      0.047          0.24033652     0.23884842     0.23800961    -2359.3866      604.66145      604.66145      604.66145      2.2107358e+08  1.9671288     -11110735      -11110735       1316.1923     -11109419      -2371.937      -2357.2506     -2348.9723     -7.1823285      10.932079     -0.95502747     16001.263    
     95000   441.3049       0.0475         0.23985487     0.23808699     0.23763033    -2354.0495      604.95021      604.95021      604.95021      2.2139045e+08  1.9643132     -11100658      -11100658       1314.1306     -11099344      -2367.1836     -2349.7359     -2345.2291     -5.7720781      12.577588     -0.20803735     16025.287    
     96000   440.29488      0.048          0.23929978     0.23720514     0.23690955    -2346.9511      605.23897      605.23897      605.23897      2.2170763e+08  1.9615031     -11090598      -11090598       1311.123      -11089287      -2361.7052     -2341.0327     -2338.1155     -4.771255       13.066826     -0.53441482     16185.715    
     97000   439.59469      0.0485         0.23834245     0.23612742     0.23569436    -2336.2587      605.52772      605.52772      605.52772      2.2202511e+08  1.9586983     -11080569      -11080569       1309.0379     -11079259      -2352.2571     -2330.3965     -2326.1225     -5.7874148      11.579284      0.19189337     15943.545    
     98000   439.19396      0.049          0.2368549      0.23517563     0.23424438    -2323.4638      605.81648      605.81648      605.81648      2.223429e+08   1.9558988     -11070581      -11070581       1307.8446     -11069274      -2337.5761     -2321.003      -2311.8123     -7.4432032      8.9043105      1.0203039      16169.028    
     99000   438.49062      0.0495         0.23518178     0.23427536     0.23290859    -2310.6036      606.10524      606.10524      606.10524      2.2266098e+08  1.9531046     -11060640      -11060640       1305.7502     -11059334      -2321.0637     -2312.118      -2298.6291     -7.0414612      7.8361859      0.44142951     16005.346    
    100000   437.3748       0.05           0.23378846     0.23310746     0.23188562    -2298.8126      606.394        606.394        606.394        2.2297937e+08  1.9503158     -11050749      -11050749       1302.4275     -11049446      -2307.3127     -2300.5918     -2288.5332     -5.2078316      10.692271     -0.5279756      15407.023    
    101000   436.15252      0.0505         0.23283374     0.23176152     0.23099196    -2288.304       606.68276      606.68276      606.68276      2.2329807e+08  1.9475323     -11040900      -11040900       1298.7877     -11039602      -2297.8903     -2287.3083     -2279.7134     -3.8897662      14.292135      0.91454893     15986.108    
    102000   434.75846      0.051          0.23249813     0.23089503     0.23002863    -2281.1803      606.97152      606.97152      606.97152      2.2361706e+08  1.9447541     -11031071      -11031071       1294.6365     -11029777      -2294.5782     -2278.7568     -2270.2061     -3.4644828      15.852751      3.3044626      16169.517    
    103000   432.97825      0.0515         0.23214599     0.23024927     0.22902547    -2274.5974      607.26028      607.26028      607.26028      2.2393637e+08  1.9419811     -11021249      -11021249       1289.3353     -11019960      -2291.1028     -2272.3836     -2260.3057     -2.9193594      16.859269      4.5754681      16014.501    
    104000   431.35269      0.052          0.23118654     0.22939565     0.2279826     -2265.202       607.54904      607.54904      607.54904      2.2425597e+08  1.9392135     -11011446      -11011446       1284.4947     -11010161      -2281.6337     -2263.9591     -2250.0133     -2.9642029      16.689451      3.1642808      16033.165    
    105000   430.46754      0.0525         0.22960063     0.22809158     0.22674097    -2251.6101      607.8378       607.8378       607.8378       2.2457588e+08  1.9364511     -11001694      -11001694       1281.8588     -11000412      -2265.9821     -2251.0888     -2237.7594     -4.1321462      15.604348      1.0494375      16200.316    
    106000   430.31518      0.053          0.22802301     0.22642632     0.22554476    -2237.0066      608.12656      608.12656      608.12656      2.2489609e+08  1.9336939     -10992010      -10992010       1281.4051     -10990728      -2250.4121     -2234.6541     -2225.9537     -3.6465649      15.044691      0.36618714     16016.486    
    107000   430.01632      0.0535         0.22686274     0.22499965     0.22459716    -2225.3789      608.41532      608.41532      608.41532      2.2521661e+08  1.930942      -10982381      -10982381       1280.5152     -10981101      -2238.9612     -2220.5739     -2216.6016     -1.7454834      13.97195       0.73499759     16181.593    
    108000   428.88073      0.054          0.2258397      0.22395251     0.22369404    -2215.5975      608.70407      608.70407      608.70407      2.2553743e+08  1.9281952     -10972778      -10972778       1277.1336     -10971501      -2228.8645     -2210.2395     -2207.6885     -1.4819824      13.045446      0.6312049      16028.018    
    109000   427.4896       0.0545         0.22457816     0.22285959     0.2224579     -2203.7854      608.99283      608.99283      608.99283      2.2585856e+08  1.9254537     -10963201      -10963201       1272.991      -10961928      -2216.4142     -2199.4532     -2195.4888     -3.0893923      12.597991      0.39283208     16221.439    
    110000   426.39466      0.055          0.22316145     0.22176993     0.22130991    -2191.7634      609.28159      609.28159      609.28159      2.2617999e+08  1.9227174     -10953673      -10953673       1269.7305     -10952404      -2202.4323     -2188.699      -2184.159      -3.7140167      12.719967      1.0911009      16020.028    
    111000   424.95517      0.0555         0.22199843     0.22085342     0.22044202    -2182.0672      609.57035      609.57035      609.57035      2.2650172e+08  1.9199863     -10944184      -10944184       1265.4439     -10942918      -2190.9542     -2179.6538     -2175.5936     -1.5990112      13.495782      3.2955707      16214.887    
    112000   423.58272      0.056          0.22078963     0.21988946     0.21935859    -2171.3551      609.85911      609.85911      609.85911      2.2682376e+08  1.9172603     -10934724      -10934724       1261.357      -10933462      -2179.0242     -2170.1402     -2164.901       1.9284611      15.664735      5.504223       16007.145    
    113000   422.58421      0.0565         0.21930035     0.21860159     0.21788093    -2157.3579      610.14787      610.14787      610.14787      2.2714611e+08  1.9145395     -10925313      -10925313       1258.3836     -10924055      -2164.3262     -2157.4299     -2150.3176      4.6715996      17.218589      4.9493644      16197.044    
    114000   421.53632      0.057          0.21768351     0.21687294     0.21596227    -2140.0402      610.43663      610.43663      610.43663      2.2746876e+08  1.9118239     -10915966      -10915966       1255.2632     -10914711      -2148.3692     -2140.3695     -2131.3819      5.576025       17.077562      2.8531764      16027.973    
    115000   420.18093      0.0575         0.21618727     0.21502994     0.2141776     -2123.1838      610.72539      610.72539      610.72539      2.2779171e+08  1.9091133     -10906682      -10906682       1251.2271     -10905431      -2133.6025     -2122.1805     -2113.7685      4.4583392      15.585401      0.09243919     16010.873    
    116000   418.39477      0.058          0.21501314     0.21348664     0.21307578    -2110.6195      611.01415      611.01415      611.01415      2.2811498e+08  1.9064079     -10897452      -10897452       1245.9082     -10896206      -2122.0147     -2106.9493     -2102.8945      2.7165751      13.695099     -1.5028214      16020.241    
    117000   416.66497      0.0585         0.21422476     0.21217236     0.21225045    -2100.9872      611.30291      611.30291      611.30291      2.2843854e+08  1.9037076     -10888262      -10888262       1240.7571     -10887022      -2114.234      -2093.9784     -2094.7491      0.47563659     12.379983     -0.59142587     16011.298    
    118000   415.26869      0.059          0.21341919     0.21102203     0.21149453    -2092.066       611.59166      611.59166      611.59166      2.2876242e+08  1.9010124     -10879110      -10879110       1236.5993     -10877873      -2106.2836     -2082.6255     -2087.2887     -0.87425246     13.183649      0.29574538     16176.639    
    119000   414.10983      0.0595         0.21198184     0.21009896     0.21059272    -2081.3341      611.88042      611.88042      611.88042      2.2908659e+08  1.8983223     -10869990      -10869990       1233.1484     -10868757      -2092.0981     -2073.5155     -2078.3885     -0.28822632     15.421061     -1.6986101      15991.565    
    120000   412.7034       0.06           0.21008873     0.20929398     0.20925467    -2068.0562      612.16918      612.16918      612.16918      2.2941108e+08  1.8956373     -10860902      -10860902       1228.9602     -10859673      -2073.4146     -2065.571      -2065.183       1.0452943      15.636543     -3.6990749      16120.223    
    121000   411.0349       0.0605         0.20832301     0.20833637     0.20745253    -2053.1686      612.45794      612.45794      612.45794      2.2973587e+08  1.8929573     -10851856      -10851856       1223.9917     -10850632      -2055.9883     -2056.1201     -2047.3973      2.4692461      14.01715      -1.7225129      16075.972    
    122000   410.02302      0.061          0.20671611     0.20683865     0.20564184    -2036.9984      612.7467       612.7467       612.7467       2.3006097e+08  1.8902824     -10842872      -10842872       1220.9785     -10841651      -2040.1293     -2041.3388     -2029.5271      6.3315993      12.763784      2.3940828      16029.091    
    123000   409.59894      0.0615         0.20542375     0.20494896     0.2044205     -2022.5124      613.03546      613.03546      613.03546      2.3038637e+08  1.8876125     -10833961      -10833961       1219.7157     -10832741      -2027.3747     -2022.6889     -2017.4735      10.728031      12.14056       3.2247086      16165.763    
    124000   408.61353      0.062          0.20457736     0.20339229     0.2036523     -2012.0798      613.32422      613.32422      613.32422      2.3071208e+08  1.8849476     -10825099      -10825099       1216.7813     -10823882      -2019.0215     -2007.3259     -2009.8919      10.553215      12.112724     -0.6340263      16030.193    
    125000   406.7042       0.0625         0.20385618     0.20228334     0.20269212    -2002.9004      613.61298      613.61298      613.61298      2.310381e+08   1.8822878     -10816270      -10816270       1211.0957     -10815059      -2011.9041     -1996.3814     -2000.4156      6.389461       11.749921     -2.5531402      16160.418    
    126000   404.54037      0.063          0.20271515     0.20109113     0.20137115    -1990.8789      613.90174      613.90174      613.90174      2.3136443e+08  1.8796329     -10807478      -10807478       1204.6522     -10806274      -2000.643      -1984.6152     -1987.3787      4.0032635      12.350716     -2.3201757      16179.735    
    127000   402.54321      0.0635         0.2011153      0.19969467     0.19991323    -1976.2257      614.1905       614.1905       614.1905       2.3169106e+08  1.8769831     -10798731      -10798731       1198.7049     -10797533      -1984.8537     -1970.8331     -1972.9902      4.9918357      13.873706     -4.3044954      16198.504    
    128000   401.03335      0.064          0.19933399     0.19829929     0.19838383    -1960.7439      614.47926      614.47926      614.47926      2.32018e+08    1.8743382     -10790033      -10790033       1194.2088     -10788839      -1967.2735     -1957.0619     -1957.8962      6.8386013      14.012423     -6.2927955      15899.373    
    129000   399.88011      0.0645         0.19776326     0.19723611     0.19705214    -1947.698       614.76801      614.76801      614.76801      2.3234525e+08  1.8716983     -10781385      -10781385       1190.7747     -10780194      -1951.7716     -1946.5691     -1944.7534      8.1126384      12.500889     -4.676562       16168.575    
    130000   398.79201      0.065          0.1965014      0.19638422     0.19593229    -1937.0603      615.05677      615.05677      615.05677      2.326728e+08   1.8690633     -10772783      -10772783       1187.5345     -10771596      -1939.318      -1938.1616     -1933.7014      9.9185028      11.868365     -1.3769344      16031.96     
    131000   397.9437       0.0655         0.19546477     0.19529477     0.1948554     -1926.5234      615.34553      615.34553      615.34553      2.3300066e+08  1.8664333     -10764230      -10764230       1185.0084     -10763045      -1929.0873     -1927.4095     -1923.0733      11.519476      10.848771     -0.11470682     15861.5      
    132000   396.95361      0.066          0.1945497      0.19396923     0.19400983    -1916.3706      615.63429      615.63429      615.63429      2.3332883e+08  1.8638082     -10755718      -10755718       1182.0601     -10754536      -1920.0563     -1914.3274     -1914.7282      10.956146      9.5336743     -2.1743217      15921.448    
    133000   395.41664      0.0665         0.19353329     0.19254874     0.19294391    -1904.8473      615.92305      615.92305      615.92305      2.3365731e+08  1.8611881     -10747241      -10747241       1177.4832     -10746064      -1910.0251     -1900.3083     -1904.2083      8.1043267      8.0157296     -3.6178299      16177.923    
    134000   394.02781      0.067          0.19216125     0.19094435     0.19143255    -1890.0835      616.21181      616.21181      616.21181      2.339861e+08   1.8585728     -10738808      -10738808       1173.3475     -10737635      -1896.484      -1884.4742     -1889.2923      5.5758604      6.7975251     -4.3516611      15960.701    
    135000   392.86302      0.0675         0.19048176     0.1895284      0.18998475    -1875.1374      616.50057      616.50057      616.50057      2.3431519e+08  1.8559625     -10730433      -10730433       1169.879      -10729263      -1879.9088     -1870.4998     -1875.0037      5.3335443      7.9365566     -6.2494412      16027.241    
    136000   391.39772      0.068          0.18897747     0.18844275     0.18885394    -1862.8971      616.78933      616.78933      616.78933      2.3464459e+08  1.853357      -10722105      -10722105       1165.5156     -10720940      -1865.0626     -1859.7854     -1863.8435      6.3788639      9.8702848     -8.3242475      16129.707    
    137000   389.76081      0.0685         0.18791592     0.18734772     0.18769261    -1851.9821      617.07809      617.07809      617.07809      2.349743e+08   1.8507564     -10713818      -10713818       1160.6411     -10712657      -1854.5859     -1848.9782     -1852.382       7.1262251      9.874712      -8.306545       16088.089    
    138000   388.51756      0.069          0.18694        0.18620128     0.1863727     -1840.6579      617.36685      617.36685      617.36685      2.3530432e+08  1.8481607     -10705579      -10705579       1156.939      -10704422      -1844.9544     -1837.6638     -1839.3555      8.5771957      8.7872114     -7.9175304      16013.504    
    139000   387.23527      0.0695         0.18605106     0.18500217     0.18531886    -1830.3219      617.6556       617.6556       617.6556       2.3563465e+08  1.8455698     -10697385      -10697385       1153.1205     -10696232      -1836.1812     -1825.8295     -1828.9549      10.458414      6.9425957     -7.7065924      15997.918    
    140000   385.6641       0.07           0.18519723     0.18370853     0.18435956    -1820.1014      617.94436      617.94436      617.94436      2.3596529e+08  1.8429838     -10689223      -10689223       1148.4418     -10688075      -1827.7546     -1813.0623     -1819.4873      11.072442      4.7912376     -5.581837       16181.827    
    141000   384.00825      0.0705         0.18413619     0.18241302     0.18329951    -1808.8617      618.23312      618.23312      618.23312      2.3629624e+08  1.8404025     -10681093      -10681093       1143.511      -10679949      -1817.2829     -1800.2765     -1809.0255      9.5130048      3.7989563     -3.8144942      16020.975    
    142000   382.25556      0.071          0.18275707     0.18127077     0.18220435    -1796.9642      618.52188      618.52188      618.52188      2.3662749e+08  1.8378262     -10673000      -10673000       1138.2918     -10671862      -1803.672      -1789.0035     -1798.2171      7.5992736      4.6569424     -3.7832714      16190.169    
    143000   380.71163      0.0715         0.18120916     0.1803374      0.18115397    -1785.3459      618.81064      618.81064      618.81064      2.3695906e+08  1.8352546     -10664949      -10664949       1133.6942     -10663815      -1788.3953     -1779.7918     -1787.8507      6.6357491      6.1125836     -4.899226       16035.469    
    144000   380.00339      0.072          0.1798897      0.17946503     0.18004039    -1774.472       619.0994       619.0994       619.0994       2.3729094e+08  1.8326878     -10656942      -10656942       1131.5852     -10655810      -1775.3733     -1771.1822     -1776.8605      5.4463353      6.5468304     -6.7407115      16175.712    
    145000   379.76387      0.0725         0.17901348     0.17848478     0.17906528    -1765.1568      619.38816      619.38816      619.38816      2.3762312e+08  1.8301258     -10648981      -10648981       1130.8719     -10647850      -1766.7257     -1761.5078     -1767.2369      4.2735646      5.1406728     -9.0448764      16015.364    
    146000   378.68362      0.073          0.17832226     0.17743473     0.17827627    -1756.8329      619.67692      619.67692      619.67692      2.3795562e+08  1.8275685     -10641054      -10641054       1127.6552     -10639926      -1759.9039     -1751.1446     -1759.45        5.7538365      3.153889      -10.972269      16199.807    
    147000   376.48445      0.0735         0.17746797     0.17645576     0.17729934    -1747.588       619.96568      619.96568      619.96568      2.3828842e+08  1.8250161     -10633151      -10633151       1121.1064     -10632030      -1751.4726     -1741.483      -1749.8084      8.8083635      2.5668564     -10.643058      15981.467    
    148000   374.29652      0.074          0.17637207     0.17538282     0.17605545    -1736.361       620.25444      620.25444      620.25444      2.3862154e+08  1.8224684     -10625273      -10625273       1114.5911     -10624159      -1740.657      -1730.8938     -1737.5322      11.255226      3.3662047     -8.0205066      16093.402    
    149000   372.84539      0.0745         0.17531077     0.17415756     0.17466406    -1724.2615      620.5432       620.5432       620.5432       2.3895496e+08  1.8199254     -10617430      -10617430       1110.2699     -10616320      -1730.1828     -1718.8014     -1723.8003      10.837089      3.8549029     -5.041097       16012.35     
    150000   371.8433       0.075          0.17417695     0.17272007     0.17344212    -1711.7827      620.83195      620.83195      620.83195      2.392887e+08   1.8173871     -10609642      -10609642       1107.2858     -10608535      -1718.9929     -1704.6146     -1711.7406      8.1336645      3.8247526     -3.5315912      15137.79     
    151000   370.91225      0.0755         0.17283739     0.17137798     0.17246036    -1699.731       621.12071      621.12071      621.12071      2.3962274e+08  1.8148536     -10601912      -10601912       1104.5133     -10600808      -1705.7724     -1691.3692     -1702.0514      5.4226586      3.5357132     -4.3076328      16080.442    
    152000   369.74234      0.076          0.17165548     0.17048501     0.17170735    -1690.4279      621.40947      621.40947      621.40947      2.399571e+08   1.8123248     -10594223      -10594223       1101.0296     -10593122      -1694.1079     -1682.5562     -1694.6198      5.4232281      2.7879091     -5.9017203      15976.422    
    153000   368.56727      0.0765         0.17096235     0.17004841     0.17094839    -1684.2147      621.69823      621.69823      621.69823      2.4029177e+08  1.8098006     -10586555      -10586555       1097.5304     -10585457      -1687.2672     -1678.2473     -1687.1295      7.2768854      1.7818585     -6.7736802      16021.315    
    154000   367.65172      0.077          0.17057905     0.16965801     0.1700743     -1678.7939      621.98699      621.98699      621.98699      2.4062675e+08  1.8072812     -10578900      -10578900       1094.804      -10577805      -1683.4843     -1674.3944     -1678.5029      8.9411767      0.6252046     -7.6262483      16179.336    
    155000   367.44286      0.0775         0.17003781     0.16889083     0.16924946    -1671.776       622.27575      622.27575      622.27575      2.4096204e+08  1.8047664     -10571265      -10571265       1094.1821     -10570171      -1678.1428     -1666.8229     -1670.3623      8.5534675      1.3649268     -8.1594312      16172.157    
    156000   367.45339      0.078          0.16939049     0.16797934     0.16871136    -1664.8777      622.56451      622.56451      622.56451      2.4129764e+08  1.8022563     -10563656      -10563656       1094.2135     -10562562      -1671.7541     -1657.8272     -1665.0517      5.7042047      3.3504231     -8.5224331      16170.499    
    157000   366.68409      0.0785         0.16853869     0.16723057     0.16804677    -1657.4259      622.85327      622.85327      622.85327      2.4163355e+08  1.7997509     -10556072      -10556072       1091.9226     -10554981      -1663.3475     -1650.4374     -1658.4927      4.2035207      4.8909729     -8.0271813      15996.231    
    158000   365.25392      0.079          0.16728444     0.16646688     0.16720743    -1648.0261      623.14203      623.14203      623.14203      2.4196978e+08  1.7972501     -10548516      -10548516       1087.6638     -10547429      -1650.9691     -1642.9003     -1650.209       5.3658423      4.1118029     -6.160416       16008.657    
    159000   363.40501      0.0795         0.16597746     0.16543482     0.1664558     -1637.8587      623.43079      623.43079      623.43079      2.4230632e+08  1.7947539     -10540995      -10540995       1082.1581     -10539912      -1638.0702     -1632.7147     -1642.791       6.2633211      2.1127481     -4.6076249      15975.101    
    160000   361.45594      0.08           0.16497974     0.1643119      0.16532995    -1627.1785      623.71954      623.71954      623.71954      2.4264316e+08  1.7922623     -10533509      -10533509       1076.3541     -10532433      -1628.2234     -1621.6324     -1631.6797      5.3965668      0.54594634    -4.5494959      16162.207    
    161000   359.85147      0.0805         0.1642242      0.16332764     0.16394015    -1616.8829      624.0083       624.0083       624.0083       2.4298032e+08  1.7897754     -10526066      -10526066       1071.5762     -10524994      -1620.7668     -1611.9185     -1617.9634      3.7830002     -0.36949757    -5.0629195      15995.687    
    162000   358.72419      0.081          0.16361628     0.16248037     0.16289469    -1608.6564      624.29706      624.29706      624.29706      2.433178e+08   1.787293      -10518652      -10518652       1068.2194     -10517584      -1614.7672     -1603.5565     -1607.6456      3.0301551     -1.266508      -5.3743933      15897.272    
    163000   358.06587      0.0815         0.16313412     0.16167262     0.16237256    -1602.6953      624.58582      624.58582      624.58582      2.4365558e+08  1.7848153     -10511256      -10511256       1066.259      -10510190      -1610.0086     -1595.5847     -1602.4926      3.8220842     -1.3470202     -5.8587177      16158.857    
    164000   357.86213      0.082          0.16249743     0.16089257     0.16203069    -1596.9099      624.87458      624.87458      624.87458      2.4399368e+08  1.7823421     -10503878      -10503878       1065.6523     -10502813      -1603.7249     -1587.8862     -1599.1186      4.9886716     -1.0439376     -5.7099033      15920.163    
    165000   357.65408      0.0825         0.16144198     0.16023916     0.16169151    -1590.1724      625.16334      625.16334      625.16334      2.4433209e+08  1.7798735     -10496529      -10496529       1065.0328     -10495464      -1593.3085     -1581.4375     -1595.7711      5.2266555     -1.0403719     -5.8769805      15996.673    
    166000   357.10301      0.083          0.16021759     0.15962075     0.16119326    -1582.4709      625.4521       625.4521       625.4521       2.4467081e+08  1.7774094     -10489213      -10489213       1063.3918     -10488149      -1581.2247     -1575.3343     -1590.8537      4.6755619     -0.028019734   -7.4260975      16182.313    
    167000   356.51682      0.0835         0.15937133     0.15895561     0.16032224    -1574.6334      625.74086      625.74086      625.74086      2.4500985e+08  1.7749499     -10481922      -10481922       1061.6462     -10480861      -1572.8727     -1568.7699     -1582.2575      4.3995784      1.6400903     -9.2056654      16008.868    
    168000   355.94692      0.084          0.15902595     0.15824493     0.15926661    -1567.6865      626.02962      626.02962      626.02962      2.453492e+08   1.7724949     -10474650      -10474650       1059.9491     -10473590      -1569.4641     -1561.7561     -1571.8392      4.1621855      2.3744676     -9.2367701      16156.734    
    169000   355.17244      0.0845         0.15866105     0.15749225     0.15840997    -1561.1918      626.31838      626.31838      626.31838      2.4568886e+08  1.7700444     -10467398      -10467398       1057.6429     -10466340      -1565.8629     -1554.3277     -1563.3848      3.8800093      2.2349526     -6.2833274      15993.551    
    170000   354.31053      0.085          0.15805297     0.15659388     0.15764576    -1553.7219      626.60714      626.60714      626.60714      2.4602883e+08  1.7675985     -10460178      -10460178       1055.0763     -10459123      -1559.8615     -1545.4614     -1555.8427      3.5197757      2.1319242     -2.3218598      16163.332    
    171000   353.44834      0.0855         0.15753087     0.15575117     0.15697577    -1547.0279      626.89589      626.89589      626.89589      2.4636912e+08  1.7651571     -10452982      -10452982       1052.5088     -10451929      -1554.7088     -1537.1445     -1549.2304      1.9228624      1.1307971     -0.7533559      16153.229    
    172000   352.2231       0.086          0.15695387     0.15521357     0.15635427    -1541.3166      627.18465      627.18465      627.18465      2.4670972e+08  1.7627201     -10445802      -10445802       1048.8603     -10444753      -1549.0142     -1531.8388     -1543.0967     -0.014650769   -0.53951581    -1.4569013      16170.031    
    173000   350.92982      0.0865         0.15621673     0.15494874     0.15557396    -1535.4534      627.47341      627.47341      627.47341      2.4705064e+08  1.7602877     -10438639      -10438639       1045.0091     -10437594      -1541.7393     -1529.2251     -1535.3956     -0.91402055    -1.294         -2.9241618      15981.43     
    174000   350.04057      0.087          0.15543243     0.15468069     0.15484758    -1529.6018      627.76217      627.76217      627.76217      2.4739187e+08  1.7578597     -10431491      -10431491       1042.3611     -10430449      -1533.9989     -1526.5797     -1528.2268     -0.85994084    -1.0563581     -3.4436964      16149.048    
    175000   349.72507      0.0875         0.15462547     0.15409853     0.15436781    -1523.4536      628.05093      628.05093      628.05093      2.4773342e+08  1.7554362     -10424368      -10424368       1041.4215     -10423327      -1526.0347     -1520.8343     -1523.4918      0.18635457    -0.53923283    -2.7097432      15986.875    
    176000   349.37476      0.088          0.15381315     0.15335199     0.15413045    -1517.5445      628.33969      628.33969      628.33969      2.4807527e+08  1.7530171     -10417271      -10417271       1040.3784     -10416231      -1518.0178     -1513.4665     -1521.1492      2.2646332     -0.69186529    -2.82           15840.628    
    177000   348.72288      0.0885         0.15324268     0.15265133     0.15362322    -1511.6942      628.62845      628.62845      628.62845      2.4841745e+08  1.7506025     -10410192      -10410192       1038.4372     -10409154      -1512.3877     -1506.5515     -1516.1433      4.6579384      0.66105655    -4.4785039      16013.032    
    178000   348.15779      0.089          0.15296647     0.1520911      0.15289456    -1506.5454      628.91721      628.91721      628.91721      2.4875993e+08  1.7481923     -10403125      -10403125       1036.7544     -10402089      -1509.6617     -1501.0224     -1508.952       5.5289833      2.9763671     -6.7000614      16091.762    
    179000   347.53303      0.0895         0.15264578     0.15170552     0.15223741    -1502.0601      629.20597      629.20597      629.20597      2.4910274e+08  1.7457865     -10396066      -10396066       1034.894      -10395032      -1506.4968     -1497.2171     -1502.4664      3.9823159      3.6993519     -7.4820221      15970.965    
    180000   347.07147      0.09           0.15185928     0.15112603     0.15142808    -1494.9038      629.49473      629.49473      629.49473      2.4944585e+08  1.7433852     -10389029      -10389029       1033.5196     -10387995      -1498.7345     -1491.4979     -1494.4789      2.037427       2.3106082     -5.7398572      15922.542    
    181000   347.04301      0.0905         0.15106179     0.15036558     0.15071423    -1487.4302      629.78348      629.78348      629.78348      2.4978928e+08  1.7409882     -10382026      -10382026       1033.4348     -10380992      -1490.864      -1483.9929     -1487.4338      0.85333896     0.14170837    -2.2636301      16142.844    
    182000   346.76194      0.091          0.15080392     0.14970807     0.15047985    -1483.6478      630.07224      630.07224      630.07224      2.5013303e+08  1.7385956     -10375046      -10375046       1032.5978     -10374013      -1488.319      -1477.5038     -1485.1207     -0.27453495    -1.8277162      1.1059611      15995.529    
    183000   346.10987      0.0915         0.15056305     0.14918241     0.15031484    -1480.5833      630.361        630.361        630.361        2.5047709e+08  1.7362075     -10368073      -10368073       1030.6561     -10367042      -1485.9418     -1472.3159     -1483.4921     -1.6571198     -1.7998961      4.0790846      15878.743    
    184000   345.5272       0.092          0.14993423     0.14871054     0.14975256    -1475.1125      630.64976      630.64976      630.64976      2.5082147e+08  1.7338237     -10361108      -10361108       1028.921      -10360079      -1479.7358     -1467.6589     -1477.9428     -2.1179833      0.57686342     4.0469296      15984.188    
    185000   344.81791      0.0925         0.14914335     0.14821288     0.14894469    -1468.2159      630.93852      630.93852      630.93852      2.5116616e+08  1.7314442     -10354158      -10354158       1026.8089     -10353132      -1471.9304     -1462.7474     -1469.9698     -0.88609926     1.6270472     -0.32780236     15989.788    
    186000   344.25142      0.093          0.14836619     0.14760721     0.14816448    -1461.1         631.22728      631.22728      631.22728      2.5151117e+08  1.7290691     -10347232      -10347232       1025.1219     -10346207      -1464.2604     -1456.7699     -1462.2697      1.5162608      0.94881338    -5.1658764      16148.213    
    187000   344.04795      0.0935         0.14759763     0.14704628     0.14740066    -1454.2136      631.51604      631.51604      631.51604      2.518565e+08   1.7266984     -10340342      -10340342       1024.5161     -10339317      -1456.6754     -1451.2339     -1454.7314      3.1598228      0.92188447    -6.2284362      15990.063    
    188000   343.99037      0.094          0.14689187     0.14665963     0.14658195    -1447.9265      631.8048       631.8048       631.8048       2.5220214e+08  1.7243319     -10333480      -10333480       1024.3446     -10332455      -1449.7101     -1447.418      -1446.6514      3.6039904      2.2170305     -4.9729969      16000.954    
    189000   343.58546      0.0945         0.14657785     0.14616855     0.14606732    -1443.5849      632.09356      632.09356      632.09356      2.5254809e+08  1.7219698     -10326634      -10326634       1023.1388     -10325610      -1446.6109     -1442.5714     -1441.5723      1.835599       3.2331472     -3.7641015      16151.948    
    190000   342.68799      0.095          0.14655449     0.14566591     0.14594696    -1441.4586      632.38232      632.38232      632.38232      2.5289436e+08  1.7196121     -10319789      -10319789       1020.4663     -10318769      -1446.3804     -1437.6108     -1440.3845     -0.98342137     1.9120399     -1.8977376      15975.012    
    191000   341.95114      0.0955         0.14640481     0.14528894     0.14577188    -1439.15        632.67108      632.67108      632.67108      2.5324095e+08  1.7172586     -10312946      -10312946       1018.2721     -10311927      -1444.9031     -1433.8904     -1438.6566     -2.1158483     -0.16652452     0.17473273     15988.854    
    192000   341.66519      0.096          0.1460677      0.14506561     0.14542421    -1436.1626      632.95983      632.95983      632.95983      2.5358786e+08  1.7149094     -10306108      -10306108       1017.4206     -10305090      -1441.5761     -1431.6862     -1435.2254     -1.5919416     -1.3008307      0.21066523     16037.698    
    193000   341.28811      0.0965         0.1455286      0.14450651     0.14499018    -1431.1219      633.24859      633.24859      633.24859      2.5393508e+08  1.7125645     -10299281      -10299281       1016.2977     -10298264      -1436.2556     -1426.1683     -1430.9418     -1.088411      -2.6359909     -1.3372059      16137.229    
    194000   340.93072      0.097          0.14467249     0.14367663     0.14441605    -1423.6867      633.53735      633.53735      633.53735      2.5428262e+08  1.7102238     -10292476      -10292476       1015.2335     -10291461      -1427.8065     -1417.9781     -1425.2756     -0.54940684    -2.1740015     -2.1613647      16045.658    
    195000   340.83978      0.0975         0.14376612     0.14317673     0.14358653    -1416.3315      633.82611      633.82611      633.82611      2.5463047e+08  1.7078875     -10285707      -10285707       1014.9627     -10284692      -1418.8613     -1413.0444     -1417.0888      0.12444451     0.49942114    -1.6509213      15998.404    
    196000   340.78205      0.098          0.1431442      0.14290887     0.14270473    -1410.5035      634.11487      634.11487      634.11487      2.5497865e+08  1.7055554     -10278969      -10278969       1014.7908     -10277954      -1412.7234     -1410.4009     -1408.3862      0.33971852     2.0455499     -1.2478638      15392.061    
    197000   340.42146      0.0985         0.14280346     0.14245693     0.14225261    -1406.4084      634.40363      634.40363      634.40363      2.5532714e+08  1.7032275     -10272240      -10272240       1013.717      -10271226      -1409.3606     -1405.9406     -1403.9241      0.4766777      2.5124516     -2.339164       15993.283    
    198000   339.78         0.099          0.14262243     0.14195051     0.14214744    -1403.8009      634.69239      634.69239      634.69239      2.5567595e+08  1.7009038     -10265515      -10265515       1011.8068     -10264503      -1407.5739     -1400.9426     -1402.8861      0.49044592     2.8620014     -3.1985087      15976.41     
    199000   339.11716      0.0995         0.1424934      0.14140662     0.14182721    -1400.5337      634.98115      634.98115      634.98115      2.5602507e+08  1.6985844     -10258796      -10258796       1009.833      -10257787      -1406.3005     -1395.5748     -1399.7257     -0.27004465     2.3913678     -1.5565268      16049.295    
    200000   338.91702      0.1            0.14208595     0.14087906     0.14106024    -1394.9346      635.26991      635.26991      635.26991      2.5637451e+08  1.6962692     -10252091      -10252091       1009.237      -10251082      -1402.2793     -1390.3682     -1392.1564     -1.2886874      1.4075117      0.764777       15669.352    
    201000   339.11015      0.1005         0.14141221     0.14049633     0.14042692    -1389.3756      635.55867      635.55867      635.55867      2.5672427e+08  1.6939582     -10245409      -10245409       1009.8121     -10244399      -1395.63       -1386.591      -1385.9059     -1.7413817      0.26789748     0.52758941     16118.678    
    202000   338.93527      0.101          0.14083402     0.1402691      0.14023624    -1386.0987      635.84742      635.84742      635.84742      2.5707435e+08  1.6916514     -10238741      -10238741       1009.2914     -10237732      -1389.9237     -1384.3484     -1384.0241     -1.8438777     -1.1301114     -1.8476931      16032.762    
    203000   338.65968      0.1015         0.14037186     0.13992814     0.14004011    -1382.8115      636.13618      636.13618      636.13618      2.5742475e+08  1.6893488     -10232082      -10232082       1008.4707     -10231073      -1385.3626     -1380.9833     -1382.0884     -2.2109611     -2.8218597     -3.0027242      16049.032    
    204000   338.61947      0.102          0.1401052      0.13956359     0.13984248    -1380.0848      636.42494      636.42494      636.42494      2.5777546e+08  1.6870504     -10225436      -10225436       1008.351      -10224427      -1382.7308     -1377.3856     -1380.138      -2.33149       -2.5932821     -0.71838753     16158.368    
    205000   338.4164       0.1025         0.13980721     0.13917961     0.13953641    -1376.8344      636.7137       636.7137       636.7137       2.581265e+08   1.6847561     -10218803      -10218803       1007.7463     -10217795      -1379.7899     -1373.596      -1377.1173     -1.1569752     -0.11250739     0.72186986     16036.076    
    206000   337.91435      0.103          0.13945164     0.13861871     0.13883242    -1371.5035      637.00246      637.00246      637.00246      2.5847785e+08  1.682466      -10212176      -10212176       1006.2512     -10211170      -1376.2807     -1368.0603     -1370.1695      0.33903277     1.1426402     -0.13233898     16126.255    
    207000   337.32907      0.1035         0.13906067     0.13811478     0.13802159    -1365.8921      637.29122      637.29122      637.29122      2.5882952e+08  1.6801801     -10205563      -10205563       1004.5084     -10204558      -1372.4221     -1363.0869     -1362.1672      0.27369355    -0.37004409    -1.0604125      16172.519    
    208000   336.86688      0.104          0.13852394     0.13762519     0.13736376    -1360.3516      637.57998      637.57998      637.57998      2.5918151e+08  1.6778982     -10198970      -10198970       1003.1321     -10197967      -1367.125      -1358.255      -1355.6749     -0.61977395    -1.9839077     -0.65824287     16025.094    
    209000   336.81837      0.1045         0.13797345     0.13712327     0.13708702    -1355.9791      637.86874      637.86874      637.86874      2.5953382e+08  1.6756206     -10192398      -10192398       1002.9876     -10191395      -1361.6921     -1353.3015     -1352.9437     -0.53015013    -1.4434921     -1.0846119      16059.953    
    210000   336.92889      0.105          0.13757959     0.13691132     0.13718315    -1354.3023      638.1575       638.1575       638.1575       2.5988644e+08  1.673347      -10185838      -10185838       1003.3167     -10184835      -1357.8049     -1351.2097     -1353.8924     -0.90825367    -0.4598906     -1.9460929      16139.976    
    211000   336.80939      0.1055         0.13712066     0.13687929     0.13718369    -1352.689       638.44626      638.44626      638.44626      2.6023939e+08  1.6710775     -10179278      -10179278       1002.9609     -10178275      -1353.2757     -1350.8936     -1353.8977     -1.6884152     -0.056717837   -1.1899687      16044.992    
    212000   336.72993      0.106          0.13676233     0.13655544     0.13678648    -1349.1381      638.73502      638.73502      638.73502      2.6059266e+08  1.6688122     -10172724      -10172724       1002.7242     -10171721      -1349.7392     -1347.6974     -1349.9776     -1.9883877      0.61486723     0.69747021     15985.342    
    213000   336.69914      0.1065         0.13658749     0.13581407     0.13601325    -1343.5803      639.02377      639.02377      639.02377      2.6094624e+08  1.6665509     -10166187      -10166187       1002.6326     -10165184      -1348.0137     -1340.3806     -1342.3464     -2.6290815      1.1213776      2.2687686      16034.716    
    214000   336.5342       0.107          0.13628567     0.13511574     0.13513429    -1337.3985      639.31253      639.31253      639.31253      2.6130015e+08  1.6642937     -10159671      -10159671       1002.1414     -10158669      -1345.035      -1333.4887     -1333.6717     -3.2974316      0.82041539     2.1585653      16143.493    
    215000   336.35228      0.1075         0.13584218     0.13480265     0.13453339    -1332.9327      639.60129      639.60129      639.60129      2.6165437e+08  1.6620406     -10153172      -10153172       1001.5996     -10152170      -1340.6581     -1330.3987     -1327.7413     -2.682568       0.60116331     0.089789886    16031.304    
    216000   335.94483      0.108          0.13547868     0.13473926     0.13434102    -1330.8955      639.89005      639.89005      639.89005      2.6200892e+08  1.6597916     -10146683      -10146683       1000.3863     -10145682      -1337.0706     -1329.7731     -1325.8428     -0.1408209      0.5034819     -1.975856       16121.294    
    217000   335.43244      0.1085         0.13511777     0.13445619     0.13417545    -1328.2323      640.17881      640.17881      640.17881      2.6236378e+08  1.6575466     -10140196      -10140196       998.86052     -10139197      -1333.5087     -1326.9794     -1324.2087      2.0441544     -0.4920067     -1.4000563      16038.447    
[...]
   2993000   323.09815      1.4965         0.0056851858   0.0056021149   0.0052261153  -54.324915      1441.7739      1441.7739      1441.7739      2.9970329e+09  0.14510358    -2719741.3     -2719741.3      962.13113     -2718779.1     -56.108422     -55.288575     -51.577748      0.53225949     0.56536238     2.2898762      14383.894    
   2994000   323.12794      1.497          0.0056808511   0.0055956859   0.005223492   -54.280875      1442.0627      1442.0627      1442.0627      2.998834e+09   0.14501643    -2718462.7     -2718462.7      962.21983     -2717500.5     -56.065641     -55.225126     -51.551858      0.58161341     0.58313209     2.3129362      14414.167    
   2995000   323.09437      1.4975         0.0056761795   0.0055904587   0.0052174562  -54.228454      1442.3514      1442.3514      1442.3514      3.0006358e+09  0.14492935    -2717185       -2717185        962.11986     -2716222.9     -56.019537     -55.173537     -51.492289      0.62920874     0.62442202     2.3473844      14415.616    
   2996000   323.04287      1.498          0.0056705212   0.0055885878   0.0052084972  -54.174212      1442.6402      1442.6402      1442.6402      3.0024383e+09  0.14484234    -2715908.2     -2715908.2      961.9665      -2714946.3     -55.963693     -55.155073     -51.403871      0.63693406     0.6590639      2.3690632      14372.67     
   2997000   323.02767      1.4985         0.0056643029   0.0055866347   0.0051969738  -54.109422      1442.929       1442.929       1442.929       3.0042416e+09  0.1447554     -2714632.3     -2714632.3      961.92124     -2713670.4     -55.902323     -55.135797     -51.290144      0.60521062     0.67103412     2.3638683      14407.963    
   2998000   323.06653      1.499          0.0056583807   0.005581029    0.0051848294  -54.031546      1443.2177      1443.2177      1443.2177      3.0060456e+09  0.14466853    -2713357.8     -2713357.8      962.03695     -2712395.7     -55.843876     -55.080474     -51.170288      0.56900158     0.65904399     2.3332287      14410.172    
   2999000   323.12756      1.4995         0.0056536668   0.0055734697   0.0051763793  -53.963371      1443.5065      1443.5065      1443.5065      3.0078503e+09  0.14458173    -2712084.8     -2712084.8      962.2187      -2711122.6     -55.797353     -55.005869     -51.086892      0.55842993     0.63763498     2.2948113      14221.818    
   3000000   323.17264      1.5            0.0056505493   0.0055667751   0.0051731702  -53.920535      1443.7952      1443.7952      1443.7952      3.0096557e+09  0.144495      -2710812.6     -2710812.6      962.35294     -2709850.3     -55.766585     -54.939798     -51.05522       0.58064113     0.62453238     2.2727135      10139.541    
   3001000   323.1687       1.5005         0.0056487059   0.0055626451   0.0051732346  -53.901096      1444.084       1444.084       1444.084       3.0114619e+09  0.14440834    -2709540.5     -2709540.5      962.3412      -2708578.2     -55.748393     -54.899038     -51.055856      0.62296882     0.62259913     2.2816602      14178.045    
   3002000   323.10761      1.501          0.0056467022   0.005560725    0.0051730037  -53.887428      1444.3728      1444.3728      1444.3728      3.0132688e+09  0.14432174    -2708268.1     -2708268.1      962.15929     -2707306       -55.728618     -54.880088     -51.053577      0.66336389     0.63304913     2.3127058      14188.748    
   3003000   323.01482      1.5015         0.0056448103   0.0055591852   0.0051690645  -53.86318       1444.6615      1444.6615      1444.6615      3.0150764e+09  0.14423522    -2706995.6     -2706995.6      961.88297     -2706033.7     -55.709946     -54.864892     -51.0147        0.68277292     0.64056631     2.3386383      14027.904    
   3004000   322.93197      1.502          0.0056422074   0.005555201    0.0051598846  -53.81131       1444.9503      1444.9503      1444.9503      3.0168847e+09  0.14414876    -2705723.3     -2705723.3      961.63626     -2704761.6     -55.684257     -54.825571     -50.924102      0.67649325     0.62789247     2.3366071      14229.332    
   3005000   322.88485      1.5025         0.0056362414   0.0055487239   0.0051483354  -53.732382      1445.239       1445.239       1445.239       3.0186937e+09  0.14406238    -2704452       -2704452        961.49596     -2703490.5     -55.625378     -54.761647     -50.81012       0.65730367     0.59783117     2.3100051      14177.274    
   3006000   322.88621      1.503          0.0056280465   0.0055411938   0.0051401637  -53.653767      1445.5278      1445.5278      1445.5278      3.0205035e+09  0.14397606    -2703182.3     -2703182.3      961.49999     -2702220.8     -55.5445       -54.687331     -50.729471      0.64453103     0.56896942     2.2788134      14260.048    
   3007000   322.93482      1.5035         0.0056207323   0.00553588     0.0051390547  -53.608577      1445.8166      1445.8166      1445.8166      3.022314e+09   0.14388981    -2701913.8     -2701913.8      961.64476     -2700952.1     -55.472315     -54.634888     -50.718527      0.64651776     0.56113215     2.2609003      14247.065    
   3008000   323.01963      1.504          0.0056154274   0.0055327289   0.0051421488  -53.590937      1446.1053      1446.1053      1446.1053      3.0241252e+09  0.14380364    -2700645.6     -2700645.6      961.8973      -2699683.8     -55.41996      -54.603789     -50.749063      0.65595207     0.58775834     2.2514125      14262.269    
   3009000   323.11492      1.5045         0.0056158866   0.0055309154   0.0051451379  -53.596315      1446.3941      1446.3941      1446.3941      3.0259371e+09  0.14371753    -2699377.5     -2699377.5      962.18107     -2698415.3     -55.424491     -54.585891     -50.778563      0.66401141     0.62612061     2.2450331      14271.5      
   3010000   323.17886      1.505          0.0056210439   0.005529887    0.0051469887  -53.615987      1446.6828      1446.6828      1446.6828      3.0277498e+09  0.14363148    -2698108.5     -2698108.5      962.37147     -2697146.2     -55.47539      -54.575741     -50.796829      0.66557072     0.64506457     2.2490086      14304.279    
   3011000   323.19434      1.5055         0.0056226048   0.0055284503   0.0051465784  -53.615046      1446.9716      1446.9716      1446.9716      3.0295632e+09  0.14354551    -2696838.7     -2696838.7      962.41757     -2695876.2     -55.490795     -54.561562     -50.79278       0.65022502     0.64127559     2.2648629      14335.314    
   3012000   323.18304      1.506          0.0056168399   0.0055249757   0.0051416917  -53.568574      1447.2604      1447.2604      1447.2604      3.0313773e+09  0.14345961    -2695568.8     -2695568.8      962.3839      -2694606.4     -55.4339       -54.527271     -50.744552      0.62372341     0.61890303     2.2747175      14262.225    
   3013000   323.16932      1.5065         0.0056071035   0.0055201047   0.0051331735  -53.492496      1447.5491      1447.5491      1447.5491      3.0331921e+09  0.14337377    -2694299.9     -2694299.9      962.34304     -2693337.5     -55.337809     -54.479197     -50.660483      0.61366385     0.58907215     2.2643422      14249.217    
   3014000   323.16203      1.507          0.0055975508   0.0055155732   0.0051250158  -53.419327      1447.8379      1447.8379      1447.8379      3.0350077e+09  0.14328801    -2693032.5     -2693032.5      962.32135     -2692070.1     -55.243532     -54.434475     -50.579973      0.62383777     0.56924692     2.2467996      14212.125    
   3015000   323.13491      1.5075         0.0055923096   0.0055118208   0.0051199301  -53.373009      1448.1266      1448.1266      1448.1266      3.036824e+09   0.14320231    -2691766       -2691766        962.24057     -2690803.7     -55.191805     -54.397442     -50.529781      0.63624059     0.5649155      2.23477        14260.077    
   3016000   323.05381      1.508          0.0055907461   0.0055086834   0.0051161029  -53.344954      1448.4154      1448.4154      1448.4154      3.038641e+09   0.14311668    -2690499.4     -2690499.4      961.99907     -2689537.4     -55.176374     -54.366478     -50.49201       0.64247584     0.57486573     2.2333981      14195.825    
   3017000   322.926        1.5085         0.0055868449   0.0055040014   0.005108225   -53.290801      1448.7041      1448.7041      1448.7041      3.0404587e+09  0.14303111    -2689233       -2689233        961.61848     -2688271.4     -55.137873     -54.32027      -50.414261      0.63255028     0.59432056     2.2486154      14209.715    
   3018000   322.79439      1.509          0.0055791205   0.0054955603   0.0050950672  -53.194335      1448.9929      1448.9929      1448.9929      3.0422772e+09  0.14294562    -2687967.9     -2687967.9      961.22656     -2687006.7     -55.061638     -54.236963     -50.284404      0.60437397     0.61105113     2.2706242      14223.335    
   3019000   322.69087      1.5095         0.0055687817   0.0054857302   0.0050816277  -53.083772      1449.2817      1449.2817      1449.2817      3.0440963e+09  0.1428602     -2686704.8     -2686704.8      960.9183      -2685743.9     -54.959602     -54.139947     -50.151766      0.57083997     0.61414854     2.2768064      14226.866    
   3020000   322.62501      1.51           0.0055592333   0.0054797478   0.0050727923  -53.003613      1449.5704      1449.5704      1449.5704      3.0459162e+09  0.14277484    -2685443.8     -2685443.8      960.72218     -2684483       -54.865367     -54.080906     -50.064567      0.54610565     0.61634549     2.2709399      14247.559    
   3021000   322.5839       1.5105         0.0055547616   0.0054788077   0.0050693322  -52.974427      1449.8592      1449.8592      1449.8592      3.0477369e+09  0.14268955    -2684183.4     -2684183.4      960.59976     -2683222.8     -54.821235     -54.071628     -50.030419      0.5399323      0.62882907     2.2772103      14276.24     
   3022000   322.5485       1.511          0.0055535432   0.0054794529   0.0050683482  -52.969304      1450.1479      1450.1479      1450.1479      3.0495582e+09  0.14260433    -2682922.5     -2682922.5      960.49437     -2681962       -54.80921      -54.077996     -50.020708      0.55438916     0.65337703     2.2986025      14262.822    
   3023000   322.51823      1.5115         0.005551612    0.0054781098   0.0050658396  -52.95028       1450.4367      1450.4367      1450.4367      3.0513803e+09  0.14251917    -2681660.9     -2681660.9      960.40422     -2680700.5     -54.790151     -54.06474      -49.99595       0.5837818      0.67822019     2.3229788      14270.658    
   3024000   322.49815      1.512          0.0055483405   0.0054738864   0.0050607551  -52.908897      1450.7255      1450.7255      1450.7255      3.0532031e+09  0.14243409    -2680399.6     -2680399.6      960.34441     -2679439.3     -54.757863     -54.023059     -49.94577       0.61638272     0.70434966     2.3209044      14120.947    
   3025000   322.48623      1.5125         0.0055459707   0.0054688946   0.005055653   -52.867895      1451.0142      1451.0142      1451.0142      3.0550267e+09  0.14234907    -2679138.9     -2679138.9      960.30892     -2678178.6     -54.734475     -53.973794     -49.895416      0.63075259     0.72664174     2.289487       14138.326    
   3026000   322.49192      1.513          0.0055452691   0.0054655236   0.0050534593  -52.84728       1451.303       1451.303       1451.303       3.0568509e+09  0.14226412    -2677878.6     -2677878.6      960.32586     -2676918.3     -54.727551     -53.940524     -49.873766      0.61831764     0.73626959     2.2640686      14226.464    
   3027000   322.51965      1.5135         0.0055432461   0.0054638034   0.0050534565  -52.834957      1451.5917      1451.5917      1451.5917      3.0586759e+09  0.14217923    -2676618.3     -2676618.3      960.40846     -2675657.9     -54.707586     -53.923547     -49.873738      0.58697093     0.72912455     2.2662897      14139.858    
   3028000   322.57094      1.514          0.0055381977   0.0054589264   0.0050539072  -52.803787      1451.8805      1451.8805      1451.8805      3.0605016e+09  0.14209442    -2675357.8     -2675357.8      960.56117     -2674397.3     -54.657761     -53.875415     -49.878186      0.55235794     0.70422211     2.2741395      14201.558    
   3029000   322.64308      1.5145         0.0055311745   0.0054495136   0.0050531955  -52.747376      1452.1693      1452.1693      1452.1693      3.0623281e+09  0.14200967    -2674098.1     -2674098.1      960.77599     -2673137.3     -54.588448     -53.782517     -49.871163      0.53090448     0.68166312     2.2665708      14206.904    
   3030000   322.70681      1.515          0.00552538     0.0054400262   0.0050517552  -52.692364      1452.458       1452.458       1452.458       3.0641552e+09  0.14192499    -2672839.4     -2672839.4      960.96577     -2671878.4     -54.531261     -53.688884     -49.856948      0.53995757     0.68013385     2.2491254      14160.055    
   3031000   322.72293      1.5155         0.0055222881   0.0054348674   0.0050508533  -52.662255      1452.7468      1452.7468      1452.7468      3.0659831e+09  0.14184038    -2671581.2     -2671581.2      961.01378     -2670620.1     -54.500746     -53.637971     -49.848047      0.56648308     0.69014789     2.2399009      14179.941    
   3032000   322.68368      1.516          0.0055204851   0.0054307422   0.0050497697  -52.639188      1453.0355      1453.0355      1453.0355      3.0678117e+09  0.14175583    -2670322.8     -2670322.8      960.89688     -2669361.9     -54.482952     -53.597258     -49.837352      0.58616691     0.70068882     2.2549298      14227.357    
   3033000   322.62117      1.5165         0.0055185509   0.0054249757   0.0050471028  -52.605081      1453.3243      1453.3243      1453.3243      3.0696411e+09  0.14167135    -2669064.4     -2669064.4      960.71076     -2668103.7     -54.463863     -53.540348     -49.811032      0.58681979     0.70505098     2.2908949      14315.626    
   3034000   322.56782      1.517          0.0055143757   0.0054176636   0.0050422001  -52.551162      1453.6131      1453.6131      1453.6131      3.0714711e+09  0.14158694    -2667806.4     -2667806.4      960.55189     -2666845.8     -54.422657     -53.468183     -49.762646      0.57605914     0.69563875     2.3107535      14366.654    
   3035000   322.53989      1.5175         0.0055073183   0.0054081541   0.0050338673  -52.469248      1453.9018      1453.9018      1453.9018      3.0733019e+09  0.14150259    -2666549.6     -2666549.6      960.46871     -2665589.2     -54.353006     -53.374331     -49.680408      0.56832329     0.67726822     2.2959473      14384.779    
   3036000   322.53979      1.518          0.00549925     0.0053985642   0.0050238336  -52.378149      1454.1906      1454.1906      1454.1906      3.0751335e+09  0.14141832    -2665294.8     -2665294.8      960.4684      -2664334.3     -54.273378     -53.279686     -49.581383      0.57365322     0.66332061     2.2709307      14391.208    
   3037000   322.56679      1.5185         0.005492395    0.005392478    0.005016585   -52.311729      1454.4793      1454.4793      1454.4793      3.0769657e+09  0.14133411    -2664041.8     -2664041.8      960.54882     -2663081.2     -54.205724     -53.21962      -49.509845      0.59464977     0.65699604     2.2631183      14333.803    
   3038000   322.60636      1.519          0.0054880553   0.0053903118   0.005014006   -52.281843      1454.7681      1454.7681      1454.7681      3.0787987e+09  0.14124996    -2662789.4     -2662789.4      960.66666     -2661828.8     -54.162895     -53.198242     -49.484392      0.63109904     0.65999164     2.2877387      14311.394    
   3039000   322.64165      1.5195         0.0054863541   0.0053895515   0.0050138568  -52.273254      1455.0568      1455.0568      1455.0568      3.0806324e+09  0.14116588    -2661537       -2661537        960.77175     -2660576.2     -54.146106     -53.190738     -49.482919      0.67560041     0.66280345     2.3246282      14231.072    
   3040000   322.66397      1.52           0.0054869975   0.0053876597   0.00501234    -52.264157      1455.3456      1455.3456      1455.3456      3.0824669e+09  0.14108187    -2660284.1     -2660284.1      960.83821     -2659323.2     -54.152455     -53.172067     -49.46795       0.72244318     0.6576276      2.3414147      14114.396    
   3041000   322.66102      1.5205         0.0054884365   0.0053834057   0.0050079166  -52.240345      1455.6344      1455.6344      1455.6344      3.084302e+09   0.14099793    -2659030.8     -2659030.8      960.82941     -2658070       -54.166656     -53.130083     -49.424294      0.75154268     0.64834292     2.3291126      14033.702    
   3042000   322.62081      1.521          0.0054847384   0.0053745785   0.0050008172  -52.175785      1455.9231      1455.9231      1455.9231      3.0861379e+09  0.14091405    -2657778       -2657778        960.70968     -2656817.3     -54.13016      -53.042966     -49.354229      0.7455389      0.64399686     2.3051628      14108.302    
   3043000   322.5595       1.5215         0.0054723843   0.0053626574   0.004991478   -52.065202      1456.2119      1456.2119      1456.2119      3.0879745e+09  0.14083024    -2656526.9     -2656526.9      960.52712     -2655566.3     -54.008234     -52.925313     -49.262058      0.71305897     0.63390876     2.2866528      14091.771    
   3044000   322.5096       1.522          0.0054560746   0.0053530204   0.0049840448  -51.95539       1456.5006      1456.5006      1456.5006      3.0898119e+09  0.1407465     -2655278.3     -2655278.3      960.37851     -2654318       -53.84727      -52.830204     -49.188697      0.67874427     0.6089972      2.2739359      13889.716    
   3045000   322.48634      1.5225         0.0054443609   0.0053484674   0.0049830131  -51.898483      1456.7894      1456.7894      1456.7894      3.09165e+09    0.14066282    -2654031.5     -2654031.5      960.30926     -2653071.2     -53.731664     -52.785269     -49.178516      0.65631336     0.58277944     2.2598059      14170.247    
   3046000   322.49287      1.523          0.0054416565   0.0053482603   0.0049870596  -51.902217      1457.0782      1457.0782      1457.0782      3.0934888e+09  0.14057921    -2652784.7     -2652784.7      960.32868     -2651824.4     -53.704975     -52.783225     -49.218451      0.6504672      0.56917974     2.2411235      14197.825    
   3047000   322.52432      1.5235         0.0054459441   0.0053492572   0.0049912488  -51.933383      1457.3669      1457.3669      1457.3669      3.0953283e+09  0.14049566    -2651536.9     -2651536.9      960.42236     -2650576.4     -53.747289     -52.793064     -49.259796      0.64869136     0.5648994      2.215615       14154.778    
   3048000   322.57077      1.524          0.0054501751   0.0053484556   0.0049912611  -51.944705      1457.6557      1457.6557      1457.6557      3.0971686e+09  0.14041218    -2650287.7     -2650287.7      960.56068     -2649327.1     -53.789046     -52.785153     -49.259917      0.63861605     0.56829879     2.1954456      14182.526    
   3049000   322.6224       1.5245         0.0054489364   0.0053451343   0.0049863707  -51.913616      1457.9444      1457.9444      1457.9444      3.0990096e+09  0.14032877    -2649038.4     -2649038.4      960.71442     -2648077.7     -53.776821     -52.752374     -49.211653      0.62131795     0.57788652     2.1892727      14256.052    
   3050000   322.65702      1.525          0.0054430657   0.0053419219   0.0049795105  -51.861166      1458.2332      1458.2332      1458.2332      3.1008513e+09  0.14024542    -2647789.9     -2647789.9      960.8175      -2646829.1     -53.718881     -52.72067      -49.143947      0.59852831     0.59000373     2.1936106      14033.132    
ERROR on proc 0: Pair distance > table outer cutoff: ijtype 2 1 dist 308.00003906997017 (src/pair_table_pgn.cpp:138)
Last command: run				${steps_tensile}
