LAMMPS (23 Jun 2022 - Update 1)
OMP_NUM_THREADS environment is not set. Defaulting to 1 thread. (src/comm.cpp:98)
  using 1 OpenMP thread(s) per MPI task
###

# Read restart info
read_restart ${read_res}
read_restart ./trial10/5050/equpmf70.res
Reading restart file ...
  restart file = 23 Jun 2022, LAMMPS = 23 Jun 2022
  restoring atom style atomic from restart
  orthogonal box = (1669.0666 1669.0666 1669.0666) to (2330.9334 2330.9334 2330.9334)
  1 by 2 by 2 MPI processor grid
  restoring pair style table from restart
  1000 atoms
  read_restart CPU = 0.056 seconds

# Settings
pair_style table/pgn spline 10941
pair_coeff 1 1 N20e.txt DE_GNP 308 72.9   # 1.35 * r
pair_coeff 2 2 N100e.txt DE_GNP 473.9 111.78
WARNING: 20 of 10941 force values in table DE_GNP are inconsistent with -dE/dr.
WARNING:  Should only be flagged at inflection points (src/pair_table_pgn.cpp:478)
pair_coeff 1 2 mixed_potentiale.txt DE_GNP 391.2 92.95
WARNING: 1564 of 10941 force values in table DE_GNP are inconsistent with -dE/dr.
WARNING:  Should only be flagged at inflection points (src/pair_table_pgn.cpp:478)

# Neighbor list
neighbor 2.0 bin
neigh_modify delay 0 every 1 check no once yes

# Temperature
variable T equal ${Temp}
variable T equal 300

# Deformation
reset_timestep 0
variable tmp equal "lx"
variable L0 equal ${tmp}
variable L0 equal 661.866885638815
variable strain equal "(lx - v_L0)/v_L0"
variable stp equal "step"
variable tmpe equal "temp"
variable p1 equal "v_strain"
variable p2 equal "-pxx*1.01325/10000"
variable p3 equal "-pyy*1.01325/10000"
variable p4 equal "-pzz*1.01325/10000"
variable p5 equal "lx"
variable p6 equal "ly"
variable p7 equal "lz"
variable p8 equal "press"
variable p9 equal "epair"
variable p10 equal "etotal"

# Thermo
thermo_style custom step temp v_p1 v_p2 v_p3 v_p4 press lx ly lz vol density epair pe ke etotal pxx pyy pzz pxy pxz pyz spcpu
thermo ${ts_save}
thermo 1000

# Dump
# dump 1 all custom 2000 ./${N20}${N100}/tensile/trajectory/trajectory_${usic}_${trial}_*.tensile.custom id type x y z ix iy iz
# dump_modify 1 sort id
dump 2 all cfg 50000 ./trial${trial}/${N20}${N100}/tensile/trajectory/dumpten.tens_${usic}_${trial}_*.cfg mass type xs ys zs fx fy fz
dump 2 all cfg 50000 ./trial10/${N20}${N100}/tensile/trajectory/dumpten.tens_${usic}_${trial}_*.cfg mass type xs ys zs fx fy fz
dump 2 all cfg 50000 ./trial10/50${N100}/tensile/trajectory/dumpten.tens_${usic}_${trial}_*.cfg mass type xs ys zs fx fy fz
dump 2 all cfg 50000 ./trial10/5050/tensile/trajectory/dumpten.tens_${usic}_${trial}_*.cfg mass type xs ys zs fx fy fz
dump 2 all cfg 50000 ./trial10/5050/tensile/trajectory/dumpten.tens_1_${trial}_*.cfg mass type xs ys zs fx fy fz
dump 2 all cfg 50000 ./trial10/5050/tensile/trajectory/dumpten.tens_1_10_*.cfg mass type xs ys zs fx fy fz
dump_modify 2 element N20 N100

fix 1 all nvt temp ${T} ${T} 100
fix 1 all nvt temp 300 ${T} 100
fix 1 all nvt temp 300 300 100
fix 2 all deform 1 x erate ${strain_rate} y erate ${strain_rate} z erate ${strain_rate} units box
fix 2 all deform 1 x erate 5e-6 y erate ${strain_rate} z erate ${strain_rate} units box
fix 2 all deform 1 x erate 5e-6 y erate 5e-6 z erate ${strain_rate} units box
fix 2 all deform 1 x erate 5e-6 y erate 5e-6 z erate 5e-6 units box
fix             def1 all print ${ts_save} "${p1} ${p2} ${p3} ${p4}" file ./tensile/${trial}/tensile${N20}${N100}_${usic}_${trial}.txt screen no
fix             def1 all print 1000 "${p1} ${p2} ${p3} ${p4}" file ./tensile/${trial}/tensile${N20}${N100}_${usic}_${trial}.txt screen no
fix             def1 all print 1000 "${p1} ${p2} ${p3} ${p4}" file ./tensile/10/tensile${N20}${N100}_${usic}_${trial}.txt screen no
fix             def1 all print 1000 "${p1} ${p2} ${p3} ${p4}" file ./tensile/10/tensile50${N100}_${usic}_${trial}.txt screen no
fix             def1 all print 1000 "${p1} ${p2} ${p3} ${p4}" file ./tensile/10/tensile5050_${usic}_${trial}.txt screen no
fix             def1 all print 1000 "${p1} ${p2} ${p3} ${p4}" file ./tensile/10/tensile5050_1_${trial}.txt screen no
fix             def1 all print 1000 "${p1} ${p2} ${p3} ${p4}" file ./tensile/10/tensile5050_1_10.txt screen no

timestep       		${ts}
timestep       		0.1
run				${steps_tensile}
run				6000000
Generated 0 of 1 mixed pair_coeff terms from geometric mixing rule
Unused restart file global fix info:
  fix style: npt, fix ID: 5
Neighbor list info ...
  update every 1 steps, delay 0 steps, check no
  max neighbors/atom: 2000, page size: 100000
  master list distance cutoff = 113.78
  ghost atom cutoff = 113.78
  binsize = 56.89, bins = 12 12 12
  1 neighbor lists, perpetual/occasional/extra = 1 0 0
  (1) pair table/pgn, perpetual
      attributes: half, newton on
      pair build: half/bin/atomonly/newton
      stencil: half/bin/3d
      bin: standard
Per MPI rank memory allocation (min/avg/max) = 3.85 | 3.85 | 3.85 Mbytes
   Step          Temp           v_p1           v_p2           v_p3           v_p4          Press            Lx             Ly             Lz           Volume        Density         E_pair         PotEng         KinEng         TotEng          Pxx            Pyy            Pzz            Pxy            Pxz            Pyz           S/CPU     
         0   304.5111      -1.7176692e-16  0.0012359768   0.02209853     0.014408848   -124.16599      661.86689      661.86689      661.86689      2.8994255e+08  1.8438555     -27766019      -27766019       906.78204     -27765112      -12.198143     -218.09554     -142.20428      48.486844     -51.66892      -32.157572      0            
      1000   364.22923      0.0005         0.0093808592   0.029770085    0.022342647   -202.29819      662.19782      662.19782      662.19782      2.9037768e+08  1.8410925     -27765227      -27765227       1084.6125     -27764142      -92.581882     -293.8079      -220.50478      45.858965     -51.607033     -30.73236       9552.7747    
      2000   465.79267      0.001          0.017082579    0.036903402    0.029521938   -274.71969      662.52875      662.52875      662.52875      2.9081325e+08  1.838335      -27764236      -27764236       1387.051      -27762849      -168.59195     -364.20826     -291.35888      45.316691     -51.246035     -28.184425      12980.415    
      3000   545.7785       0.0015         0.02414306     0.043436957    0.035981542   -340.69104      662.85969      662.85969      662.85969      2.9124925e+08  1.835583      -27763005      -27763005       1625.2352     -27761380      -238.27347     -428.68943     -355.11021      46.07397      -51.141926     -26.92954       13145.98     
      4000   583.27726      0.002          0.030884216    0.049718094    0.042156494   -403.84507      663.19062      663.19062      663.19062      2.9168569e+08  1.8328365     -27761472      -27761472       1736.9001     -27759736      -304.80351     -490.67944     -416.05225      46.181927     -50.654304     -27.165941      13118.916    
      5000   586.33732      0.0025         0.037606878    0.056114953    0.048557294   -468.06193      663.52155      663.52155      663.52155      2.9212256e+08  1.8300954     -27759573      -27759573       1746.0124     -27757827      -371.15103     -553.81153     -479.22323      44.84998      -49.625539     -26.177969      12977.828    
      6000   570.5445       0.003          0.04444818     0.06278203     0.055395823   -534.99805      663.85249      663.85249      663.85249      2.9255987e+08  1.8273599     -27757244      -27757244       1698.9841     -27755545      -438.66943     -619.61047     -546.71427      42.915975     -49.483938     -23.824782      12932.373    
      7000   547.58927      0.0035         0.051265131    0.069303657    0.062280374   -601.52698      664.18342      664.18342      664.18342      2.9299762e+08  1.8246297     -27754455      -27754455       1630.6273     -27752824      -505.94751     -683.97392     -614.6595       41.834064     -50.214116     -23.313653      12918.762    
      8000   524.10178      0.004          0.058057342    0.075437809    0.068875057   -665.74622      664.51435      664.51435      664.51435      2.934358e+08   1.8219051     -27751205      -27751205       1560.6856     -27749645      -572.98142     -744.51329     -679.74396      41.576379     -50.89545      -24.626726      12904.695    
      9000   502.75045      0.0045         0.065012872    0.081599349    0.075259948   -729.90269      664.84529      664.84529      664.84529      2.9387442e+08  1.8191858     -27747507      -27747507       1497.105      -27746010      -641.62716     -805.32296     -742.75794      40.189708     -51.2049       -24.861416      12848.748    
     10000   484.46836      0.005          0.071896312    0.087924675    0.081566701   -794.10375      665.17622      665.17622      665.17622      2.9431347e+08  1.8164719     -27743365      -27743365       1442.6641     -27741922      -709.56143     -867.74907     -805.00075      38.223482     -51.083579     -23.006281      12656.744    
     11000   469.04628      0.0055         0.078361129    0.094064812    0.087617638   -855.47686      665.50715      665.50715      665.50715      2.9475297e+08  1.8137635     -27738787      -27738787       1396.7397     -27737391      -773.36421     -928.34752     -864.71886      36.844896     -50.320096     -21.364377      12964.147    
     12000   455.74665      0.006          0.084266444    0.099873538    0.093347181   -912.86179      665.83809      665.83809      665.83809      2.951929e+08   1.8110604     -27733800      -27733800       1357.1357     -27732443      -831.64514     -985.67519     -921.26505      35.726527     -49.826567     -20.919898      15255.854    
     13000   444.12468      0.0065         0.089847776    0.10543036     0.098887894   -967.73098      666.16902      666.16902      666.16902      2.9563326e+08  1.8083627     -27728420      -27728420       1322.5275     -27727097      -886.7286      -1040.5167     -975.94763      35.18421      -50.139102     -20.076654      15229.973    
     14000   433.976        0.007          0.095481794    0.11085088     0.10432929    -1021.9984      666.49995      666.49995      666.49995      2.9607407e+08  1.8056703     -27722658      -27722658       1292.3064     -27721366      -942.33204     -1094.0131     -1029.65        35.054712     -51.18484      -18.943028      15245.189    
     15000   425.28344      0.0075         0.10117636     0.11616362     0.10972308    -1075.9538      666.83089      666.83089      666.83089      2.9651531e+08  1.8029833     -27716516      -27716516       1266.4215     -27715250      -998.53304     -1146.4458     -1082.8827      34.772936     -51.360139     -18.611293      15256.783    
     16000   418.03885      0.008          0.10687958     0.12138336     0.11514584    -1129.727       667.16182      667.16182      667.16182      2.9695699e+08  1.8003017     -27710000      -27710000       1244.8483     -27708755      -1054.8194     -1197.9606     -1136.401       33.802715     -50.122397     -18.757952      15212.411    
     17000   412.14638      0.0085         0.11258925     0.12656105     0.12056316    -1183.3653      667.49275      667.49275      667.49275      2.9739911e+08  1.7976253     -27703118      -27703118       1227.3015     -27701891      -1111.1695     -1249.0605     -1189.8659      32.731027     -48.975873     -18.101725      15243.773    
     18000   407.52813      0.009          0.11819096     0.13166155     0.12581896    -1235.8631      667.82369      667.82369      667.82369      2.9784167e+08  1.7949542     -27695883      -27695883       1213.5492     -27694669      -1166.4541     -1299.3985     -1241.7366      31.546105     -49.59071      -16.440816      15229.794    
     19000   404.04734      0.0095         0.12371099     0.13664992     0.1309212     -1287.2181      668.15462      668.15462      668.15462      2.9828467e+08  1.7922885     -27688298      -27688298       1203.184      -27687095      -1220.9325     -1348.6299     -1292.0918      29.550912     -51.628367     -14.853284      15213.761    
     20000   401.132        0.01           0.12905589     0.14163662     0.13588239    -1337.5274      668.48555      668.48555      668.48555      2.987281e+08   1.789628      -27680371      -27680371       1194.5026     -27679177      -1273.6826     -1397.8448     -1341.0549      29.013842     -51.483038     -13.561746      15234.684    
     21000   398.42041      0.0105         0.13387929     0.14634077     0.14055303    -1384.2359      668.81649      668.81649      668.81649      2.9917198e+08  1.7869727     -27672115      -27672115       1186.4279     -27670928      -1321.2859     -1444.2712     -1387.1505      29.679076     -48.734162     -12.398029      15248.612    
     22000   396.19313      0.011          0.1383018      0.15066439     0.1449572     -1427.4969      669.14742      669.14742      669.14742      2.9961629e+08  1.7843227     -27663546      -27663546       1179.7955     -27662366      -1364.9326     -1486.9419     -1430.6163      29.178046     -47.244516     -11.41054       15241.836    
     23000   394.53982      0.0115         0.14285575     0.15504578     0.14927463    -1471.0952      669.47835      669.47835      669.47835      3.0006105e+08  1.781678      -27654679      -27654679       1174.8722     -27653504      -1409.8766     -1530.1828     -1473.226       27.269502     -47.432251     -10.796428      15251.767    
     24000   393.48157      0.012          0.14762505     0.15947411     0.15364843    -1515.7417      669.80929      669.80929      669.80929      3.0050624e+08  1.7790385     -27645515      -27645515       1171.7209     -27644343      -1456.9459     -1573.8871     -1516.3921      25.537753     -47.023645     -9.4415165      15256.427    
     25000   393.00199      0.0125         0.15245252     0.16359912     0.15809738    -1559.829       670.14022      670.14022      670.14022      3.0095188e+08  1.7764042     -27636056      -27636056       1170.2928     -27634886      -1504.5894     -1614.5978     -1560.2998      24.646415     -46.501099     -8.1750763      15241.208    
     26000   393.12955      0.013          0.15717636     0.16766286     0.1625581     -1603.4125      670.47116      670.47116      670.47116      3.0139795e+08  1.7737751     -27626307      -27626307       1170.6727     -27625136      -1551.2101     -1654.7038     -1604.3237      25.031483     -47.316872     -9.3635822      15238.514    
     27000   393.48092      0.0135         0.16156717     0.17188436     0.16670927    -1645.4011      670.80209      670.80209      670.80209      3.0184447e+08  1.7711511     -27616275      -27616275       1171.719      -27615103      -1594.544      -1696.3667     -1645.2926      25.210962     -48.555097     -10.633179      15234.636    
     28000   393.89269      0.014          0.16562423     0.176061       0.17051355    -1685.003       671.13302      671.13302      671.13302      3.0229142e+08  1.7685324     -27605967      -27605967       1172.9452     -27604794      -1634.5841     -1737.587      -1682.8379      23.715492     -49.216298     -9.3209563      15247.157    
     29000   394.26143      0.0145         0.16946992     0.17985971     0.1742446     -1722.4253      671.46396      671.46396      671.46396      3.0273882e+08  1.7659188     -27595400      -27595400       1174.0432     -27594226      -1672.538      -1775.0774     -1719.6605      21.15762      -48.706103     -6.8605414      15238.237    
     30000   394.85206      0.015          0.17332237     0.1833279      0.17796942    -1758.762       671.79489      671.79489      671.79489      3.0318666e+08  1.7633103     -27584586      -27584586       1175.802      -27583411      -1710.5587     -1809.3057     -1756.4217      19.555446     -46.717344     -5.0942669      15260.954    
     31000   395.45302      0.0155         0.17735011     0.18675932     0.18181809    -1795.9619      672.12582      672.12582      672.12582      3.0363494e+08  1.760707      -27573521      -27573521       1177.5916     -27572344      -1750.3095     -1843.1712     -1794.405       19.956773     -45.322447     -3.761804       15238.567    
     32000   396.25138      0.016          0.18129316     0.19028939     0.18562728    -1833.0778      672.45676      672.45676      672.45676      3.0408366e+08  1.7581088     -27562198      -27562198       1179.9689     -27561018      -1789.2243     -1878.0103     -1831.9989      20.920943     -45.946869     -3.1185327      15259.079    
     33000   397.75705      0.0165         0.18502628     0.19377845     0.18919698    -1868.5803      672.78769      672.78769      672.78769      3.0453282e+08  1.7555157     -27550632      -27550632       1184.4526     -27549447      -1826.0674     -1912.4446     -1867.229       20.710849     -46.806726     -4.4313125      15240.273    
     34000   399.55026      0.017          0.18872366     0.19714774     0.19255829    -1902.8857      673.11862      673.11862      673.11862      3.0498243e+08  1.7529278     -27538842      -27538842       1189.7925     -27537652      -1862.5577     -1945.697      -1900.4026      19.103471     -46.65304      -6.6268227      15245.668    
     35000   401.10343      0.0175         0.19232526     0.20028974     0.19575326    -1935.5811      673.44956      673.44956      673.44956      3.0543248e+08  1.7503449     -27526830      -27526830       1194.4175     -27525636      -1898.1027     -1976.7061     -1931.9345      17.304248     -46.629555     -6.4381702      15259.13     
     36000   402.84612      0.018          0.1955619      0.20320652     0.19862863    -1965.2835      673.78049      673.78049      673.78049      3.0588297e+08  1.747767      -27514605      -27514605       1199.6069     -27513405      -1930.0459     -2005.4925     -1960.3121      16.49194      -46.707285     -3.3822785      15234.964    
     37000   405.22071      0.0185         0.19849066     0.20605223     0.201402      -1993.4037      674.11142      674.11142      674.11142      3.063339e+08   1.7451943     -27502183      -27502183       1206.6781     -27500977      -1958.9505     -2033.5774     -1987.6832      16.5788       -46.305813      0.53973394     15232.901    
     38000   407.25284      0.019          0.20153245     0.2091541      0.20462961    -2024.2328      674.44236      674.44236      674.44236      3.0678528e+08  1.7426265     -27489561      -27489561       1212.7294     -27488349      -1988.9706     -2064.1905     -2019.5372      16.796836     -46.093363      2.8772127      15260.862    
     39000   408.16381      0.0195         0.20480043     0.21236081     0.20793573    -2056.4091      674.77329      674.77329      674.77329      3.0723709e+08  1.7400639     -27476721      -27476721       1215.4421     -27475506      -2021.223      -2095.8383     -2052.1661      16.520203     -46.447443      2.3260728      15224.653    
     40000   409.09336      0.02           0.20797595     0.21505342     0.21082708    -2085.2256      675.10422      675.10422      675.10422      3.0768936e+08  1.7375062     -27463673      -27463673       1218.2102     -27462455      -2052.563      -2122.4123     -2080.7015      15.59094      -45.573699      1.1207204      15244.477    
     41000   410.81431      0.0205         0.21095267     0.21739253     0.21358573    -2111.7886      675.43516      675.43516      675.43516      3.0814206e+08  1.7349535     -27450439      -27450439       1223.3349     -27449216      -2081.941      -2145.4974     -2107.9273      14.300687     -43.518865      2.3506826      15257.027    
     42000   412.78994      0.021          0.21369638     0.21988441     0.21624682    -2137.7666      675.76609      675.76609      675.76609      3.0859521e+08  1.7324059     -27437026      -27437026       1229.218      -27435797      -2109.0193     -2170.0904     -2134.1902      13.258532     -43.06833       4.0132212      15237.179    
     43000   414.74635      0.0215         0.21626991     0.22234941     0.21863887    -2162.2113      676.09702      676.09702      676.09702      3.0904881e+08  1.7298632     -27423437      -27423437       1235.0438     -27422202      -2134.4181     -2194.4181     -2157.7978      12.773326     -44.643193      4.578554       15231.972    
     44000   416.80882      0.022          0.21896261     0.22468444     0.22093589    -2186.3079      676.42796      676.42796      676.42796      3.0950285e+08  1.7273255     -27409682      -27409682       1241.1855     -27408441      -2160.9929     -2217.463      -2180.4677      13.10853      -46.073839      4.2994653      363.41965    
     45000   418.888        0.0225         0.22179602     0.2271191      0.22327919    -2211.3473      676.75889      676.75889      676.75889      3.0995733e+08  1.7247928     -27395767      -27395767       1247.3769     -27394520      -2188.9565     -2241.4912     -2203.5943      13.34604      -45.429967      3.8870454      14820.639    
     46000   420.9312       0.023          0.224448       0.22956385     0.22564062    -2235.8828      677.08982      677.08982      677.08982      3.1041226e+08  1.722265      -27381685      -27381685       1253.4612     -27380432      -2215.1295     -2265.6191     -2226.8998      12.963856     -43.276523      4.4536041      14678.03     
     47000   423.08904      0.0235         0.22668254     0.23177293     0.22803006    -2258.3618      677.42076      677.42076      677.42076      3.1086763e+08  1.7197422     -27367433      -27367433       1259.8869     -27366174      -2237.1828     -2287.421      -2250.4817      12.420975     -42.6179        5.9738211      14898        
     48000   424.96924      0.024          0.2288352      0.23388974     0.23041178    -2280.2425      677.75169      677.75169      677.75169      3.1132345e+08  1.7172242     -27353023      -27353023       1265.4858     -27351758      -2258.4278     -2308.3122     -2273.9875      11.11393      -43.603613      6.6284017      15126.277    
     49000   426.22241      0.0245         0.23100705     0.23586475     0.23247241    -2300.6636      678.08262      678.08262      678.08262      3.1177971e+08  1.7147112     -27338468      -27338468       1269.2176     -27337199      -2279.8623     -2327.8041     -2294.3243      9.6700462     -43.616525      6.6397558      14845.049    
     50000   427.26949      0.025          0.23299015     0.23769539     0.2342497     -2319.0566      678.41356      678.41356      678.41356      3.1223642e+08  1.7122031     -27323778      -27323778       1272.3356     -27322506      -2299.434      -2345.8711     -2311.8648      9.0864512     -42.276405      7.5677202      14409.885    
     51000   428.57294      0.0255         0.23506692     0.23956578     0.2360727     -2338.039       678.74449      678.74449      678.74449      3.1269357e+08  1.7096999     -27308951      -27308951       1276.217      -27307675      -2319.9301     -2364.3304     -2329.8564      9.2133492     -42.192277      8.7486362      15098.021    
     52000   430.05685      0.026          0.23745615     0.24151492     0.23821765    -2359.3674      679.07542      679.07542      679.07542      3.1315117e+08  1.7072015     -27293979      -27293979       1280.6359     -27292698      -2343.51       -2383.5669     -2351.0254      8.5986829     -42.735414      9.7537026      14751.42     
     53000   431.79709      0.0265         0.23978331     0.24341713     0.24036059    -2380.3307      679.40636      679.40636      679.40636      3.1360922e+08  1.7047081     -27278862      -27278862       1285.818      -27277576      -2366.4772     -2402.3403     -2372.1746      7.6168824     -41.770299      10.114508      14894.571    
     54000   433.81595      0.027          0.24166975     0.245109       0.24214527    -2397.9736      679.73729      679.73729      679.73729      3.1406771e+08  1.7022194     -27263618      -27263618       1291.8298     -27262326      -2385.095      -2419.0377     -2389.788       7.4533641     -40.499794      10.297145      14380.657    
     55000   435.70387      0.0275         0.24312531     0.24663806     0.24357858    -2412.5074      680.06822      680.06822      680.06822      3.1452665e+08  1.6997357     -27248261      -27248261       1297.4517     -27246964      -2399.4602     -2434.1284     -2403.9336      6.999279      -39.699783      10.284248      15100.758    
     56000   437.15258      0.028          0.2445097      0.24797479     0.24484194    -2425.6153      680.39916      680.39916      680.39916      3.1498604e+08  1.6972567     -27232798      -27232798       1301.7657     -27231496      -2413.1231     -2447.3209     -2416.4021      5.7146923     -39.724382      9.6771756      14815.98     
     57000   438.12666      0.0285         0.24583025     0.24915557     0.24619593    -2438.2984      680.73009      680.73009      680.73009      3.1544587e+08  1.6947826     -27217227      -27217227       1304.6664     -27215922      -2426.1559     -2458.9743     -2429.7649      4.9591697     -39.570794      10.359878      15091.119    
     58000   438.65112      0.029          0.24728846     0.25060715     0.24775927    -2453.0139      681.06103      681.06103      681.06103      3.1590615e+08  1.6923132     -27201546      -27201546       1306.2281     -27200240      -2440.5473     -2473.3003     -2445.1939      4.7774538     -39.461632      11.768054      14928.565    
     59000   439.26767      0.0295         0.24897663     0.25209661     0.24912755    -2467.9687      681.39196      681.39196      681.39196      3.1636688e+08  1.6898487     -27185766      -27185766       1308.0641     -27184458      -2457.2083     -2488.0001     -2458.6977      5.1767864     -38.893446      12.779521      14740.275    
     60000   440.88238      0.03           0.25066898     0.2532975      0.25024087    -2481.1493      681.72289      681.72289      681.72289      3.1682806e+08  1.687389      -27169890      -27169890       1312.8725     -27168577      -2473.9105     -2499.852      -2469.6853      5.3725901     -37.93904       13.366308      14943.083    
     61000   442.88441      0.0305         0.2522461      0.25442463     0.25158978    -2494.4831      682.05383      682.05383      682.05383      3.1728968e+08  1.684934      -27153920      -27153920       1318.8342     -27152601      -2489.4754     -2510.9759     -2482.9981      5.4533196     -37.486564      13.155532      14899.734    
     62000   444.33622      0.031          0.2535269      0.25555188     0.25297754    -2506.9704      682.38476      682.38476      682.38476      3.1775175e+08  1.6824838     -27137854      -27137854       1323.1574     -27136531      -2502.116      -2522.101      -2496.6942      5.0103786     -37.503202      13.469294      15070.032    
     63000   445.09097      0.0315         0.25452472     0.25653941     0.25404964    -2517.0286      682.71569      682.71569      682.71569      3.1821427e+08  1.6800383     -27121696      -27121696       1325.4049     -27120370      -2511.9636     -2531.8471     -2507.275       3.6407496     -38.196848      15.004559      15112.072    
     64000   445.50935      0.032          0.25539557     0.25741599     0.25497022    -2525.8057      683.04663      683.04663      683.04663      3.1867724e+08  1.6775976     -27105456      -27105456       1326.6508     -27104130      -2520.5583     -2540.4983     -2516.3604      2.3294007     -37.794953      15.855745      15052.861    
     65000   445.98021      0.0325         0.25636219     0.25838818     0.25603993    -2535.7029      683.37756      683.37756      683.37756      3.1914066e+08  1.6751616     -27089136      -27089136       1328.0529     -27087808      -2530.0981     -2550.0931     -2526.9176      1.5445687     -35.237643      15.544585      15094.716    
     66000   446.47676      0.033          0.25745402     0.25952804     0.25728448    -2547.1389      683.70849      683.70849      683.70849      3.1960453e+08  1.6727303     -27072729      -27072729       1329.5315     -27071399      -2540.8737     -2561.3427     -2539.2004      1.2233571     -33.603982      15.108908      15027.702    
     67000   447.33106      0.0335         0.25859693     0.2606923      0.25831151    -2558.1076      684.03943      684.03943      684.03943      3.2006884e+08  1.6703037     -27056241      -27056241       1332.0755     -27054909      -2552.1533     -2572.833      -2549.3364      1.0449412     -34.003762      15.460739      15152.352    
     68000   448.35157      0.034          0.25964621     0.26175429     0.25897767    -2567.2446      684.37036      684.37036      684.37036      3.2053361e+08  1.6678818     -27039683      -27039683       1335.1144     -27038348      -2562.5089     -2583.3139     -2555.9108      1.3327911     -35.098953      16.03926       15164.695    
     69000   449.17581      0.0345         0.26056827     0.26229953     0.25935617    -2573.3168      684.70129      684.70129      684.70129      3.2099883e+08  1.6654646     -27023063      -27023063       1337.5689     -27021726      -2571.6089     -2588.6951     -2559.6464      1.461965      -36.292366      16.849383      15084.911    
     70000   449.92453      0.035          0.26126721     0.26242708     0.25969914    -2577.164       685.03223      685.03223      685.03223      3.2146449e+08  1.663052      -27006397      -27006397       1339.7984     -27005058      -2578.5069     -2589.9539     -2563.0312      1.111093      -35.927621      16.872153      15192.928    
     71000   450.60451      0.0355         0.26172729     0.26242682     0.26026931    -2580.5524      685.36316      685.36316      685.36316      3.2193061e+08  1.6606441     -26989688      -26989688       1341.8233     -26988346      -2583.0475     -2589.9513     -2568.6584     -0.99585107    -34.458932      16.381609      15000.04     
     72000   450.75864      0.036          0.26210875     0.26274381     0.26111228    -2585.6233      685.69409      685.69409      685.69409      3.2239717e+08  1.6582409     -26972932      -26972932       1342.2823     -26971590      -2586.8123     -2593.0798     -2576.9778     -2.8169834     -32.803373      18.007189      14949.984    
     73000   450.32568      0.0365         0.26246743     0.26343172     0.26187719    -2591.5827      686.02503      686.02503      686.02503      3.2286419e+08  1.6558422     -26956123      -26956123       1340.993      -26954782      -2590.3521     -2599.8689     -2584.527      -2.3516739     -31.692285      19.838767      15045.015    
     74000   449.63745      0.037          0.2629055      0.26414233     0.2623745     -2596.9976      686.35596      686.35596      686.35596      3.2333166e+08  1.6534483     -26939256      -26939256       1338.9435     -26937917      -2594.6756     -2606.8821     -2589.435      -1.2997617     -31.708147      19.097922      15176.818    
     75000   449.59655      0.0375         0.26327192     0.26446747     0.26262761    -2600.1053      686.68689      686.68689      686.68689      3.2379958e+08  1.6510589     -26922346      -26922346       1338.8217     -26921007      -2598.2918     -2610.091      -2591.933      -1.564941      -31.650911      17.606314      15065.109    
     76000   450.38351      0.038          0.26374637     0.26455436     0.26272413    -2602.2695      687.01783      687.01783      687.01783      3.2426795e+08  1.6486741     -26905416      -26905416       1341.1652     -26904075      -2602.9743     -2610.9485     -2592.8855     -2.9459027     -31.071347      17.63993       14818.613    
     77000   451.38074      0.0385         0.26435482     0.26441649     0.2628634     -2604.2757      687.34876      687.34876      687.34876      3.2473677e+08  1.6462939     -26888463      -26888463       1344.1348     -26887119      -2608.9792     -2609.5879     -2594.26       -4.4466717     -30.637392      17.823002      15195.1      
     78000   451.99758      0.039          0.26459411     0.26433995     0.26323298    -2606.0269      687.67969      687.67969      687.67969      3.2520604e+08  1.6439183     -26871479      -26871479       1345.9716     -26870133      -2611.3409     -2608.8325     -2597.9075     -4.9572143     -29.81593       18.187989      15001.205    
     79000   452.0119       0.0395         0.26450852     0.26457279     0.26363664    -2607.8393      688.01063      688.01063      688.01063      3.2567576e+08  1.6415473     -26854463      -26854463       1346.0143     -26853117      -2610.4961     -2611.1304     -2601.8913     -4.2854417     -29.211879      18.595573      15035.477    
     80000   451.39127      0.04           0.26453272     0.26486126     0.263935      -2609.8494      688.34156      688.34156      688.34156      3.2614594e+08  1.6391808     -26837414      -26837414       1344.1661     -26836070      -2610.735      -2613.9774     -2604.8359     -3.4360657     -28.996624      17.984121      15206.858    
     81000   450.60125      0.0405         0.26478503     0.26485274     0.26394551    -2610.686       688.67249      688.67249      688.67249      3.2661657e+08  1.6368189     -26820339      -26820339       1341.8136     -26818997      -2613.225      -2613.8933     -2604.9397     -3.833681      -29.439561      17.487445      15061.695    
     82000   450.36263      0.041          0.26495563     0.26459747     0.26354345    -2609.0848      689.00343      689.00343      689.00343      3.2708765e+08  1.6344615     -26803251      -26803251       1341.103      -26801910      -2614.9087     -2611.374      -2600.9717     -5.0598376     -29.742253      17.444911      15159.599    
     83000   450.73252      0.0415         0.26495047     0.26442153     0.26314393    -2607.1747      689.33436      689.33436      689.33436      3.2755919e+08  1.6321086     -26786164      -26786164       1342.2045     -26784822      -2614.8578     -2609.6376     -2597.0287     -5.77844       -28.629545      17.864716      15207.47     
     84000   451.34351      0.042          0.2648806      0.26421911     0.26309006    -2606.1018      689.66529      689.66529      689.66529      3.2803117e+08  1.6297603     -26769077      -26769077       1344.0239     -26767733      -2614.1683     -2607.6399     -2596.497      -5.1354015     -27.091719      18.452075      15198.142    
     85000   451.41372      0.0425         0.26476338     0.26398101     0.263217      -2605.3504      689.99623      689.99623      689.99623      3.2850361e+08  1.6274164     -26751984      -26751984       1344.233      -26750640      -2613.0114     -2605.29       -2597.7498     -4.5763279     -27.121749      17.957283      15034.227    
     86000   450.97067      0.043          0.26428375     0.26353195     0.26300995    -2601.6141      690.32716      690.32716      690.32716      3.2897651e+08  1.625077      -26734887      -26734887       1342.9136     -26733544      -2608.2778     -2600.8581     -2595.7064     -5.1853978     -28.054394      16.207438      14991.359    
     87000   450.62801      0.0435         0.26362523     0.26293442     0.26264142    -2596.2697      690.6581       690.6581       690.6581       3.2944985e+08  1.6227422     -26717803      -26717803       1341.8933     -26716461      -2601.7788     -2594.9609     -2592.0693     -5.4660207     -27.678461      15.283206      15157.625    
     88000   450.02971      0.044          0.26324351     0.26255577     0.26226445    -2592.5281      690.98903      690.98903      690.98903      3.2992366e+08  1.6204117     -26700731      -26700731       1340.1116     -26699391      -2598.0115     -2591.2239     -2588.3489     -5.8195491     -26.704907      15.726257      15153.588    
     89000   448.89311      0.0445         0.26314057     0.26226397     0.26177934    -2589.6336      691.31996      691.31996      691.31996      3.3039791e+08  1.6180858     -26683657      -26683657       1336.727      -26682320      -2596.9955     -2588.3441     -2583.5612     -7.1702034     -26.503422      16.10376       14992.245    
     90000   447.69925      0.045          0.26288735     0.26174963     0.26130643    -2585.5528      691.6509       691.6509       691.6509       3.3087262e+08  1.6157643     -26666588      -26666588       1333.1719     -26665255      -2594.4964     -2583.268      -2578.894      -8.2108311     -25.996918      16.166652      15177.604    
     91000   446.98056      0.0455         0.26232722     0.26101996     0.2607827     -2579.5868      691.98183      691.98183      691.98183      3.3134778e+08  1.6134472     -26649543      -26649543       1331.0318     -26648212      -2588.9684     -2576.0667     -2573.7252     -8.4204762     -24.70844       16.530371      14997.694    
     92000   446.52487      0.046          0.26172002     0.26035648     0.26021123    -2573.5266      692.31276      692.31276      692.31276      3.318234e+08   1.6111346     -26632528      -26632528       1329.6748     -26631198      -2582.9758     -2569.5187     -2568.0852     -8.1889989     -23.748438      17.168087      15122.001    
     93000   445.75698      0.0465         0.26126015     0.25976848     0.25957173    -2567.9755      692.6437       692.6437       692.6437       3.3229948e+08  1.6088264     -26615536      -26615536       1327.3882     -26614208      -2578.4372     -2563.7156     -2561.7738     -7.4580435     -22.554404      16.794428      15034.549    
     94000   444.80913      0.047          0.26066938     0.2588863      0.25877483    -2560.5083      692.97463      692.97463      692.97463      3.3277601e+08  1.6065226     -26598560      -26598560       1324.5656     -26597236      -2572.6067     -2555.0091     -2553.909      -6.7862338     -20.477101      15.708932      15189.262    
     95000   444.21506      0.0475         0.25990259     0.25791985     0.2578795     -2551.861       693.30556      693.30556      693.30556      3.3325299e+08  1.6042232     -26581613      -26581613       1322.7966     -26580290      -2565.0391     -2545.4711     -2545.0728     -6.4968413     -18.786447      14.327249      15090.224    
     96000   443.81298      0.048          0.25904912     0.25714055     0.25702811    -2543.6887      693.6365       693.6365       693.6365       3.3373043e+08  1.6019281     -26564714      -26564714       1321.5993     -26563392      -2556.6161     -2537.7799     -2536.6702     -7.0400267     -18.423946      13.484282      15128.488    
     97000   443.1193       0.0485         0.25822615     0.2565659      0.25626683    -2536.5865      693.96743      693.96743      693.96743      3.3420832e+08  1.5996375     -26547861      -26547861       1319.5336     -26546541      -2548.4939     -2532.1086     -2529.157      -8.0992786     -19.645733      12.717131      15192.7      
     98000   441.89205      0.049          0.2573876      0.2558825      0.25537436    -2528.6437      694.29836      694.29836      694.29836      3.3468668e+08  1.5973512     -26531045      -26531045       1315.8791     -26529729      -2540.2181     -2525.3639     -2520.349      -9.1856114     -21.469786      11.726076      15198.137    
     99000   440.63017      0.0495         0.25635271     0.25488817     0.25436108    -2518.6346      694.6293       694.6293       694.6293       3.3516548e+08  1.5950693     -26514263      -26514263       1312.1214     -26512951      -2530.0045     -2515.5507     -2510.3486     -9.57381       -21.438         11.601122      15126.599    
    100000   439.64711      0.05           0.2553009      0.25380599     0.25342179    -2508.5244      694.96023      694.96023      694.96023      3.3564475e+08  1.5927917     -26497523      -26497523       1309.194      -26496214      -2519.624      -2504.8704     -2501.0786     -8.6301681     -19.801071      12.26462       14612.616    
    101000   438.82272      0.0505         0.25438938     0.25271425     0.25259461    -2499.2129      695.29116      695.29116      695.29116      3.3612447e+08  1.5905184     -26480834      -26480834       1306.7391     -26479527      -2510.6279     -2494.0958     -2492.915      -7.3309801     -18.824658      12.287428      15102.468    
    102000   437.97205      0.051          0.25348733     0.25163847     0.25163544    -2489.5509      695.6221       695.6221       695.6221       3.3660465e+08  1.5882495     -26464196      -26464196       1304.206      -26462892      -2501.7255     -2483.4786     -2483.4487     -7.1887204     -18.112138      11.567015      14822.737    
    103000   436.87032      0.0515         0.25250075     0.25063626     0.25053173    -2479.3774      695.95303      695.95303      695.95303      3.3708528e+08  1.5859849     -26447610      -26447610       1300.9252     -26446309      -2491.9886     -2473.5876     -2472.5559     -8.7061297     -16.46282       11.306649      14949.175    
    104000   435.57491      0.052          0.25148387     0.24952174     0.2492625     -2468.1902      696.28396      696.28396      696.28396      3.3756637e+08  1.5837246     -26431072      -26431072       1297.0677     -26429775      -2481.9528     -2462.5882     -2460.0296     -9.9632803     -15.05258       12.033752      15155.576    
    105000   434.37058      0.0525         0.25044208     0.24823082     0.24786503    -2455.9189      696.6149       696.6149       696.6149       3.3804792e+08  1.5814686     -26414598      -26414598       1293.4814     -26413305      -2471.6712     -2449.8478     -2446.2376     -10.188707     -14.532398      12.526235      15003.852    
    106000   433.2947       0.053          0.24927526     0.24693738     0.24652011    -2443.4008      696.94583      696.94583      696.94583      3.3852993e+08  1.5792168     -26398196      -26398196       1290.2776     -26396906      -2460.1556     -2437.0825     -2432.9643     -10.240568     -14.57049       12.237417      14915.104    
    107000   431.90012      0.0535         0.24805784     0.24586103     0.24527777    -2431.7678      697.27676      697.27676      697.27676      3.390124e+08   1.5769694     -26381866      -26381866       1286.1248     -26380580      -2448.1405     -2426.4597     -2420.7033     -10.651612     -13.28453       11.626683      15160.799    
    108000   430.07612      0.054          0.24677112     0.24469607     0.24400356    -2419.5107      697.6077       697.6077       697.6077       3.3949532e+08  1.5747262     -26365594      -26365594       1280.6933     -26364314      -2435.4416     -2414.9625     -2408.1279     -10.780498     -11.167723      11.323452      15098.96     
    109000   428.33898      0.0545         0.245338       0.24321885     0.24258521    -2405.2704      697.93863      697.93863      697.93863      3.399787e+08   1.5724872     -26349383      -26349383       1275.5203     -26348107      -2421.2978     -2400.3834     -2394.1299     -10.408387     -10.631874      11.259105      15187.514    
    110000   426.96639      0.055          0.24390903     0.24168301     0.24119875    -2390.9558      698.26956      698.26956      698.26956      3.4046254e+08  1.5702525     -26333250      -26333250       1271.433      -26331979      -2407.195      -2385.2258     -2380.4466     -9.6137959     -11.71833       10.929474      15102.054    
    111000   425.73144      0.0555         0.24259908     0.24040406     0.23992951    -2378.2635      698.6005       698.6005       698.6005       3.4094684e+08  1.568022      -26317198      -26317198       1267.7555     -26315930      -2394.2668     -2372.6036     -2367.9201     -9.5775355     -12.786215      10.351832      15082.924    
    112000   424.62341      0.056          0.2413778      0.23926938     0.23862777    -2366.2306      698.93143      698.93143      698.93143      3.414316e+08   1.5657958     -26301217      -26301217       1264.456      -26299952      -2382.2137     -2361.4052     -2355.073      -9.371882      -12.021324      9.9478947      14970.174    
    113000   423.39949      0.0565         0.24003463     0.23795089     0.23728859    -2353.0689      699.26236      699.26236      699.26236      3.4191682e+08  1.5635738     -26285312      -26285312       1260.8114     -26284051      -2368.9576     -2348.3927     -2341.8563     -9.5443635     -9.5318474      9.7705152      15101.255    
    114000   421.89077      0.057          0.23853371     0.2363262      0.23584899    -2338.0505      699.5933       699.5933       699.5933       3.424025e+08   1.5613559     -26269485      -26269485       1256.3187     -26268229      -2354.1447     -2332.3583     -2327.6486     -11.078058     -7.1700559      9.5367792      15039.061    
    115000   420.1358       0.0575         0.23706051     0.23474549     0.23429749    -2322.8999      699.92423      699.92423      699.92423      3.4288863e+08  1.5591423     -26253734      -26253734       1251.0927     -26252483      -2339.6053     -2316.7579     -2312.3364     -12.700503     -7.3093625      9.4463656      15138.262    
    116000   418.12583      0.058          0.23575857     0.23339535     0.23277409    -2309.1636      700.25517      700.25517      700.25517      3.4337523e+08  1.5569328     -26238059      -26238059       1245.1073     -26236814      -2326.7561     -2303.433      -2297.3016     -13.078998     -8.1436056      9.6784017      15181.37     
    117000   416.26236      0.0585         0.23430367     0.2320298      0.2312996     -2295.0344      700.5861       700.5861       700.5861       3.4386229e+08  1.5547275     -26222462      -26222462       1239.5582     -26221222      -2312.3974     -2289.9561     -2282.7496     -11.391396     -6.9349411      8.9974328      14987.22     
    118000   414.92466      0.059          0.23255345     0.2305504      0.22979807    -2279.4701      700.91703      700.91703      700.91703      3.443498e+08   1.5525264     -26206952      -26206952       1235.5748     -26205717      -2295.1241     -2275.3556     -2267.9306     -9.221828      -5.4288262      7.6318204      15126.88     
    119000   414.03991      0.0595         0.23079729     0.22895308     0.22808628    -2262.8066      701.24797      701.24797      701.24797      3.4483778e+08  1.5503294     -26191543      -26191543       1232.9401     -26190310      -2277.7921     -2259.5912     -2251.0366     -8.7969455     -5.8069207      6.9290681      15083.302    
    120000   413.02532      0.06           0.2293611      0.22737741     0.22633391    -2247.1335      701.5789       701.5789       701.5789       3.4532622e+08  1.5481366     -26176232      -26176232       1229.9189     -26175003      -2263.618      -2244.0405     -2233.742      -9.8964469     -6.0851749      6.4265809      15177.393    
    121000   411.35824      0.0605         0.22798866     0.22584075     0.22479886    -2232.5134      701.90983      701.90983      701.90983      3.4581512e+08  1.5459479     -26161006      -26161006       1224.9546     -26159781      -2250.0731     -2228.8749     -2218.5922     -10.422423     -5.045759       5.2086136      14816.041    
    122000   409.59372      0.061          0.22639889     0.22417814     0.22339009    -2217.1794      702.24077      702.24077      702.24077      3.4630448e+08  1.5437634     -26145863      -26145863       1219.7002     -26144643      -2234.3833     -2212.4662     -2204.6887     -9.8230742     -4.162227       4.5853217      15123.164    
    123000   408.19266      0.0615         0.22462938     0.22239725     0.22197589    -2200.8472      702.5717       702.5717       702.5717       3.467943e+08   1.5415829     -26130813      -26130813       1215.5281     -26129597      -2216.9196     -2194.8902     -2190.7317     -9.329573      -3.9925346      4.579042       15024.197    
    124000   406.54346      0.062          0.22300594     0.2208451      0.22056856    -2185.7705      702.90263      702.90263      702.90263      3.4728459e+08  1.5394065     -26115850      -26115850       1210.617      -26114640      -2200.8975     -2179.5717     -2176.8424     -8.7859078     -4.0688604      4.4285545      15203.032    
    125000   404.39685      0.0625         0.22147172     0.21947038     0.21903129    -2171.1437      703.23357      703.23357      703.23357      3.4777533e+08  1.5372343     -26100977      -26100977       1204.2248     -26099773      -2185.756      -2166.0042     -2161.6708     -7.2140881     -4.1216475      4.1012264      14970.607    
    126000   402.64738      0.063          0.21985824     0.21790138     0.21731637    -2155.0325      703.5645       703.5645       703.5645       3.4826654e+08  1.5350661     -26086196      -26086196       1199.0151     -26084997      -2169.8321     -2150.5195     -2144.7458     -6.0112773     -3.705811       3.0842966      15132.967    
    127000   401.41954      0.0635         0.21824881     0.21622671     0.21568031    -2138.8464      703.89543      703.89543      703.89543      3.4875821e+08  1.532902      -26071514      -26071514       1195.3588     -26070318      -2153.9483     -2133.9917     -2128.5991     -6.4933188     -2.6247163      1.3558873      15009.182    
    128000   400.39857      0.064          0.21665393     0.2146383      0.21424723    -2123.6597      704.22637      704.22637      704.22637      3.4925034e+08  1.530742      -26056922      -26056922       1192.3186     -26055729      -2138.208      -2118.3153     -2114.4557     -7.7587161     -1.9782775      0.70499869     14963.132    
    129000   399.07746      0.0645         0.21523861     0.2132026      0.2129736     -2110.0907      704.5573       704.5573       704.5573       3.4974294e+08  1.528586      -26042410      -26042410       1188.3845     -26041221      -2124.2399     -2104.1461     -2101.886      -7.7937191     -2.7690136      1.4716226      15100.097    
    130000   397.26425      0.065          0.21384507     0.2117229      0.21166935    -2096.3478      704.88823      704.88823      704.88823      3.50236e+08    1.5264341     -26027973      -26027973       1182.9851     -26026790      -2110.4867     -2089.5426     -2089.014      -6.1898189     -3.9857789      1.9123926      15144.672    
    131000   395.57687      0.0655         0.21221091     0.20992709     0.21027851    -2080.4886      705.21917      705.21917      705.21917      3.5072952e+08  1.5242862     -26013625      -26013625       1177.9604     -26012447      -2094.3588     -2071.8193     -2075.2876     -4.3979469     -4.0913955      1.2472201      14981.008    
    132000   394.28067      0.066          0.21051958     0.20812068     0.20872731    -2063.8788      705.5501       705.5501       705.5501       3.5122351e+08  1.5221423     -25999381      -25999381       1174.1005     -25998207      -2077.6667     -2053.9915     -2059.9784     -3.5715862     -3.1267387      0.25879357     15173.263    
    133000   392.91588      0.0665         0.20895062     0.20651857     0.2071098     -2048.1256      705.88103      705.88103      705.88103      3.5171795e+08  1.5200025     -25985237      -25985237       1170.0364     -25984067      -2062.1823     -2038.1798     -2044.0148     -3.9735673     -2.4854184     -0.49138467     14996.251    
    134000   391.24967      0.067          0.20756684     0.20509946     0.20561738    -2033.9951      706.21197      706.21197      706.21197      3.5221287e+08  1.5178667     -25971169      -25971169       1165.0747     -25970004      -2048.5254     -2024.1743     -2029.2857     -4.9410468     -3.0078177     -1.1985284      15169.426    
    135000   389.68172      0.0675         0.20614816     0.20372932     0.20416573    -2020.0451      706.5429       706.5429       706.5429       3.5270824e+08  1.5157348     -25957173      -25957173       1160.4056     -25956013      -2034.5242     -2010.652      -2014.9591     -6.1270312     -4.2472989     -1.6993691      15100.437    
    136000   388.40688      0.068          0.20453349     0.20223485     0.20274816    -2005.1534      706.87383      706.87383      706.87383      3.5320408e+08  1.513607      -25943271      -25943271       1156.6094     -25942114      -2018.5886     -1995.9028     -2000.9687     -5.7134586     -4.7182421     -2.300653       14820.283    
    137000   387.06827      0.0685         0.20297194     0.20062287     0.20131706    -1990.0053      707.20477      707.20477      707.20477      3.5370039e+08  1.5114831     -25929468      -25929468       1152.6232     -25928315      -2003.1773     -1979.9938     -1986.8449     -2.8490207     -4.0561997     -2.9012298      15179.565    
    138000   385.39906      0.069          0.2016314      0.19908398     0.19980672    -1975.5641      707.5357       707.5357       707.5357       3.5419716e+08  1.5093632     -25915755      -25915755       1147.6526     -25914607      -1989.9472     -1964.8061     -1971.939      -0.50866502    -2.3430207     -3.2558115      15133.019    
    139000   383.58859      0.0695         0.20035042     0.19763916     0.19842646    -1962.0562      707.86663      707.86663      707.86663      3.546944e+08   1.5072473     -25902120      -25902120       1142.2613     -25900978      -1977.3049     -1950.5468     -1958.3169     -0.87682841    -1.6041053     -3.6926426      15115.601    
    140000   382.00944      0.07           0.19898282     0.19628946     0.19724235    -1949.2216      708.19757      708.19757      708.19757      3.551921e+08   1.5051353     -25888553      -25888553       1137.5589     -25887415      -1963.8078     -1937.2263     -1946.6306     -1.9961386     -2.7842381     -3.9049544      15113.331    
    141000   381.14829      0.0705         0.19749806     0.19510766     0.19595984    -1936.2301      708.5285       708.5285       708.5285       3.5569026e+08  1.5030273     -25875060      -25875060       1134.9945     -25873925      -1949.1543     -1925.5629     -1933.9732     -1.411362      -3.916502      -3.6359992      14969.362    
    142000   380.73093      0.071          0.19612372     0.19386878     0.19453121    -1922.9335      708.85943      708.85943      708.85943      3.5618889e+08  1.5009232     -25861652      -25861652       1133.7517     -25860518      -1935.5906     -1913.3361     -1919.8737     -0.20692144    -4.0746193     -3.2160374      15172.789    
    143000   379.79098      0.0715         0.19491169     0.19243041     0.19328423    -1910.1121      709.19037      709.19037      709.19037      3.5668799e+08  1.498823      -25848324      -25848324       1130.9527     -25847193      -1923.6289     -1899.1405     -1907.567      -0.1165497     -4.0854828     -3.4294271      15005.112    
    144000   378.11625      0.072          0.19370777     0.19100578     0.19207621    -1897.4908      709.5213       709.5213       709.5213       3.5718755e+08  1.4967268     -25835069      -25835069       1125.9656     -25833943      -1911.747      -1885.0805     -1895.6448     -1.0281969     -4.5800518     -5.282153       15147.287    
    145000   376.18359      0.0725         0.19242128     0.18982709     0.19067371    -1884.7671      709.85223      709.85223      709.85223      3.5768758e+08  1.4946344     -25821883      -25821883       1120.2105     -25820763      -1899.0504     -1873.4478     -1881.8032     -1.7214307     -5.0589195     -7.8680156      15099.413    
    146000   374.4748       0.073          0.19110066     0.18864139     0.18927948    -1871.9353      710.18317      710.18317      710.18317      3.5818808e+08  1.492546      -25808770      -25808770       1115.122      -25807655      -1886.0169     -1861.7458     -1868.0432     -0.33320638    -4.552428      -7.9018085      15173.038    
    147000   373.17463      0.0735         0.18973402     0.18726482     0.18815112    -1859.1988      710.5141       710.5141       710.5141       3.5868904e+08  1.4904614     -25795734      -25795734       1111.2503     -25794623      -1872.5292     -1848.1601     -1856.9072      1.5531254     -4.1536969     -5.6715312      14996.381    
    148000   371.88116      0.074          0.18843643     0.18594803     0.18720416    -1847.4829      710.84504      710.84504      710.84504      3.5919047e+08  1.4883807     -25782774      -25782774       1107.3986     -25781666      -1859.7229     -1835.1644     -1847.5615      2.0936738     -4.2048544     -4.2315652      15171.507    
    149000   370.39966      0.0745         0.18733967     0.18489517     0.18616233    -1836.9839      711.17597      711.17597      711.17597      3.5969236e+08  1.4863039     -25769875      -25769875       1102.9869     -25768772      -1848.8988     -1824.7735     -1837.2794      1.4683346     -4.948304      -4.5276195      15103.931    
    150000   368.83109      0.075          0.18634566     0.18403998     0.18495921    -1826.9425      711.5069       711.5069       711.5069       3.6019473e+08  1.484231      -25757027      -25757027       1098.316      -25755929      -1839.0886     -1816.3333     -1825.4055      1.2259165     -6.1782384     -6.2966861      14398.731    
    151000   367.66599      0.0755         0.18523694     0.18303653     0.18369903    -1815.8483      711.83784      711.83784      711.83784      3.6069756e+08  1.4821619     -25744240      -25744240       1094.8465     -25743145      -1828.1464     -1806.4301     -1812.9684      1.9898883     -6.7258022     -7.81393        15097.046    
    152000   366.97403      0.076          0.18399028     0.18188688     0.18257348    -1804.2623      712.16877      712.16877      712.16877      3.6120086e+08  1.4800966     -25731517      -25731517       1092.786      -25730424      -1815.8428     -1795.0839     -1801.8602      2.2082684     -6.4713694     -7.9369856      14729.855    
    153000   366.17723      0.0765         0.18275853     0.1806993      0.18168921    -1793.3943      712.4997       712.4997       712.4997       3.6170462e+08  1.4780352     -25718857      -25718857       1090.4133     -25717767      -1803.6864     -1783.3635     -1793.1331      1.6536009     -6.4629683     -6.9929804      14961.445    
    154000   365.02708      0.077          0.18158786     0.17958222     0.18068894    -1782.5775      712.83064      712.83064      712.83064      3.6220886e+08  1.4759776     -25706263      -25706263       1086.9883     -25705176      -1792.1328     -1772.3387     -1783.2612      0.96332741    -6.6645534     -6.2200983      14989.554    
    155000   363.7262       0.0775         0.1805116      0.17863432     0.17939191    -1771.6517      713.16157      713.16157      713.16157      3.6271356e+08  1.4739238     -25693737      -25693737       1083.1145     -25692654      -1781.511      -1762.9837     -1770.4605      0.48965769    -7.1249254     -7.596529       14797.164    
    156000   362.6732       0.078          0.17943137     0.17774811     0.17799011    -1760.5711      713.4925       713.4925       713.4925       3.6321874e+08  1.4718739     -25681279      -25681279       1079.9789     -25680199      -1770.85       -1754.2375     -1756.6258      0.2730403     -7.3900765     -9.7796472      14992.714    
    157000   361.73639      0.0785         0.17846283     0.17682962     0.17696479    -1750.9902      713.82344      713.82344      713.82344      3.6372438e+08  1.4698277     -25668883      -25668883       1077.1892     -25667806      -1761.2912     -1745.1727     -1746.5067      1.0063628     -7.0564586     -9.7306285      14949.241    
    158000   360.31353      0.079          0.17771198     0.1759261      0.17639812    -1743.6835      714.15437      714.15437      714.15437      3.6423049e+08  1.4677853     -25656528      -25656528       1072.9522     -25655455      -1753.8809     -1736.2556     -1740.9141      3.0915101     -6.9074382     -7.1174825      15010.1      
    159000   358.69031      0.0795         0.17692329     0.17505312     0.17580986    -1736.2818      714.4853       714.4853       714.4853       3.6473707e+08  1.4657467     -25644200      -25644200       1068.1185     -25643132      -1746.0971     -1727.6399     -1735.1084      4.3013414     -6.9875626     -5.0984825      14952.683    
    160000   357.54911      0.08           0.17596455     0.174203       0.17491315    -1727.3812      714.81624      714.81624      714.81624      3.6524411e+08  1.4637119     -25631911      -25631911       1064.7202     -25630846      -1736.635      -1719.25       -1726.2586      3.6371432     -6.9250889     -4.5101015      15002.211    
    161000   356.79802      0.0805         0.17495184     0.17331244     0.17388474    -1717.7367      715.14717      715.14717      715.14717      3.6575163e+08  1.4616809     -25619675      -25619675       1062.4836     -25618612      -1726.6404     -1710.4608     -1716.109       1.9729166     -6.1430341     -5.1651028      15003.488    
    162000   356.02021      0.081          0.17396408     0.17235369     0.17293343    -1708.2036      715.4781       715.4781       715.4781       3.6625962e+08  1.4596536     -25607500      -25607500       1060.1674     -25606440      -1716.892      -1700.9986     -1706.7203      0.67643805    -5.3473337     -6.6237789      14973.085    
    163000   355.10388      0.0815         0.17307934     0.1715764      0.17216407    -1700.205       715.80904      715.80904      715.80904      3.6676808e+08  1.45763       -25595382      -25595382       1057.4387     -25594324      -1708.1603     -1693.3274     -1699.1273      1.126734      -5.3518753     -8.5061327      15131.368    
    164000   354.29246      0.082          0.17226128     0.17099294     0.17144345    -1693.2236      716.13997      716.13997      716.13997      3.6727701e+08  1.4556102     -25583300      -25583300       1055.0224     -25582245      -1700.0866     -1687.5691     -1692.0153      2.4284131     -6.9373765     -9.0281241      14969.049    
    165000   353.68616      0.0825         0.17144879     0.17040131     0.17065798    -1686.0205      716.4709       716.4709       716.4709       3.6778641e+08  1.4535941     -25571253      -25571253       1053.217      -25570200      -1692.068      -1681.7301     -1684.2633      3.7607839     -8.8302495     -7.5397138      15062.215    
    166000   352.7475       0.083          0.17079817     0.16968968     0.16989561    -1679.031       716.80184      716.80184      716.80184      3.6829628e+08  1.4515818     -25559244      -25559244       1050.4218     -25558194      -1685.6469     -1674.7069     -1676.7393      4.3812344     -9.2649302     -6.0792716      14784.723    
    167000   351.32081      0.0835         0.17021818     0.16880641     0.16910069    -1671.6022      717.13277      717.13277      717.13277      3.6880662e+08  1.4495731     -25547270      -25547270       1046.1734     -25546224      -1679.9228     -1665.9898     -1668.894       4.2332485     -8.5981489     -5.5028888      15165.497    
    168000   350.12547      0.084          0.16937586     0.16779708     0.16818365    -1662.4939      717.4637       717.4637       717.4637       3.6931743e+08  1.4475682     -25535336      -25535336       1042.6139     -25534293      -1671.6098     -1656.0284     -1659.8435      3.5912769     -7.2523394     -4.8232678      15028.293    
    169000   349.64604      0.0845         0.16836264     0.16684493     0.16723844    -1652.9189      717.79464      717.79464      717.79464      3.6982871e+08  1.4455669     -25523458      -25523458       1041.1862     -25522417      -1661.6101     -1646.6314     -1650.5151      2.6706654     -5.6377182     -5.1553206      14958.445    
    170000   349.38382      0.085          0.16742582     0.16621317     0.16650572    -1645.3482      718.12557      718.12557      718.12557      3.7034047e+08  1.4435694     -25511634      -25511634       1040.4054     -25510593      -1652.3644     -1640.3965     -1643.2837      1.7880916     -4.4946839     -6.3600293      15059.793    
    171000   348.64691      0.0855         0.16674436     0.16584648     0.16605629    -1640.4215      718.4565       718.4565       718.4565       3.708527e+08   1.4415755     -25499844      -25499844       1038.211      -25498806      -1645.6389     -1636.7775     -1638.8481      1.7198835     -5.1112796     -6.0883393      15147.357    
    172000   347.70273      0.086          0.16614003     0.16540822     0.16553234    -1635.268       718.78744      718.78744      718.78744      3.713654e+08   1.4395853     -25488080      -25488080       1035.3994     -25487045      -1639.6747     -1632.4522     -1633.6771      2.2467801     -6.840272      -4.8545779      15018.32     
    173000   346.9535       0.0865         0.16557793     0.16485779     0.16482634    -1629.2855      719.11837      719.11837      719.11837      3.7187857e+08  1.4375987     -25476343      -25476343       1033.1683     -25475310      -1634.1271     -1627.0199     -1626.7095      3.3638893     -7.7494046     -3.9894075      15025.383    
    174000   346.25588      0.087          0.16493654     0.16441397     0.16412163    -1623.3971      719.4493       719.4493       719.4493       3.7239221e+08  1.4356159     -25464632      -25464632       1031.0909     -25463601      -1627.7971     -1622.6397     -1619.7545      4.3332135     -8.1278522     -4.367942       14982.21     
    175000   345.62327      0.0875         0.16423162     0.16393867     0.16349599    -1617.4563      719.78024      719.78024      719.78024      3.7290633e+08  1.4336366     -25452944      -25452944       1029.2071     -25451915      -1620.8401     -1617.9489     -1613.5799      4.0224962     -8.4869133     -5.300882       15149.885    
    176000   345.14324      0.088          0.16358979     0.16322383     0.16290748    -1611.0571      720.11117      720.11117      720.11117      3.7342092e+08  1.431661      -25441291      -25441291       1027.7776     -25440263      -1614.5057     -1610.8939     -1607.7718      2.7161021     -8.6159245     -5.6420877      14861.385    
    177000   344.85662      0.0885         0.16301896     0.16230385     0.16219968    -1603.8243      720.44211      720.44211      720.44211      3.7393598e+08  1.429689      -25429682      -25429682       1026.9241     -25428655      -1608.872      -1601.8144     -1600.7864      2.0295388     -8.1945591     -6.0230609      15117.24     
    178000   344.33177      0.089          0.16234389     0.16134353     0.1615242     -1596.2222      720.77304      720.77304      720.77304      3.7445152e+08  1.4277206     -25418113      -25418113       1025.3612     -25417087      -1602.2097     -1592.3369     -1594.1199      2.2427182     -7.2744627     -6.0914605      15006.887    
    179000   343.27596      0.0895         0.16145931     0.16067215     0.16102865    -1589.4732      721.10397      721.10397      721.10397      3.7496753e+08  1.4257559     -25406578      -25406578       1022.2172     -25405556      -1593.4794     -1585.7109     -1589.2292      2.2359591     -5.5589953     -6.0043071      15128.07     
    180000   342.17634      0.09           0.1606249      0.16033425     0.16052863    -1583.9716      721.43491      721.43491      721.43491      3.7548402e+08  1.4237947     -25395073      -25395073       1018.9427     -25394054      -1585.2445     -1582.376      -1584.2944      1.6595489     -4.6361816     -5.5496423      14994.204    
    181000   341.46934      0.0905         0.16007655     0.15994379     0.15986896    -1578.713       721.76584      721.76584      721.76584      3.7600097e+08  1.4218372     -25383598      -25383598       1016.8374     -25382581      -1579.8327     -1578.5225     -1577.7839      1.4597509     -5.8566761     -4.4733088      15102.718    
    182000   341.19833      0.091          0.15969793     0.15942348     0.15914623    -1573.3782      722.09677      722.09677      722.09677      3.7651841e+08  1.4198832     -25372151      -25372151       1016.0304     -25371135      -1576.0961     -1573.3874     -1570.6512      2.236397      -8.1558871     -3.4396691      14797.764    
    183000   341.0839       0.0915         0.15931846     0.15896853     0.15854041    -1568.6402      722.42771      722.42771      722.42771      3.7703631e+08  1.4179328     -25360730      -25360730       1015.6896     -25359714      -1572.351      -1568.8974     -1564.6722      3.1340214     -9.7597768     -3.284433       15154.408    
    184000   341.00223      0.092          0.15879668     0.15848255     0.15803117    -1563.6496      722.75864      722.75864      722.75864      3.7755469e+08  1.415986      -25349331      -25349331       1015.4464     -25348316      -1567.2014     -1564.1011     -1559.6464      3.3535695     -9.7497145     -3.2970002      14993.345    
    185000   340.89904      0.0925         0.15826908     0.15790037     0.15756191    -1558.455       723.08957      723.08957      723.08957      3.7807355e+08  1.4140428     -25337956      -25337956       1015.1391     -25336941      -1561.9944     -1558.3555     -1555.0152      2.9245649     -8.3654763     -3.3754036      1097.3458    
    186000   340.50108      0.093          0.15794745     0.15735182     0.1572062     -1554.4222      723.42051      723.42051      723.42051      3.7859288e+08  1.4121031     -25326597      -25326597       1013.9541     -25325583      -1558.8201     -1552.9417     -1551.5046      1.9683114     -6.6967203     -4.2337337      14987.739    
    187000   339.72495      0.0935         0.15759226     0.15689228     0.15675863    -1550.2695      723.75144      723.75144      723.75144      3.7911269e+08  1.4101669     -25315257      -25315257       1011.6429     -25314245      -1555.3146     -1548.4064     -1547.0874      1.2202533     -6.3747371     -5.3482008      14887.398    
    188000   338.85329      0.094          0.15690603     0.15640507     0.1560973     -1544.2336      724.08237      724.08237      724.08237      3.7963297e+08  1.4082343     -25303952      -25303952       1009.0472     -25302943      -1548.5421     -1543.598      -1540.5606      1.2605637     -6.4261198     -5.870972       14905.558    
    189000   337.97575      0.0945         0.15602945     0.15581358     0.15533186    -1536.8859      724.41331      724.41331      724.41331      3.8015373e+08  1.4063052     -25292686      -25292686       1006.4341     -25291679      -1539.891      -1537.7605     -1533.0063      1.7753482     -6.1469493     -5.4062064      14986.619    
    190000   337.28214      0.095          0.15531905     0.15513224     0.15459005    -1529.8671      724.74424      724.74424      724.74424      3.8067497e+08  1.4043796     -25281455      -25281455       1004.3686     -25280451      -1532.8798     -1531.0362     -1525.6852      2.0374291     -6.7582967     -3.6310369      15073.347    
    191000   337.04746      0.0955         0.15479422     0.15454423     0.15401257    -1524.3063      725.07517      725.07517      725.07517      3.8119668e+08  1.4024576     -25270252      -25270252       1003.6698     -25269249      -1527.7002     -1525.233      -1519.9859      1.9946354     -8.4566381     -2.0996796      14901.362    
    192000   337.0274       0.096          0.15446048     0.1543142      0.15368396    -1521.3707      725.40611      725.40611      725.40611      3.8171886e+08  1.400539      -25259065      -25259065       1003.61       -25258061      -1524.4064     -1522.9628     -1516.7428      2.1949147     -9.4368856     -2.2291755      15067.417    
    193000   337.19077      0.0965         0.15425531     0.15414942     0.15345427    -1519.398       725.73704      725.73704      725.73704      3.8224153e+08  1.398624      -25247890      -25247890       1004.0965     -25246886      -1522.3816     -1521.3364     -1514.4759      1.8690002     -8.9388132     -3.4824903      14879.412    
    194000   337.63174      0.097          0.15401778     0.15363011     0.15318086    -1516.0087      726.06797      726.06797      726.06797      3.8276467e+08  1.3967124     -25236734      -25236734       1005.4097     -25235728      -1520.0374     -1516.2113     -1511.7775      0.74463496    -7.8786299     -4.208985       14902.276    
    195000   337.99983      0.0975         0.15354764     0.15298568     0.15274627    -1510.9124      726.39891      726.39891      726.39891      3.8328829e+08  1.3948043     -25225606      -25225606       1006.5058     -25224600      -1515.3974     -1509.8513     -1507.4885      0.15507237    -6.9977834     -4.0255808      15083.261    
    196000   337.86917      0.098          0.15298829     0.1525097      0.15219943    -1505.7074      726.72984      726.72984      726.72984      3.8381238e+08  1.3928997     -25214504      -25214504       1006.1167     -25213498      -1509.8771     -1505.1537     -1502.0916      0.75654178    -6.392918      -3.9989581      14880.009    
    197000   337.1403       0.0985         0.15246597     0.15214814     0.15178193    -1501.4262      727.06077      727.06077      727.06077      3.8433695e+08  1.3909986     -25203416      -25203416       1003.9462     -25202412      -1504.7221     -1501.5854     -1497.9712      2.1703989     -6.2945378     -4.4750137      14579.366    
    198000   336.27004      0.099          0.15191742     0.15180589     0.15141634    -1497.293       727.39171      727.39171      727.39171      3.84862e+08    1.3891009     -25192340      -25192340       1001.3548     -25191338      -1499.3084     -1498.2077     -1494.3631      3.2516557     -6.7779521     -4.5232875      15082.374    
    199000   335.49616      0.0995         0.15134449     0.15144491     0.15091213    -1492.562       727.72264      727.72264      727.72264      3.8538753e+08  1.3872067     -25181286      -25181286       999.05029     -25180287      -1493.654      -1494.645      -1489.3869      3.1025821     -7.5189025     -4.4721811      15019.788    
    200000   334.84981      0.1            0.15081171     0.15093193     0.15028488    -1487.0582      728.05357      728.05357      728.05357      3.8591354e+08  1.3853159     -25170267      -25170267       997.12556     -25169270      -1488.3958     -1489.5823     -1483.1964      2.3869466     -7.8548305     -4.0179145      14783.603    
    201000   334.70011      0.1005         0.15034696     0.15022355     0.14964466    -1481.0927      728.38451      728.38451      728.38451      3.8644002e+08  1.3834286     -25159283      -25159283       996.67978     -25158286      -1483.8092     -1482.5912     -1476.8779      1.6972193     -7.6061901     -3.4476992      15185.222    
    202000   334.65229      0.101          0.14998302     0.14968564     0.14916313    -1476.5418      728.71544      728.71544      728.71544      3.8696699e+08  1.3815446     -25148320      -25148320       996.53738     -25147323      -1480.2173     -1477.2824     -1472.1256      1.2791995     -7.656432      -3.281285       15145.996    
    203000   334.51526      0.1015         0.14958983     0.14944639     0.14889852    -1473.5907      729.04637      729.04637      729.04637      3.8749443e+08  1.3796641     -25137366      -25137366       996.12932     -25136370      -1476.3368     -1474.9212     -1469.5141      1.6778296     -8.0078125     -2.7846969      15193.726    
    204000   334.64352      0.102          0.14922319     0.14930038     0.14869343    -1471.2295      729.37731      729.37731      729.37731      3.8802235e+08  1.377787      -25126429      -25126429       996.51125     -25125433      -1472.7184     -1473.4802     -1467.49        2.2402701     -7.5311427     -2.1545924      15168.11     
    205000   334.97121      0.1025         0.14898684     0.14895834     0.14838176    -1468.3015      729.70824      729.70824      729.70824      3.8855075e+08  1.3759133     -25115510      -25115510       997.48706     -25114513      -1470.3858     -1470.1046     -1464.4141      2.1998171     -6.7044417     -2.4858483      15161.533    
    206000   335.08364      0.103          0.1487065      0.14846686     0.14787008    -1464.0791      730.03917      730.03917      730.03917      3.8907963e+08  1.3740431     -25104608      -25104608       997.82186     -25103611      -1467.6191     -1465.254      -1459.3642      1.4511621     -6.2971427     -3.6295168      15163.142    
    207000   335.08777      0.1035         0.14815011     0.14803851     0.14736404    -1459.1748      730.37011      730.37011      730.37011      3.8960899e+08  1.3721761     -25093730      -25093730       997.83415     -25092732      -1462.1279     -1461.0265     -1454.37        1.1153526     -6.6306687     -3.9626342      15136.72     
    208000   334.73616      0.104          0.1474962      0.14777288     0.14700665    -1454.974       730.70104      730.70104      730.70104      3.9013883e+08  1.3703126     -25082872      -25082872       996.78713     -25081876      -1455.6743     -1458.4049     -1450.8428      1.1663828     -7.58526       -4.0701528      15201.175    
    209000   333.76444      0.1045         0.14696998     0.14743422     0.14664962    -1450.9543      731.03198      731.03198      731.03198      3.9066915e+08  1.3684525     -25072024      -25072024       993.89351     -25071030      -1450.4809     -1455.0626     -1447.3193      1.655679      -7.7299491     -4.5931385      15202.328    
    210000   332.97291      0.105          0.14657915     0.14685766     0.14608928    -1445.9284      731.36291      731.36291      731.36291      3.9119995e+08  1.3665957     -25061197      -25061197       991.53648     -25060206      -1446.6237     -1449.3724     -1441.7891      1.4939746     -7.7158697     -3.8945389      15115.094    
    211000   332.90877      0.1055         0.14632772     0.14615452     0.14547949    -1440.7821      731.69384      731.69384      731.69384      3.9173123e+08  1.3647423     -25050410      -25050410       991.34547     -25049418      -1444.1424     -1442.4329     -1435.7709      0.3815111     -7.338208      -2.2581717      15159.906    
    212000   333.01636      0.106          0.14612045     0.14568174     0.14507701    -1437.2208      732.02478      732.02478      732.02478      3.92263e+08    1.3628922     -25039648      -25039648       991.66585     -25038657      -1442.0967     -1437.767      -1431.7987     -0.20025772    -7.4132754     -0.89160278     15151.114    
    213000   332.87039      0.1065         0.14578754     0.14550124     0.14479441    -1434.6022      732.35571      732.35571      732.35571      3.9279524e+08  1.3610454     -25028891      -25028891       991.23119     -25027900      -1438.8111     -1435.9856     -1429.0098     -0.13109568    -7.9416755     -1.4087296      15187.446    
    214000   332.90747      0.107          0.14527662     0.14529438     0.14448802    -1431.2329      732.68664      732.68664      732.68664      3.9332796e+08  1.359202      -25018141      -25018141       991.34159     -25017150      -1433.7688     -1433.9441     -1425.9859      0.64584076    -8.452145      -2.5910938      15178.664    
    215000   333.31785      0.1075         0.14482393     0.14489821     0.1442315     -1427.5965      733.01758      733.01758      733.01758      3.9386117e+08  1.357362      -25007416      -25007416       992.56365     -25006424      -1429.3011     -1430.0341     -1423.4542      1.8920663     -8.6147213     -2.5117941      15187.532    
    216000   333.52193      0.108          0.14455189     0.14451668     0.14404824    -1424.8435      733.34851      733.34851      733.34851      3.9439485e+08  1.3555252     -24996712      -24996712       993.17134     -24995719      -1426.6162     -1426.2688     -1421.6456      2.4615138     -8.6921678     -1.8373597      15157.93     
    217000   333.15275      0.1085         0.14427864     0.14427797     0.14381037    -1422.3768      733.67944      733.67944      733.67944      3.9492902e+08  1.3536918     -24986014      -24986014       992.07199     -24985022      -1423.9195     -1423.9129     -1419.298       2.2702619     -8.1272311     -2.0671912      15176.037    
[...]
   3256000   324.34073      1.628          0.0091027244   0.0091352968   0.0089808731  -89.5432        1739.3862      1739.3862      1739.3862      5.2624507e+09  0.10158996    -6987754.1     -6987754.1      965.83132     -6986788.3     -89.836905     -90.158369     -88.634326      0.020986514   -0.094045025    0.92291031     13631.834    
   3257000   324.31933      1.6285         0.0090977801   0.0091320453   0.0089788285  -89.509512      1739.7171      1739.7171      1739.7171      5.265455e+09   0.101532      -6983987.6     -6983987.6      965.76757     -6983021.9     -89.788109     -90.12628      -88.614147      0.0057677622  -0.077639375    0.92409936     13603.103    
   3258000   324.27672      1.629          0.0090941247   0.0091268663   0.0089744901  -89.466177      1740.048       1740.048       1740.048       5.2684604e+09  0.10147408    -6980221.2     -6980221.2      965.64069     -6979255.6     -89.752033     -90.075167     -88.57133       0.0068408981  -0.069255193    0.92561101     13612.503    
   3259000   324.21312      1.6295         0.0090887907   0.0091181203   0.0089658321  -89.391375      1740.379       1740.379       1740.379       5.2714669e+09  0.1014162     -6976455.6     -6976455.6      965.45129     -6975490.2     -89.69939      -89.988851     -88.485883      0.025492585   -0.073036169    0.92223753     13623.774    
   3260000   324.15185      1.63           0.0090785798   0.0091064949   0.0089543431  -89.281743      1740.7099      1740.7099      1740.7099      5.2744746e+09  0.10135837    -6972692.6     -6972692.6      965.26887     -6971727.3     -89.598617     -89.874116     -88.372496      0.04731324    -0.080434625    0.91627797     13606.609    
   3261000   324.10747      1.6305         0.0090657425   0.0090938816   0.008943328   -89.16178       1741.0408      1741.0408      1741.0408      5.2774834e+09  0.10130059    -6968933.2     -6968933.2      965.13671     -6967968.1     -89.471922     -89.749633     -88.263785      0.063193042   -0.076522871    0.90979633     13630.964    
   3262000   324.09023      1.631          0.0090551335   0.0090818879   0.0089345429  -89.058522      1741.3718      1741.3718      1741.3718      5.2804934e+09  0.10124284    -6965177.3     -6965177.3      965.08536     -6964212.2     -89.36722      -89.631265     -88.177082      0.071636501   -0.062861335    0.91413002     13644.355    
   3263000   324.10218      1.6315         0.0090476533   0.0090722731   0.0089273695  -88.978686      1741.7027      1741.7027      1741.7027      5.2835045e+09  0.10118514    -6961423.9     -6961423.9      965.12095     -6960458.7     -89.293396     -89.536374     -88.106287      0.065703437   -0.050862587    0.92940105     13611.477    
   3264000   324.1413       1.632          0.0090407541   0.0090651378   0.0089218674  -88.914415      1742.0336      1742.0336      1742.0336      5.2865168e+09  0.10112749    -6957672.1     -6957672.1      965.23743     -6956706.9     -89.225305     -89.465954     -88.051986      0.050209428   -0.046289127    0.94327135     13600.357    
   3265000   324.1962       1.6325         0.0090347496   0.0090612693   0.0089175379  -88.867692      1742.3646      1742.3646      1742.3646      5.2895302e+09  0.10106988    -6953921.5     -6953921.5      965.40092     -6952956.1     -89.166046     -89.427775     -88.009256      0.034717623   -0.049213921    0.94725496     13630.635    
   3266000   324.24198      1.633          0.0090302159   0.0090600766   0.0089119078  -88.830333      1742.6955      1742.6955      1742.6955      5.2925447e+09  0.10101231    -6950171.3     -6950171.3      965.53726     -6949205.7     -89.121302     -89.416004     -87.953692      0.022690093   -0.056423934    0.94484138     13653.147    
   3267000   324.26084      1.6335         0.0090261053   0.0090578005   0.0089050492  -88.786759      1743.0264      1743.0264      1743.0264      5.2955604e+09  0.10095479    -6946421       -6946421        965.5934      -6945455.4     -89.080733     -89.393541     -87.886003      0.012306102   -0.071129835    0.94163447     13624.286    
   3268000   324.2552       1.634          0.0090208683   0.0090510481   0.0088972867  -88.72178       1743.3574      1743.3574      1743.3574      5.2985773e+09  0.10089731    -6942671.6     -6942671.6      965.57661     -6941706       -89.029048     -89.326899     -87.809392      0.0017659788  -0.079547617    0.94127589     13625.284    
   3269000   324.23859      1.6345         0.0090138475   0.009039799    0.0088890596  -88.634612      1743.6883      1743.6883      1743.6883      5.3015952e+09  0.10083987    -6938924.2     -6938924.2      965.52715     -6937958.7     -88.959759     -89.21588      -87.728197     -0.017319657   -0.080057618    0.94513712     13632.522    
   3270000   324.20993      1.635          0.0090057769   0.0090292981   0.0088822489  -88.551111      1744.0192      1744.0192      1744.0192      5.3046144e+09  0.10078248    -6935179.3     -6935179.3      965.4418      -6934213.9     -88.880108     -89.112244     -87.660981     -0.035910274   -0.079664837    0.94587798     13644.44     
   3271000   324.1662       1.6355         0.0089964899   0.0090213917   0.0088770973  -88.477601      1744.3502      1744.3502      1744.3502      5.3076347e+09  0.10072513    -6931436.3     -6931436.3      965.3116      -6930470.9     -88.788452     -89.034214     -87.610138     -0.05382704    -0.080947117    0.94493035     13629.13     
   3272000   324.12353      1.636          0.0089877079   0.0090164679   0.0088731593  -88.419558      1744.6811      1744.6811      1744.6811      5.3106561e+09  0.10066782    -6927694.4     -6927694.4      965.18452     -6926729.2     -88.701781     -88.985619     -87.571274     -0.065645424   -0.079201487    0.94624054     13636.537    
   3273000   324.10237      1.6365         0.0089793157   0.0090110009   0.0088695861  -88.362209      1745.012       1745.012       1745.012       5.3136786e+09  0.10061056    -6923953.3     -6923953.3      965.1215      -6922988.2     -88.618955     -88.931664     -87.536009     -0.069457132   -0.075908445    0.95255403     13632.58     
   3274000   324.11542      1.637          0.008969483    0.0090030333   0.0088644907  -88.286889      1745.343       1745.343       1745.343       5.3167024e+09  0.10055334    -6920213.6     -6920213.6      965.16038     -6919248.5     -88.521915     -88.85303      -87.485721     -0.068960931   -0.074477981    0.95651123     13651.015    
   3275000   324.14546      1.6375         0.0089594175   0.0089946231   0.0088568248  -88.20089       1745.6739      1745.6739      1745.6739      5.3197272e+09  0.10049616    -6916476.2     -6916476.2      965.24984     -6915511       -88.422576     -88.770028     -87.410064     -0.067929475   -0.07889052     0.94298149     13643.554    
   3276000   324.15613      1.638          0.008952095    0.008987503    0.0088464356  -88.119199      1746.0048      1746.0048      1746.0048      5.3227532e+09  0.10043903    -6912741.2     -6912741.2      965.2816      -6911775.9     -88.350308     -88.699759     -87.307531     -0.065196222   -0.085817058    0.92314239     13623.66     
   3277000   324.1433       1.6385         0.0089459504   0.0089823459   0.0088356156  -88.046425      1746.3358      1746.3358      1746.3358      5.3257804e+09  0.10038194    -6909008.1     -6909008.1      965.2434      -6908042.9     -88.289666     -88.648862     -87.200746     -0.063941092   -0.092257704    0.91667981     13643.822    
   3278000   324.12051      1.639          0.0089400546   0.0089785084   0.0088259985  -87.982767      1746.6667      1746.6667      1746.6667      5.3288087e+09  0.10032489    -6905276.5     -6905276.5      965.17552     -6904311.3     -88.231479     -88.610988     -87.105832     -0.065412083   -0.098000161    0.92705994     13630.748    
   3279000   324.11196      1.6395         0.0089353649   0.0089742615   0.0088194106  -87.931695      1746.9976      1746.9976      1746.9976      5.3318382e+09  0.10026789    -6901545.9     -6901545.9      965.15007     -6900580.7     -88.185195     -88.569075     -87.040815     -0.064892911   -0.10434317     0.94514525     13614.235    
   3280000   324.12034      1.64           0.0089302863   0.0089680802   0.0088155819  -87.882057      1747.3286      1747.3286      1747.3286      5.3348688e+09  0.10021093    -6897815.8     -6897815.8      965.17503     -6896850.6     -88.135073     -88.50807      -87.003029     -0.055480944   -0.11171949     0.95689846     13644.202    
   3281000   324.14112      1.6405         0.0089243652   0.0089611191   0.0088116936  -87.826887      1747.6595      1747.6595      1747.6595      5.3379005e+09  0.10015401    -6894086.8     -6894086.8      965.23689     -6893121.6     -88.076637     -88.43937      -86.964654     -0.045908485   -0.10328218     0.95080604     13646.43     
   3282000   324.15786      1.641          0.0089191493   0.0089545457   0.008806848   -87.772162      1747.9904      1747.9904      1747.9904      5.3409334e+09  0.10009714    -6890358.8     -6890358.8      965.28676     -6889393.5     -88.02516      -88.374495     -86.916832     -0.046481423   -0.079014012    0.9257006      13638.378    
   3283000   324.15199      1.6415         0.0089138527   0.0089466995   0.0087997112  -87.705448      1748.3214      1748.3214      1748.3214      5.3439675e+09  0.10004031    -6886631.7     -6886631.7      965.26928     -6885666.4     -87.972886     -88.297059     -86.846397     -0.050701017   -0.057979289    0.90463758     13619.526    
   3284000   324.14068      1.642          0.0089071521   0.0089374498   0.0087899057  -87.620717      1748.6523      1748.6523      1748.6523      5.3470026e+09  0.099983524   -6882906.5     -6882906.5      965.23561     -6881941.2     -87.906756     -88.205771     -86.749625     -0.044799963   -0.048179346    0.90517171     13622.429    
   3285000   324.1406       1.6425         0.0089005428   0.0089308394   0.0087806067  -87.546637      1748.9832      1748.9832      1748.9832      5.350039e+09   0.099926779   -6879183.5     -6879183.5      965.23535     -6878218.3     -87.841528     -88.140532     -86.65785      -0.034920292   -0.044309898    0.91989355     13609.635    
   3286000   324.15736      1.643          0.0088965055   0.0089274432   0.0087733893  -87.498439      1749.3142      1749.3142      1749.3142      5.3530765e+09  0.099870078   -6875461.9     -6875461.9      965.28527     -6874496.6     -87.801683     -88.107014     -86.586621     -0.031097425   -0.038952443    0.93805682     13590.15     
   3287000   324.18294      1.6435         0.0088935416   0.0089249507   0.0087687487  -87.465223      1749.6451      1749.6451      1749.6451      5.3561151e+09  0.099813419   -6871740.6     -6871740.6      965.36144     -6870775.2     -87.772431     -88.082415     -86.540821     -0.025983949   -0.03170512     0.95647707     13570.976    
   3288000   324.21326      1.644          0.0088885129   0.0089216818   0.0087662765  -87.429792      1749.976       1749.976       1749.976       5.3591549e+09  0.099756804   -6868019.3     -6868019.3      965.45173     -6867053.9     -87.722802     -88.050153     -86.516422     -0.014981171   -0.026607233    0.97590947     13568.886    
   3289000   324.24868      1.6445         0.0088803865   0.0089151563   0.008763756   -87.3733        1750.307       1750.307       1750.307       5.3621959e+09  0.099700231   -6864298.6     -6864298.6      965.55719     -6863333.1     -87.642601     -87.985752     -86.491547     -0.0062443329  -0.028894513    0.9906743      13576.121    
   3290000   324.28465      1.645          0.0088726188   0.0089066624   0.0087585616  -87.302715      1750.6379      1750.6379      1750.6379      5.365238e+09   0.099643701   -6860579.5     -6860579.5      965.66432     -6859613.9     -87.565939     -87.901923     -86.440283     -0.0022187049  -0.037662863    0.99538155     13580.099    
   3291000   324.29755      1.6455         0.0088666887   0.0088987599   0.0087505703  -87.23092       1750.9688      1750.9688      1750.9688      5.3682812e+09  0.099587214   -6856862.1     -6856862.1      965.70272     -6855896.4     -87.507413     -87.823932     -86.361415     -0.006400594   -0.043557366    0.99145318     13549.665    
   3292000   324.27687      1.646          0.0088613285   0.0088917147   0.0087413958  -87.159928      1751.2998      1751.2998      1751.2998      5.3713256e+09  0.099530769   -6853146.3     -6853146.3      965.64114     -6852180.7     -87.454513     -87.754401     -86.270869     -0.022108558   -0.039431271    0.98159195     13537.919    
   3293000   324.24139      1.6465         0.0088561812   0.0088850669   0.0087327053  -87.092535      1751.6307      1751.6307      1751.6307      5.3743711e+09  0.099474367   -6849432.1     -6849432.1      965.53548     -6848466.6     -87.403713     -87.688793     -86.1851       -0.041055939   -0.032789836    0.96566776     13510.987    
   3294000   324.21096      1.647          0.0088515745   0.0088787458   0.0087252066  -87.031917      1751.9616      1751.9616      1751.9616      5.3774178e+09  0.099418007   -6845719.3     -6845719.3      965.44486     -6844753.9     -87.358248     -87.626408     -86.111094     -0.055748201   -0.028221225    0.94994408     13500.959    
   3295000   324.19166      1.6475         0.0088467071   0.0088736898   0.0087196387  -86.980954      1752.2926      1752.2926      1752.2926      5.3804657e+09  0.099361691   -6842007.4     -6842007.4      965.38739     -6841042       -87.310211     -87.576509     -86.056143     -0.061869786   -0.034153462    0.9434465      13490.747    
   3296000   324.19312      1.648          0.0088398433   0.0088689488   0.0087153648  -86.928718      1752.6235      1752.6235      1752.6235      5.3835147e+09  0.099305416   -6838296       -6838296        965.39174     -6837330.6     -87.242471     -87.52972      -86.013963     -0.0649995     -0.052865154    0.94182349     13512.233    
   3297000   324.22092      1.6485         0.0088312998   0.0088626624   0.0087105199  -86.863993      1752.9544      1752.9544      1752.9544      5.3865648e+09  0.099249184   -6834586       -6834586        965.47454     -6833620.5     -87.158152     -87.467678     -85.966147     -0.061845089   -0.07375306     0.93688064     13493.66     
   3298000   324.26283      1.649          0.0088233189   0.0088551252   0.0087048623  -86.79433       1753.2854      1753.2854      1753.2854      5.3896161e+09  0.099192995   -6830877.9     -6830877.9      965.59933     -6829912.3     -87.079388     -87.393291     -85.910312     -0.050995865   -0.08352248     0.93481057     13489.207    
   3299000   324.30583      1.6495         0.00881655     0.0088487166   0.0086992509  -86.732519      1753.6163      1753.6163      1753.6163      5.3926686e+09  0.099136848   -6827171.4     -6827171.4      965.72739     -6826205.6     -87.012583     -87.330043     -85.854931     -0.031969932   -0.083917785    0.93811771     13487.707    
   3300000   324.33987      1.65           0.0088098551   0.0088433909   0.0086943937  -86.676995      1753.9472      1753.9472      1753.9472      5.3957222e+09  0.099080743   -6823466.1     -6823466.1      965.82874     -6822500.2     -86.94651      -87.277483     -85.806994     -0.0065263108  -0.083016184    0.93678765     13178.926    
   3301000   324.36379      1.6505         0.0088031259   0.008837883    0.0086920751  -86.629111      1754.2782      1754.2782      1754.2782      5.398777e+09   0.099024681   -6819761.7     -6819761.7      965.89997     -6818795.8     -86.880098     -87.223123     -85.784111      0.02149482    -0.081636437    0.92610899     13434.576    
   3302000   324.36176      1.651          0.0087980063   0.0088312308   0.0086905622  -86.585408      1754.6091      1754.6091      1754.6091      5.4018329e+09  0.098968661   -6816057.7     -6816057.7      965.89392     -6815091.8     -86.829572     -87.157471     -85.76918       0.040004398   -0.077470037    0.917314       13422.818    
   3303000   324.32562      1.6515         0.0087931731   0.0088241379   0.0086856465  -86.530003      1754.94        1754.94        1754.94        5.4048899e+09  0.098912683   -6812354.2     -6812354.2      965.7863      -6811388.4     -86.781871     -87.08747      -85.720667      0.041648574   -0.067838719    0.91449144     13448.867    
   3304000   324.27395      1.652          0.0087860693   0.0088165456   0.0086765282  -86.451659      1755.271       1755.271       1755.271       5.4079481e+09  0.098856748   -6808652.1     -6808652.1      965.63244     -6807686.5     -86.711762     -87.01254      -85.630675      0.028971964   -0.053525903    0.91417916     13499.712    
   3305000   324.22129      1.6525         0.0087775207   0.008808323    0.0086660946  -86.362162      1755.6019      1755.6019      1755.6019      5.4110075e+09  0.098800855   -6804952.4     -6804952.4      965.47562     -6803986.9     -86.627394     -86.931389     -85.527704      0.0090690436  -0.044508375    0.91808695     13530.87     
   3306000   324.16864      1.653          0.0087675965   0.0087990899   0.0086573344  -86.270321      1755.9328      1755.9328      1755.9328      5.414068e+09   0.098745003   -6801255.1     -6801255.1      965.31885     -6800289.8     -86.52945      -86.840265     -85.441247     -0.012643327   -0.042211382    0.92897103     13516.733    
   3307000   324.1145       1.6535         0.0087567919   0.0087896603   0.0086505337  -86.181383      1756.2638      1756.2638      1756.2638      5.4171297e+09  0.098689194   -6797560.4     -6797560.4      965.15763     -6796595.3     -86.422816     -86.747203     -85.374129     -0.030733507   -0.038324212    0.93536662     13498.308    
   3308000   324.0615       1.654          0.0087460317   0.00878126     0.0086447684  -86.099383      1756.5947      1756.5947      1756.5947      5.4201926e+09  0.098633427   -6793867.9     -6793867.9      964.99982     -6792902.9     -86.316622     -86.664298     -85.317231     -0.044694718   -0.034973904    0.93555871     13504.146    
   3309000   324.02417      1.6545         0.008737622    0.0087755908   0.0086395951  -86.036049      1756.9256      1756.9256      1756.9256      5.4232565e+09  0.098577702   -6790177.2     -6790177.2      964.88865     -6789212.3     -86.233625     -86.608348     -85.266175     -0.051270058   -0.039854662    0.94379134     13504.084    
   3310000   324.0074       1.655          0.0087336342   0.0087730556   0.0086358095  -86.002136      1757.2566      1757.2566      1757.2566      5.4263217e+09  0.098522019   -6786487.2     -6786487.2      964.83869     -6785522.4     -86.194268     -86.583327     -85.228813     -0.047443818   -0.047486291    0.96524318     13486.111    
   3311000   324.01796      1.6555         0.0087326205   0.0087708639   0.0086323431  -85.980187      1757.5875      1757.5875      1757.5875      5.429388e+09   0.098466378   -6782796.8     -6782796.8      964.87014     -6781831.9     -86.184263     -86.561696     -85.194602     -0.037059751   -0.044160269    0.98456069     13457.253    
   3312000   324.0605       1.656          0.0087319389   0.0087665159   0.0086276892  -85.948331      1757.9184      1757.9184      1757.9184      5.4324554e+09  0.098410778   -6779106.1     -6779106.1      964.99684     -6778141.1     -86.177536     -86.518785     -85.148672     -0.029943077   -0.022396338    0.98843492     13430.292    
   3313000   324.11984      1.6565         0.0087300657   0.008759695    0.00862159    -85.899665      1758.2494      1758.2494      1758.2494      5.435524e+09   0.098355221   -6775415.9     -6775415.9      965.17353     -6774450.7     -86.15905      -86.451468     -85.088478     -0.028685172    0.0057557155   0.97376659     13394.678    
   3314000   324.16699      1.657          0.0087271707   0.0087512571   0.0086152316  