LAMMPS (23 Jun 2022 - Update 1)
OMP_NUM_THREADS environment is not set. Defaulting to 1 thread. (src/comm.cpp:98)
  using 1 OpenMP thread(s) per MPI task
###

# Read restart info
read_restart ${read_res}
read_restart ./trial10/6040/equpmf70.res
Reading restart file ...
  restart file = 23 Jun 2022, LAMMPS = 23 Jun 2022
  restoring atom style atomic from restart
  orthogonal box = (1682.5355 1682.5355 1682.5355) to (2317.4645 2317.4645 2317.4645)
  1 by 2 by 2 MPI processor grid
  restoring pair style table from restart
  1000 atoms
  read_restart CPU = 0.025 seconds

# Settings
pair_style table/pgn spline 10941
pair_coeff 1 1 N20e.txt DE_GNP 308 72.9   # 1.35 * r
pair_coeff 2 2 N100e.txt DE_GNP 473.9 111.78
WARNING: 20 of 10941 force values in table DE_GNP are inconsistent with -dE/dr.
WARNING:  Should only be flagged at inflection points (src/pair_table_pgn.cpp:478)
pair_coeff 1 2 mixed_potentiale.txt DE_GNP 391.2 92.95
WARNING: 1564 of 10941 force values in table DE_GNP are inconsistent with -dE/dr.
WARNING:  Should only be flagged at inflection points (src/pair_table_pgn.cpp:478)

# Neighbor list
neighbor 2.0 bin
neigh_modify delay 0 every 1 check no once yes

# Temperature
variable T equal ${Temp}
variable T equal 300

# Deformation
reset_timestep 0
variable tmp equal "lx"
variable L0 equal ${tmp}
variable L0 equal 634.929004702528
variable strain equal "(lx - v_L0)/v_L0"
variable stp equal "step"
variable tmpe equal "temp"
variable p1 equal "v_strain"
variable p2 equal "-pxx*1.01325/10000"
variable p3 equal "-pyy*1.01325/10000"
variable p4 equal "-pzz*1.01325/10000"
variable p5 equal "lx"
variable p6 equal "ly"
variable p7 equal "lz"
variable p8 equal "press"
variable p9 equal "epair"
variable p10 equal "etotal"

# Thermo
thermo_style custom step temp v_p1 v_p2 v_p3 v_p4 press lx ly lz vol density epair pe ke etotal pxx pyy pzz pxy pxz pyz spcpu
thermo ${ts_save}
thermo 1000

# Dump
# dump 1 all custom 2000 ./${N20}${N100}/tensile/trajectory/trajectory_${usic}_${trial}_*.tensile.custom id type x y z ix iy iz
# dump_modify 1 sort id
dump 2 all cfg 50000 ./trial${trial}/${N20}${N100}/tensile/trajectory/dumpten.tens_${usic}_${trial}_*.cfg mass type xs ys zs fx fy fz
dump 2 all cfg 50000 ./trial10/${N20}${N100}/tensile/trajectory/dumpten.tens_${usic}_${trial}_*.cfg mass type xs ys zs fx fy fz
dump 2 all cfg 50000 ./trial10/60${N100}/tensile/trajectory/dumpten.tens_${usic}_${trial}_*.cfg mass type xs ys zs fx fy fz
dump 2 all cfg 50000 ./trial10/6040/tensile/trajectory/dumpten.tens_${usic}_${trial}_*.cfg mass type xs ys zs fx fy fz
dump 2 all cfg 50000 ./trial10/6040/tensile/trajectory/dumpten.tens_1_${trial}_*.cfg mass type xs ys zs fx fy fz
dump 2 all cfg 50000 ./trial10/6040/tensile/trajectory/dumpten.tens_1_10_*.cfg mass type xs ys zs fx fy fz
dump_modify 2 element N20 N100

fix 1 all nvt temp ${T} ${T} 100
fix 1 all nvt temp 300 ${T} 100
fix 1 all nvt temp 300 300 100
fix 2 all deform 1 x erate ${strain_rate} y erate ${strain_rate} z erate ${strain_rate} units box
fix 2 all deform 1 x erate 5e-6 y erate ${strain_rate} z erate ${strain_rate} units box
fix 2 all deform 1 x erate 5e-6 y erate 5e-6 z erate ${strain_rate} units box
fix 2 all deform 1 x erate 5e-6 y erate 5e-6 z erate 5e-6 units box
fix             def1 all print ${ts_save} "${p1} ${p2} ${p3} ${p4}" file ./tensile/${trial}/tensile${N20}${N100}_${usic}_${trial}.txt screen no
fix             def1 all print 1000 "${p1} ${p2} ${p3} ${p4}" file ./tensile/${trial}/tensile${N20}${N100}_${usic}_${trial}.txt screen no
fix             def1 all print 1000 "${p1} ${p2} ${p3} ${p4}" file ./tensile/10/tensile${N20}${N100}_${usic}_${trial}.txt screen no
fix             def1 all print 1000 "${p1} ${p2} ${p3} ${p4}" file ./tensile/10/tensile60${N100}_${usic}_${trial}.txt screen no
fix             def1 all print 1000 "${p1} ${p2} ${p3} ${p4}" file ./tensile/10/tensile6040_${usic}_${trial}.txt screen no
fix             def1 all print 1000 "${p1} ${p2} ${p3} ${p4}" file ./tensile/10/tensile6040_1_${trial}.txt screen no
fix             def1 all print 1000 "${p1} ${p2} ${p3} ${p4}" file ./tensile/10/tensile6040_1_10.txt screen no

timestep       		${ts}
timestep       		0.1
run				${steps_tensile}
run				6000000
Generated 0 of 1 mixed pair_coeff terms from geometric mixing rule
Unused restart file global fix info:
  fix style: npt, fix ID: 5
Neighbor list info ...
  update every 1 steps, delay 0 steps, check no
  max neighbors/atom: 2000, page size: 100000
  master list distance cutoff = 113.78
  ghost atom cutoff = 113.78
  binsize = 56.89, bins = 12 12 12
  1 neighbor lists, perpetual/occasional/extra = 1 0 0
  (1) pair table/pgn, perpetual
      attributes: half, newton on
      pair build: half/bin/atomonly/newton
      stencil: half/bin/3d
      bin: standard
Per MPI rank memory allocation (min/avg/max) = 3.853 | 3.853 | 3.853 Mbytes
   Step          Temp           v_p1           v_p2           v_p3           v_p4          Press            Lx             Ly             Lz           Volume        Density         E_pair         PotEng         KinEng         TotEng          Pxx            Pyy            Pzz            Pxy            Pxz            Pyz           S/CPU     
         0   304.03257      5.3716323e-16  0.015263795    0.019004161    0.018236057   -172.72478      634.929        634.929        634.929        2.55962e+08    1.9587602     -22150949      -22150949       905.35708     -22150044      -150.64195     -187.55649     -179.97589     -14.276679     -39.579405     -3.1855958      0            
      1000   365.65255      0.0005         0.023170183    0.026840504    0.026057384   -250.2445       635.24647      635.24647      635.24647      2.5634614e+08  1.955825      -22150005      -22150005       1088.8509     -22148916      -228.67193     -264.89518     -257.16639     -14.281671     -41.436718     -1.9061373      13942.095    
      2000   471.9394       0.001          0.030350983    0.033845969    0.033163106   -320.28969      635.56393      635.56393      635.56393      2.5673066e+08  1.9528956     -22148944      -22148944       1405.3549     -22147539      -299.54091     -334.03374     -327.2944      -14.46325      -43.909523     -3.2130989      13957.226    
      3000   555.61308      0.0015         0.037022575    0.040520595    0.039771179   -385.9342       635.8814       635.8814       635.8814       2.5711556e+08  1.9499721     -22147720      -22147720       1654.5209     -22146065      -365.38441     -399.90718     -392.51102     -14.728537     -46.800177     -4.7550655      14022.633    
      4000   594.44323      0.002          0.043613397    0.047276646    0.046339554   -451.45027      636.19886      636.19886      636.19886      2.5750085e+08  1.9470545     -22146249      -22146249       1770.1504     -22144478      -430.43076     -466.58422     -457.33584     -14.669187     -46.709223     -5.0303762      13956.206    
      5000   596.81721      0.0025         0.050246996    0.054086929    0.052998079   -517.58205      636.51633      636.51633      636.51633      2.5788652e+08  1.9441426     -22144438      -22144438       1777.2197     -22142660      -495.8993      -533.79649     -523.05037     -14.627782     -42.777367     -5.6924355      14033.886    
      6000   579.42331      0.003          0.056909819    0.060813602    0.05964756    -583.50516      636.83379      636.83379      636.83379      2.5827258e+08  1.9412366     -22142231      -22142231       1725.4237     -22140506      -561.65624     -600.18358     -588.67565     -14.875378     -39.744537     -6.955539       14116.433    
      7000   554.85672      0.0035         0.063563624    0.067305121    0.066332557   -648.74184      637.15126      637.15126      637.15126      2.5865902e+08  1.9383363     -22139620      -22139620       1652.2686     -22137967      -627.32419     -664.2499      -654.65144     -14.969286     -39.893694     -7.0933932      15390.405    
      8000   530.08894      0.004          0.069912251    0.073502409    0.072815758   -711.34277      637.46872      637.46872      637.46872      2.5904585e+08  1.9354418     -22136608      -22136608       1578.5143     -22135030      -689.98027     -725.41238     -718.63566     -14.845642     -41.226073     -7.5128675      16745.537    
      9000   507.76739      0.0045         0.076034541    0.079746997    0.079124796   -772.78175      637.78619      637.78619      637.78619      2.5943306e+08  1.9325531     -22133205      -22133205       1512.0446     -22131693      -750.40257     -787.04166     -780.90102     -15.190526     -42.713947     -9.1433059      16645.781    
     10000   488.17401      0.005          0.082243803    0.086040018    0.08532932    -834.32236      638.10365      638.10365      638.10365      2.5982066e+08  1.9296702     -22129421      -22129421       1453.6988     -22127967      -811.68322     -849.14895     -842.13491     -15.972902     -44.367818     -9.6971453      16707.336    
     11000   470.91095      0.0055         0.088453973    0.091994816    0.091298245   -893.97824      638.42111      638.42111      638.42111      2.6020865e+08  1.9267929     -22125258      -22125258       1402.2924     -22123855      -872.97284     -907.91824     -901.04362     -17.070059     -45.263654     -8.2650566      16767.358    
     12000   456.1095       0.006          0.094355604    0.097545049    0.097065454   -950.62458      638.73858      638.73858      638.73858      2.6059702e+08  1.9239214     -22120717      -22120717       1358.2162     -22119359      -931.21741     -962.69479     -957.96155     -17.253288     -44.105848     -7.0685823      16756.388    
     13000   443.92617      0.0065         0.10000819     0.10312026     0.10276098    -1006.298       639.05604      639.05604      639.05604      2.6098578e+08  1.9210556     -22115824      -22115824       1321.9363     -22114502      -987.00409     -1017.7178     -1014.172      -15.561138     -41.849945     -7.6626951      16530.272    
     14000   433.99629      0.007          0.10548929     0.10867887     0.10813085    -1060.2813      639.37351      639.37351      639.37351      2.6137492e+08  1.9181954     -22110598      -22110598       1292.3668     -22109306      -1041.0984     -1072.5771     -1067.1686     -12.337005     -40.356577     -9.1612998      16625.908    
     15000   425.61292      0.0075         0.11087402     0.11423328     0.11347902    -1113.8624      639.69097      639.69097      639.69097      2.6176445e+08  1.915341      -22105038      -22105038       1267.4026     -22103771      -1094.2415     -1127.3948     -1119.9508     -10.200382     -39.955668     -10.234545      16672.749    
     16000   418.06203      0.008          0.11613879     0.11968887     0.11905778    -1167.4823      640.00844      640.00844      640.00844      2.6215437e+08  1.9124922     -22099142      -22099142       1244.9173     -22097897      -1146.2007     -1181.2373     -1175.009      -9.4061159     -40.834646     -10.259357      16754.779    
     17000   411.26009      0.0085         0.12131009     0.12484252     0.12460531    -1219.6987      640.3259       640.3259       640.3259       2.6254467e+08  1.909649      -22092918      -22092918       1224.6623     -22091694      -1197.2375     -1232.0998     -1229.7588     -10.312365     -43.235616     -9.7075166      16655.319    
     18000   405.60745      0.009          0.1264922      0.12980548     0.12957176    -1269.4117      640.64337      640.64337      640.64337      2.6293536e+08  1.9068115     -22086392      -22086392       1207.8297     -22085184      -1248.3809     -1281.0804     -1278.7738     -12.78683      -45.252724     -9.3425599      16707.768    
     19000   401.37972      0.0095         0.13164972     0.13476941     0.13406976    -1317.506       640.96083      640.96083      640.96083      2.6332644e+08  1.9039796     -22079584      -22079584       1195.2403     -22078389      -1299.2817     -1330.0706     -1323.1657     -14.492489     -45.013347     -10.146698      16769.752    
     20000   398.05674      0.01           0.13654708     0.1396177      0.1386481     -1364.6283      641.27829      641.27829      641.27829      2.6371791e+08  1.9011533     -22072489      -22072489       1185.345      -22071304      -1347.6149     -1377.9196     -1368.3503     -13.984034     -44.11358      -11.071502      16629.076    
     21000   394.98447      0.0105         0.14107674     0.14420824     0.14344411    -1410.4091      641.59576      641.59576      641.59576      2.6410976e+08  1.8983326     -22065098      -22065098       1176.1963     -22063922      -1392.3191     -1423.2247     -1415.6833     -11.823616     -44.528274     -10.662591      16727.542    
     22000   392.38822      0.011          0.14548439     0.14868375     0.14826155    -1455.4805      641.91322      641.91322      641.91322      2.64502e+08    1.8955175     -22057425      -22057425       1168.4651     -22056257      -1435.8193     -1467.3945     -1463.2277     -9.0424982     -44.250092     -9.8890756      16746.442    
     23000   390.55113      0.0115         0.14994767     0.15326619     0.15295168    -1500.6679      642.23069      642.23069      642.23069      2.6489463e+08  1.8927079     -22049490      -22049490       1162.9946     -22048327      -1479.8684     -1512.6197     -1509.5157     -8.0154344     -42.165157     -10.336558      16677.073    
     24000   389.28256      0.012          0.15439886     0.15779983     0.15734181    -1544.6681      642.54815      642.54815      642.54815      2.6528765e+08  1.8899039     -22041292      -22041292       1159.217      -22040133      -1523.7983     -1557.3632     -1552.8429     -9.9227399     -39.920144     -11.558239      16695.416    
     25000   388.3998       0.0125         0.15882776     0.16198992     0.1614699     -1586.6028      642.86562      642.86562      642.86562      2.6568106e+08  1.8871054     -22032830      -22032830       1156.5883     -22031673      -1567.5081     -1598.7162     -1593.584      -11.958972     -39.144255     -11.217335      16702.426    
     26000   388.03424      0.013          0.16311711     0.16581843     0.16544859    -1626.3973      643.18308      643.18308      643.18308      2.6607486e+08  1.8843125     -22024123      -22024123       1155.4997     -22022968      -1609.8407     -1636.5006     -1632.8506     -12.178825     -39.351555     -9.6827844      16788.302    
     27000   388.55158      0.0135         0.16710187     0.16965905     0.16940941    -1665.1709      643.50055      643.50055      643.50055      2.6646904e+08  1.8815251     -22015184      -22015184       1157.0403     -22014027      -1649.1673     -1674.4046     -1671.9409     -10.855869     -39.771554     -8.3118739      16750.172    
     28000   389.41142      0.014          0.1709761      0.17380607     0.173367      -1704.5782      643.81801      643.81801      643.81801      2.6686362e+08  1.8787431     -22006013      -22006013       1159.6007     -22004854      -1687.4029     -1715.3326     -1710.9993     -8.9253402     -40.662631     -8.3709905      16749.294    
     29000   389.90497      0.0145         0.17479472     0.17797451     0.17734309    -1743.9339      644.13548      644.13548      644.13548      2.6725858e+08  1.8759666     -21996614      -21996614       1161.0704     -21995453      -1725.0898     -1756.4718     -1750.2402     -7.6554909     -40.73096      -10.191226      16744.164    
     30000   390.22557      0.015          0.17844096     0.18180628     0.18125103    -1781.3908      644.45294      644.45294      644.45294      2.6765393e+08  1.8731956     -21986992      -21986992       1162.0251     -21985830      -1761.0754     -1794.2885     -1788.8086     -8.4580042     -39.321989     -12.772135      16742.1      
     31000   390.66267      0.0155         0.18209412     0.18531181     0.18494492    -1817.093       644.7704       644.7704       644.7704       2.6804967e+08  1.8704301     -21977150      -21977150       1163.3267     -21975987      -1797.1293     -1828.8854     -1825.2644     -9.5702941     -38.07893      -14.456011      16852.1      
     32000   391.68781      0.016          0.18560308     0.18861456     0.18803148    -1849.6558      645.08787      645.08787      645.08787      2.6844581e+08  1.86767       -21967106      -21967106       1166.3794     -21965940      -1831.76       -1861.481      -1855.7264     -8.9005954     -37.526432     -12.656243      16730.467    
     33000   393.79127      0.0165         0.18891786     0.19181259     0.19075589    -1880.0439      645.40533      645.40533      645.40533      2.6884233e+08  1.8649153     -21956873      -21956873       1172.6432     -21955700      -1864.4743     -1893.0431     -1882.6142     -8.5044933     -36.08389      -9.8284731      16655.401    
     34000   395.78434      0.017          0.19220429     0.19514694     0.19408111    -1912.7637      645.7228       645.7228       645.7228       2.6923924e+08  1.8621661     -21946453      -21946453       1178.5782     -21945274      -1896.9089     -1925.9506     -1915.4316     -9.4251063     -34.622165     -8.8911497      16771.695    
     35000   397.08898      0.0175         0.19531342     0.1985101      0.19767785    -1945.8882      646.04026      646.04026      646.04026      2.6963655e+08  1.8594222     -21935833      -21935833       1182.4632     -21934650      -1927.5936     -1959.1424     -1950.9287     -8.416377      -33.990641     -8.9250072      16635.427    
     36000   398.48775      0.018          0.19850299     0.20166556     0.20111438    -1978.067       646.35773      646.35773      646.35773      2.7003424e+08  1.8566837     -21925011      -21925011       1186.6285     -21923824      -1959.0722     -1990.2843     -1984.8446     -5.7059302     -33.111958     -8.846874       15076.239    
     37000   399.99829      0.0185         0.20172997     0.20465061     0.20413544    -2008.4415      646.67519      646.67519      646.67519      2.7043232e+08  1.8539506     -21914009      -21914009       1191.1266     -21912818      -1990.92       -2019.7445     -2014.6601     -5.7051766     -33.192196     -9.734701       16612.941    
     38000   401.53711      0.019          0.2047037      0.20763077     0.20684669    -2036.9477      646.99266      646.99266      646.99266      2.708308e+08   1.8512229     -21902841      -21902841       1195.7089     -21901645      -2020.2684     -2049.1564     -2041.4181     -7.0794226     -35.092298     -11.911222      16742.568    
     39000   403.20188      0.0195         0.20744542     0.21056681     0.20968796    -2064.9731      647.31012      647.31012      647.31012      2.7122967e+08  1.8485005     -21891512      -21891512       1200.6664     -21890312      -2047.3271     -2078.1329     -2069.4593     -7.6720017     -36.428115     -12.577357      16780.439    
     40000   405.17571      0.02           0.21002849     0.21314228     0.21258178    -2091.4632      647.62758      647.62758      647.62758      2.7162893e+08  1.8457835     -21880017      -21880017       1206.5441     -21878811      -2072.82       -2103.5507     -2098.019      -7.5847545     -34.730004     -11.110561      16608.899    
     41000   407.53409      0.0205         0.21269791     0.21550804     0.21518659    -2116.5969      647.94505      647.94505      647.94505      2.7202858e+08  1.8430717     -21868359      -21868359       1213.5669     -21867146      -2099.1651     -2126.8989     -2123.7266     -7.1251744     -32.582762     -9.1374332      16741.609    
     42000   409.84263      0.021          0.21543557     0.21812526     0.21764895    -2142.3136      648.26251      648.26251      648.26251      2.7242862e+08  1.8403653     -21856544      -21856544       1220.4414     -21855323      -2126.1838     -2152.729      -2148.0282     -6.2875059     -32.551857     -7.9366528      16761.309    
     43000   411.62747      0.0215         0.21794976     0.22078912     0.21999613    -2167.0697      648.57998      648.57998      648.57998      2.7282905e+08  1.8376642     -21844576      -21844576       1225.7563     -21843351      -2150.9969     -2179.0192     -2171.193      -5.8402763     -33.289529     -8.2771724      16697.521    
     44000   413.51631      0.022          0.22020935     0.2231314      0.22223286    -2189.5669      648.89744      648.89744      648.89744      2.7322988e+08  1.8349683     -21832469      -21832469       1231.381      -21831238      -2173.2973     -2202.1357     -2193.2678     -6.0974477     -33.377054     -9.2109287      16302.623    
     45000   415.69016      0.0225         0.22246501     0.22532862     0.22464354    -2212.1463      649.21491      649.21491      649.21491      2.736311e+08   1.8322778     -21820236      -21820236       1237.8543     -21818998      -2195.5589     -2223.8206     -2217.0593     -5.9913931     -32.419243     -9.6009743      16636.017    
     46000   417.92138      0.023          0.22477807     0.22750251     0.22698646    -2234.6148      649.53237      649.53237      649.53237      2.7403271e+08  1.8295925     -21807876      -21807876       1244.4985     -21806632      -2218.3871     -2245.2752     -2240.1822     -4.2619567     -30.729823     -9.8701037      16734.975    
     47000   419.89414      0.0235         0.22716224     0.22983436     0.22914664    -2257.2358      649.84984      649.84984      649.84984      2.7443471e+08  1.8269124     -21795377      -21795377       1250.3731     -21794126      -2241.917      -2268.2887     -2261.5015     -3.5383373     -29.741397     -10.719899      16742.059    
     48000   421.45962      0.024          0.22938985     0.23200356     0.23118531    -2278.4068      650.1673       650.1673       650.1673       2.7483711e+08  1.8242376     -21782732      -21782732       1255.0348     -21781477      -2263.9018     -2289.6971     -2281.6216     -5.6550748     -29.903381     -11.075998      16771.488    
     49000   422.99934      0.0245         0.23126979     0.23400407     0.23326062    -2297.9998      650.48477      650.48477      650.48477      2.752399e+08   1.8215679     -21769956      -21769956       1259.6198     -21768696      -2282.4554     -2309.4406     -2302.1033     -7.8442161     -30.082399     -10.608601      16666.494    
     50000   424.80585      0.025          0.23305152     0.23589716     0.23525286    -2316.643       650.80223      650.80223      650.80223      2.7564308e+08  1.8189035     -21757063      -21757063       1264.9993     -21755798      -2300.0397     -2328.124      -2321.7652     -7.2906373     -29.378381     -10.055082      16360.831    
     51000   427.18418      0.0255         0.2348839      0.23763015     0.2368888     -2333.7539      651.11969      651.11969      651.11969      2.7604666e+08  1.8162443     -21744061      -21744061       1272.0815     -21742789      -2318.1238     -2345.2273     -2337.9106     -5.1698544     -28.219218     -9.6303313      16715.666    
     52000   429.5013       0.026          0.23665434     0.23934959     0.23851189    -2350.5743      651.43716      651.43716      651.43716      2.7645063e+08  1.8135903     -21730966      -21730966       1278.9815     -21729687      -2335.5967     -2362.1968     -2353.9293     -3.437161      -27.817804     -9.9439342      16742.288    
     53000   431.30436      0.0265         0.23823988     0.2410385      0.24017061    -2366.8031      651.75462      651.75462      651.75462      2.7685499e+08  1.8109414     -21717778      -21717778       1284.3507     -21716494      -2351.2448     -2378.865      -2370.2996     -2.9859536     -27.249775     -10.452748      16340.784    
     54000   432.76064      0.027          0.23984855     0.24260237     0.24158567    -2381.8952      652.07209      652.07209      652.07209      2.7725975e+08  1.8082977     -21704488      -21704488       1288.6873     -21703200      -2367.1212     -2394.2993     -2384.2652     -4.0631534     -26.671143     -11.783571      16678.754    
     55000   433.78156      0.0275         0.24160611     0.24424325     0.24305612    -2397.9126      652.38955      652.38955      652.38955      2.7766491e+08  1.8056591     -21691088      -21691088       1291.7274     -21689796      -2384.4669     -2410.4935     -2398.7774     -5.5618815     -26.664615     -12.866328      16779.603    
     56000   434.27982      0.028          0.24335592     0.24586367     0.24480405    -2414.7501      652.70702      652.70702      652.70702      2.7807045e+08  1.8030257     -21677574      -21677574       1293.2111     -21676281      -2401.7362     -2426.4858     -2416.0282     -5.8313469     -27.494029     -11.575107      16704.428    
     57000   435.22104      0.0285         0.24485273     0.2470194      0.2461848     -2428.0185      653.02448      653.02448      653.02448      2.784764e+08   1.8003974     -21663966      -21663966       1296.0139     -21662670      -2416.5086     -2437.8919     -2429.6551     -4.6774938     -28.556075     -9.1766861      16751.8      
     58000   437.31134      0.029          0.24602191     0.24795421     0.24713095    -2438.0527      653.34195      653.34195      653.34195      2.7888273e+08  1.7977742     -21650291      -21650291       1302.2385     -21648989      -2428.0475     -2447.1177     -2438.9928     -3.1354245     -28.303945     -9.112886       16738.211    
     59000   439.55377      0.0295         0.24711667     0.24922999     0.24831301    -2449.7398      653.65941      653.65941      653.65941      2.7928946e+08  1.7951561     -21636552      -21636552       1308.9161     -21635243      -2438.8519     -2459.7087     -2450.6588     -1.646492      -26.421515     -9.7833965      16758.796    
     60000   441.11881      0.03           0.24824286     0.25062453     0.24973529    -2462.7113      653.97687      653.97687      653.97687      2.7969659e+08  1.792543      -21622728      -21622728       1313.5765     -21621415      -2449.9665     -2473.4718     -2464.6957     -1.0598959     -25.292366     -9.8727835      16700.967    
     61000   442.22663      0.0305         0.24943502     0.25193029     0.25109574    -2475.4044      654.29434      654.29434      654.29434      2.8010411e+08  1.7899351     -21608815      -21608815       1316.8754     -21607499      -2461.7322     -2486.3587     -2478.1223     -0.88604881    -25.366381     -10.933145      16716.423    
     62000   443.18361      0.031          0.25064902     0.25300322     0.25210958    -2486.2631      654.6118       654.6118       654.6118       2.8051203e+08  1.7873322     -21594826      -21594826       1319.7251     -21593507      -2473.7135     -2496.9477     -2488.1281     -1.4889731     -25.407746     -11.135716      16742.053    
     63000   444.04128      0.0315         0.25154987     0.25372411     0.25276696    -2493.7608      654.92927      654.92927      654.92927      2.8092035e+08  1.7847343     -21580778      -21580778       1322.2791     -21579456      -2482.6041     -2504.0622     -2494.616      -3.3679071     -25.097867     -10.603779      16711.933    
     64000   445.05361      0.032          0.25218629     0.25437165     0.2535632     -2500.6041      655.24673      655.24673      655.24673      2.8132906e+08  1.7821415     -21566678      -21566678       1325.2936     -21565353      -2488.8852     -2510.453      -2502.4742     -3.7168314     -24.778692     -10.604683      16724.398    
     65000   445.98168      0.0325         0.25303799     0.25520211     0.25465579    -2509.7323      655.5642       655.5642       655.5642       2.8173816e+08  1.7795536     -21552523      -21552523       1328.0573     -21551195      -2497.2908     -2518.649      -2513.2572     -1.9741435     -24.318614     -11.274083      16737.886    
     66000   446.85345      0.033          0.25413248     0.2561407      0.25555195    -2519.3688      655.88166      655.88166      655.88166      2.8214767e+08  1.7769708     -21538302      -21538302       1330.6533     -21536971      -2508.0926     -2527.9122     -2522.1017     -1.3035271     -23.314345     -12.030217      16775.326    
     67000   447.72097      0.0335         0.25519392     0.25707448     0.25621633    -2528.1182      656.19913      656.19913      656.19913      2.8255757e+08  1.774393      -21524015      -21524015       1333.2366     -21522682      -2518.5682     -2537.1279     -2528.6586     -2.4887204     -23.78485      -11.980937      16779.295    
     68000   448.43139      0.034          0.25602013     0.25785074     0.25675225    -2535.1529      656.51659      656.51659      656.51659      2.8296786e+08  1.7718202     -21509671      -21509671       1335.3521     -21508335      -2526.7222     -2544.7889     -2533.9477     -3.0249193     -25.607708     -11.502935      16779.892    
     69000   449.11887      0.0345         0.25665847     0.25856169     0.25713139    -2540.8391      656.83406      656.83406      656.83406      2.8337856e+08  1.7692523     -21495276      -21495276       1337.3993     -21493939      -2533.0222     -2551.8054     -2537.6896     -1.699374      -25.511008     -11.016989      16670.537    
     70000   449.91853      0.035          0.25713283     0.25913981     0.25756053    -2545.7132      657.15152      657.15152      657.15152      2.8378965e+08  1.7666894     -21480842      -21480842       1339.7805     -21479502      -2537.7037     -2557.5111     -2541.9248      0.02498352    -23.918242     -10.3939        16654.484    
     71000   450.70661      0.0355         0.25739684     0.25948558     0.25824798    -2549.9808      657.46898      657.46898      657.46898      2.8420114e+08  1.7641315     -21466372      -21466372       1342.1273     -21465030      -2540.3093     -2560.9235     -2548.7094      0.69652554    -23.002855     -10.446631      16731.761    
     72000   451.46416      0.036          0.25773986     0.25977164     0.25905588    -2554.708       657.78645      657.78645      657.78645      2.8461302e+08  1.7615785     -21451865      -21451865       1344.3832     -21450520      -2543.6946     -2563.7467     -2556.6828      0.91859937    -23.737631     -10.832811      16570.266    
     73000   452.18707      0.0365         0.25830915     0.26024607     0.25951875    -2559.6644      658.10391      658.10391      658.10391      2.8502531e+08  1.7590304     -21437322      -21437322       1346.5359     -21435975      -2549.3131     -2568.429      -2561.2509      1.6343152     -24.589653     -12.064743      16798.783    
     74000   452.5029       0.037          0.25863053     0.26069623     0.25968427    -2562.7471      658.42138      658.42138      658.42138      2.8543799e+08  1.7564872     -21422747      -21422747       1347.4764     -21421399      -2552.4849     -2572.8718     -2562.8845      2.1470995     -25.166026     -12.228859      16672.819    
     75000   452.35567      0.0375         0.25862628     0.26085871     0.25976321    -2563.5273      658.73884      658.73884      658.73884      2.8585107e+08  1.7539489     -21408145      -21408145       1347.0379     -21406798      -2552.4429     -2574.4753     -2563.6635      1.6861033     -25.285908     -11.454927      16691.181    
     76000   451.91076      0.038          0.25868823     0.26085396     0.25970897    -2563.537       659.05631      659.05631      659.05631      2.8626454e+08  1.7514156     -21393524      -21393524       1345.7131     -21392178      -2553.0544     -2574.4284     -2563.1283      0.3179389     -25.068069     -10.675195      16604.74     
     77000   451.62611      0.0385         0.25886518     0.26094106     0.25944493    -2563.537       659.37377      659.37377      659.37377      2.8667842e+08  1.748887      -21378888      -21378888       1344.8654     -21377544      -2554.8007     -2575.288      -2560.5224      0.45484595    -24.894829     -10.11153       16729.438    
     78000   451.36451      0.039          0.25927095     0.26110579     0.25951624    -2565.6484      659.69124      659.69124      659.69124      2.870927e+08   1.7463634     -21364230      -21364230       1344.0864     -21362886      -2558.8053     -2576.9138     -2561.2261      2.8020833     -25.006615     -10.964089      16581.532    
     79000   450.99734      0.0395         0.25969553     0.26112746     0.25995224    -2568.5508      660.0087       660.0087       660.0087       2.8750737e+08  1.7438446     -21349541      -21349541       1342.9931     -21348198      -2562.9956     -2577.1276     -2565.5292      4.4823426     -24.296733     -12.242674      16719.734    
     80000   450.98         0.04           0.25977822     0.26108523     0.26027767    -2569.7545      660.32616      660.32616      660.32616      2.8792244e+08  1.7413307     -21334828      -21334828       1342.9414     -21333486      -2563.8117     -2576.7109     -2568.7409      4.5691545     -22.694841     -11.804727      16478.433    
     81000   451.33718      0.0405         0.25946995     0.26107305     0.26035562    -2568.9567      660.64363      660.64363      660.64363      2.8833792e+08  1.7388215     -21320107      -21320107       1344.0051     -21318763      -2560.7693     -2576.5907     -2569.5102      5.1302761     -20.83596      -10.850913      16514.288    
     82000   451.57221      0.041          0.25906745     0.26090569     0.26016637    -2566.4595      660.96109      660.96109      660.96109      2.8875379e+08  1.7363172     -21305386      -21305386       1344.7049     -21304042      -2556.7969     -2574.939      -2567.6424      6.4882518     -20.323113     -11.697387      16694.057    
     83000   451.34983      0.0415         0.25871626     0.26063086     0.25973769    -2562.9897      661.27856      661.27856      661.27856      2.8917006e+08  1.7338177     -21290664      -21290664       1344.0427     -21289320      -2553.331      -2572.2266     -2563.4117      7.5119892     -20.591462     -12.463502      16593.057    
     84000   450.54847      0.042          0.25848411     0.26055101     0.25941837    -2560.9128      661.59602      661.59602      661.59602      2.8958673e+08  1.731323      -21275938      -21275938       1341.6564     -21274597      -2551.0398     -2571.4385     -2560.2602      6.2909291     -21.01331      -11.622902      16724.777    
     85000   449.63938      0.0425         0.25830808     0.26045553     0.25902647    -2558.7304      661.91349      661.91349      661.91349      2.900038e+08   1.7288331     -21261214      -21261214       1338.9493     -21259875      -2549.3026     -2570.4962     -2556.3925      3.9056205     -21.315785     -10.028924      16762.346    
     86000   449.43247      0.043          0.25803266     0.26000427     0.25855392    -2554.7853      662.23095      662.23095      662.23095      2.9042127e+08  1.726348      -21246495      -21246495       1338.3332     -21245157      -2546.5844     -2566.0426     -2551.7288      3.2806331     -21.711101     -9.5670137      16614.147    
     87000   449.70207      0.0435         0.25758351     0.25923559     0.25824946    -2549.7773      662.54842      662.54842      662.54842      2.9083915e+08  1.7238676     -21231795      -21231795       1339.136      -21230456      -2542.1515     -2558.4564     -2548.724       5.5154777     -21.360871     -9.5095683      16685.366    
     88000   449.5596       0.044          0.25704602     0.25858069     0.25790451    -2544.7198      662.86588      662.86588      662.86588      2.9125742e+08  1.721392      -21217107      -21217107       1338.7117     -21215769      -2536.847      -2551.993      -2545.3196      7.5875843     -19.835329     -9.937771       16658.609    
     89000   448.60764      0.0445         0.25652632     0.25814891     0.25751597    -2540.3115      663.18335      663.18335      663.18335      2.9167609e+08  1.7189211     -21202426      -21202426       1335.877      -21201090      -2531.7179     -2547.7316     -2541.4851      7.7607487     -18.662705     -10.701745      16742.078    
     90000   447.4804       0.045          0.25603351     0.2576982      0.2570064     -2535.5313      663.50081      663.50081      663.50081      2.9209517e+08  1.7164549     -21187759      -21187759       1332.5202     -21186426      -2526.8543     -2543.2835     -2536.456       7.6316766     -19.029776     -11.428556      16702.383    
     91000   446.59151      0.0455         0.25546874     0.25726947     0.25631287    -2529.9814      663.81827      663.81827      663.81827      2.9251464e+08  1.7139934     -21173117      -21173117       1329.8733     -21171787      -2521.2805     -2539.0523     -2529.6113      9.1974528     -19.836383     -12.496625      16728.169    
     92000   445.85001      0.046          0.25474218     0.25671474     0.25556191    -2523.2957      664.13574      664.13574      664.13574      2.9293452e+08  1.7115367     -21158495      -21158495       1327.6652     -21157168      -2514.1098     -2533.5775     -2522.1999      11.481062     -19.248639     -13.779298      16664.928    
     93000   445.09308      0.0465         0.25395527     0.25591172     0.25480088    -2515.5617      664.4532       664.4532       664.4532       2.933548e+08   1.7090846     -21143897      -21143897       1325.4112     -21142571      -2506.3436     -2525.6523     -2514.6892      12.976318     -18.230631     -13.973601      16536.809    
     94000   444.43175      0.047          0.25305382     0.25504315     0.25391095    -2506.8111      664.77067      664.77067      664.77067      2.9377548e+08  1.7066372     -21129325      -21129325       1323.4419     -21128001      -2497.4471     -2517.0802     -2505.9062      13.037056     -16.586914     -13.179175      16708.054    
     95000   443.79455      0.0475         0.25212438     0.25427472     0.2530022     -2498.236       665.08813      665.08813      665.08813      2.9419656e+08  1.7041945     -21114794      -21114794       1321.5444     -21113472      -2488.2742     -2509.4964     -2496.9375      11.805296     -15.11676      -11.203658      16702.838    
     96000   443.25856      0.048          0.25126387     0.25334638     0.25230476    -2490.0568      665.4056       665.4056       665.4056       2.9461805e+08  1.7017565     -21100307      -21100307       1319.9483     -21098987      -2479.7816     -2500.3344     -2490.0543      10.983013     -14.149669     -9.2534655      16703.277    
     97000   442.60303      0.0485         0.25038699     0.25244945     0.25169739    -2482.2233      665.72306      665.72306      665.72306      2.9503994e+08  1.6993231     -21085858      -21085858       1317.9963     -21084540      -2471.1274     -2491.4824     -2484.0601      11.195701     -13.883409     -7.9255262      16704.57     
     98000   441.46176      0.049          0.24957629     0.25167143     0.25090986    -2474.406       666.04053      666.04053      666.04053      2.9546223e+08  1.6968943     -21071437      -21071437       1314.5977     -21070122      -2463.1264     -2483.8039     -2476.2878      10.010975     -14.351241     -8.4667065      16692.222    
     99000   439.76535      0.0495         0.24886869     0.2506162      0.24995661    -2465.4708      666.35799      666.35799      666.35799      2.9588492e+08  1.6944702     -21057041      -21057041       1309.5461     -21055731      -2456.143      -2473.3896     -2466.8799      8.0743736     -13.999834     -10.587685      16688.757    
    100000   438.26964      0.05           0.24817705     0.24929018     0.24888709    -2455.3148      666.67545      666.67545      666.67545      2.9630801e+08  1.6920507     -21042676      -21042676       1305.0921     -21041371      -2449.3171     -2460.3028     -2456.3246      8.4513557     -12.146651     -11.803208      12401.326    
    101000   437.27813      0.0505         0.2473115      0.24809058     0.24779127    -2444.916       666.99292      666.99292      666.99292      2.9673151e+08  1.6896358     -21028358      -21028358       1302.1396     -21027056      -2440.7747     -2448.4637     -2445.5097      10.160057     -11.13849      -12.300114      16725.009    
    102000   436.88208      0.051          0.24614047     0.24715272     0.24670121    -2434.3923      667.31038      667.31038      667.31038      2.9715542e+08  1.6872254     -21014098      -21014098       1300.9602     -21012797      -2429.2176     -2439.2077     -2434.7516      11.300137     -11.052439     -13.107621      16697.803    
    103000   436.88516      0.0515         0.24449768     0.24625662     0.24548428    -2422.0366      667.62785      667.62785      667.62785      2.9757972e+08  1.6848197     -20999907      -20999907       1300.9694     -20998606      -2413.0045     -2430.3639     -2422.7415      11.256543     -10.874848     -12.995311      16724.606    
    104000   436.21073      0.052          0.24264724     0.24514437     0.2443265     -2408.4813      667.94531      667.94531      667.94531      2.9800443e+08  1.6824185     -20985787      -20985787       1298.9611     -20984488      -2394.742      -2419.3868     -2411.315       11.452667     -11.094163     -11.68125       16713.181    
    105000   434.02377      0.0525         0.24106955     0.24371885     0.24310023    -2394.5674      668.26278      668.26278      668.26278      2.9842954e+08  1.6800219     -20971721      -20971721       1292.4487     -20970429      -2379.1714     -2405.318      -2399.2128      12.915638     -11.591977     -10.383825      16594.275    
    106000   431.43391      0.053          0.23976249     0.24214317     0.24164248    -2380.2883      668.58024      668.58024      668.58024      2.9885506e+08  1.6776299     -20957708      -20957708       1284.7365     -20956423      -2366.2718     -2389.7673     -2384.8259      13.466311     -10.802098     -10.361532      16707.086    
    107000   429.68575      0.0535         0.23887986     0.24082758     0.24040272    -2368.9782      668.89771      668.89771      668.89771      2.9928098e+08  1.6752424     -20943751      -20943751       1279.5308     -20942471      -2357.561      -2376.7834     -2372.5903      12.069677     -8.8040183     -10.927974      16692.946    
    108000   428.3476       0.054          0.23832125     0.23990643     0.23957916    -2361.4009      669.21517      669.21517      669.21517      2.9970731e+08  1.6728594     -20929842      -20929842       1275.546      -20928567      -2352.0479     -2367.6923     -2364.4625      10.446926     -7.4755758     -11.60577       16689.939    
    109000   427.2437       0.0545         0.2373723      0.23885403     0.23850354    -2351.2785      669.53264      669.53264      669.53264      3.0013404e+08  1.6704809     -20915974      -20915974       1272.2588     -20914702      -2342.6824     -2357.306      -2353.8469      10.480614     -7.9121675     -12.036885      16643.778    
    110000   426.54995      0.055          0.23590557     0.23745278     0.23711195    -2337.2656      669.8501       669.8501       669.8501       3.0056117e+08  1.6681069     -20902162      -20902162       1270.1929     -20900892      -2328.207      -2343.4767     -2340.113       12.023396     -9.5280402     -12.090878      16684.295    
    111000   425.89548      0.0555         0.23418544     0.23584069     0.23564339    -2321.4722      670.16756      670.16756      670.16756      3.0098872e+08  1.6657375     -20888427      -20888427       1268.244      -20887159      -2311.2306     -2327.5667     -2325.6194      12.686062     -10.126579     -11.820784      16753.738    
    112000   424.95083      0.056          0.23239683     0.2341924      0.23419219    -2305.3916      670.48503      670.48503      670.48503      3.0141666e+08  1.6633725     -20874776      -20874776       1265.431      -20873511      -2293.5784     -2311.2993     -2311.2972      10.948002     -8.3018177     -11.626349      16686.857    
    113000   423.6527       0.0565         0.23075583     0.2327097      0.2328263     -2290.622       670.80249      670.80249      670.80249      3.0184501e+08  1.661012      -20861210      -20861210       1261.5654     -20859949      -2277.383      -2296.6662     -2297.8169      9.506074      -7.5625927     -11.425066      16723.223    
    114000   421.6396       0.057          0.22952187     0.23142945     0.23159722    -2278.3076      671.11996      671.11996      671.11996      3.0227377e+08  1.6586559     -20847707      -20847707       1255.5707     -20846452      -2265.2047     -2284.0311     -2285.6868      10.15455      -9.2846436     -11.810598      16765.177    
    115000   418.85712      0.0575         0.22850181     0.23010112     0.23026441    -2266.1973      671.43742      671.43742      671.43742      3.0270293e+08  1.6563043     -20834253      -20834253       1247.285      -20833005      -2255.1375     -2270.9215     -2272.533       11.676788     -11.262348     -11.696778      16626.478    
    116000   416.86366      0.058          0.22713408     0.22862006     0.22868731    -2251.6373      671.75489      671.75489      671.75489      3.031325e+08   1.6539572     -20820859      -20820859       1241.3488     -20819618      -2241.6391     -2256.3046     -2256.9683      12.131709     -11.872325     -11.271338      16700.306    
    117000   416.01024      0.0585         0.22542658     0.22716428     0.22725392    -2236.5155      672.07235      672.07235      672.07235      3.0356248e+08  1.6516145     -20807538      -20807538       1238.8075     -20806299      -2224.7874     -2241.9371     -2242.8218      11.336984     -11.464297     -11.430234      16704.836    
    118000   415.22327      0.059          0.22378573     0.2257491      0.22599344    -2222.3152      672.38982      672.38982      672.38982      3.0399286e+08  1.6492762     -20794295      -20794295       1236.464      -20793058      -2208.5935     -2227.9704     -2230.3818      9.8339027     -9.7816781     -10.975363      16671.365    
    119000   414.10517      0.0595         0.22244142     0.2242936      0.2245767     -2208.4439      672.70728      672.70728      672.70728      3.0442365e+08  1.6469423     -20781130      -20781130       1233.1345     -20779897      -2195.3261     -2213.6058     -2216.3997      8.5966419     -8.2385128     -10.122137      16585.044    
    120000   412.59957      0.06           0.22126444     0.22272129     0.22292974    -2193.9813      673.02474      673.02474      673.02474      3.0485484e+08  1.6446128     -20768040      -20768040       1228.6511     -20766812      -2183.7102     -2198.0883     -2200.1454      7.9480772     -8.3917356     -10.435561      16705.932    
    121000   410.9433       0.0605         0.21979259     0.22097525     0.22118789    -2177.665       673.34221      673.34221      673.34221      3.0528644e+08  1.6422877     -20755025      -20755025       1223.719      -20753802      -2169.1842     -2180.8562     -2182.9548      9.0066795     -9.33151       -11.589237      16697.658    
    122000   409.38114      0.061          0.21787855     0.2193305      0.21948872    -2160.3677      673.65967      673.65967      673.65967      3.0571845e+08  1.639967      -20742097      -20742097       1219.0671     -20740878      -2150.2941     -2164.6237     -2166.1853      10.660726     -8.6606071     -12.945437      16647.994    
    123000   407.84089      0.0615         0.215911       0.21789529     0.21807439    -2144.5207      673.97714      673.97714      673.97714      3.0615087e+08  1.6376507     -20729249      -20729249       1214.4805     -20728034      -2130.8759     -2150.4593     -2152.2269      10.967352     -7.9538609     -13.905635      16705.416    
    124000   406.3182       0.062          0.21436029     0.21660786     0.21697024    -2131.5516      674.2946       674.2946       674.2946       3.0658369e+08  1.6353387     -20716469      -20716469       1209.9462     -20715260      -2115.5716     -2137.7534     -2141.3298      9.8667908     -8.1961824     -12.566261      16620.184    
    125000   404.83228      0.0625         0.2131828      0.21545746     0.21592652    -2120.4598      674.61207      674.61207      674.61207      3.0701692e+08  1.6330311     -20703751      -20703751       1205.5214     -20702546      -2103.9506     -2126.3998     -2131.029       8.5414971     -8.5374854     -9.8879576      16677.412    
    126000   403.32725      0.063          0.21207398     0.21422442     0.2145207     -2108.1309      674.92953      674.92953      674.92953      3.0745056e+08  1.6307278     -20691093      -20691093       1201.0397     -20689892      -2093.0074     -2114.2307     -2117.1547      7.0352695     -9.1513262     -8.6361079      16671.001    
    127000   402.0172       0.0635         0.21073581     0.21270615     0.21281118    -2093.1101      675.247        675.247        675.247        3.0788461e+08  1.6284288     -20678504      -20678504       1197.1386     -20677307      -2079.8008     -2099.2464     -2100.2831      5.946356      -9.5535668     -8.9977214      16647.756    
    128000   400.5292       0.064          0.20922293     0.21097296     0.21126608    -2077.3484      675.56446      675.56446      675.56446      3.0831907e+08  1.6261342     -20665994      -20665994       1192.7076     -20664801      -2064.8698     -2082.1412     -2085.0341      5.2886091     -8.7433148     -10.425753      16720.305    
    129000   398.64678      0.0645         0.20768568     0.20914126     0.20979772    -2061.4348      675.88193      675.88193      675.88193      3.0875393e+08  1.6238439     -20653562      -20653562       1187.1021     -20652375      -2049.6983     -2064.0637     -2070.5425      4.7368717     -7.5631475     -12.428089      16697.858    
    130000   397.0537       0.065          0.20615028     0.20738061     0.20816207    -2045.2108      676.19939      676.19939      676.19939      3.0918921e+08  1.6215578     -20641208      -20641208       1182.3581     -20640025      -2034.5451     -2046.6875     -2054.3999      5.4429958     -7.5850898     -14.116961      16659.048    
    131000   396.10197      0.0655         0.20452915     0.20575088     0.20646996    -2028.9497      676.51685      676.51685      676.51685      3.0962489e+08  1.6192761     -20628945      -20628945       1179.524      -20627765      -2018.5458     -2030.6033     -2037.7001      6.8972253     -8.6573303     -14.258451      16754.218    
    132000   395.00115      0.066          0.20298899     0.20441079     0.20492718    -2014.3991      676.83432      676.83432      676.83432      3.1006098e+08  1.6169986     -20616775      -20616775       1176.246      -20615598      -2003.3455     -2017.3776     -2022.474       7.7536264     -8.9049642     -12.868631      16619.436    
    133000   392.93918      0.0665         0.20170519     0.20319023     0.2036777     -2002.0499      677.15178      677.15178      677.15178      3.1049748e+08  1.6147254     -20604672      -20604672       1170.1058     -20603502      -1990.6754     -2005.3316     -2010.1426      6.9931987     -7.0875915     -11.193803      16461.502    
    134000   390.54368      0.067          0.20044551     0.20182264     0.20252937    -1989.6292      677.46925      677.46925      677.46925      3.1093439e+08  1.6124565     -20592620      -20592620       1162.9724     -20591457      -1978.2434     -1991.8345     -1998.8095      5.518793      -5.9405242     -10.414183      16670.049    
    135000   388.67539      0.0675         0.19892755     0.20037621     0.20115962    -1975.3709      677.78671      677.78671      677.78671      3.1137171e+08  1.6101918     -20580625      -20580625       1157.4089     -20579468      -1963.2622     -1977.5595     -1985.2911      4.3177031     -6.4800644     -10.064436      16558.358    
    136000   387.38907      0.068          0.19735254     0.19887914     0.19965251    -1960.3066      678.10418      678.10418      678.10418      3.1180944e+08  1.6079314     -20568706      -20568706       1153.5785     -20567552      -1947.7181     -1962.7845     -1970.417       3.9358385     -7.3069514     -9.161976       16714.464    
    137000   386.05618      0.0685         0.19610483     0.19752538     0.19818322    -1946.9148      678.42164      678.42164      678.42164      3.1224758e+08  1.6056751     -20556862      -20556862       1149.6094     -20555712      -1935.4042     -1949.424      -1955.9163      3.8649998     -7.878721      -8.3091338      16584.128    
    138000   384.60233      0.069          0.19499739     0.19641037     0.19680399    -1935.0662      678.73911      678.73911      678.73911      3.1268613e+08  1.6034231     -20545084      -20545084       1145.2801     -20543939      -1924.4746     -1938.4196     -1942.3044      3.6381804     -7.9804609     -8.8229272      16674.99     
    139000   383.36041      0.0695         0.19354556     0.19521517     0.19545616    -1921.9241      679.05657      679.05657      679.05657      3.1312509e+08  1.6011754     -20533378      -20533378       1141.5819     -20532237      -1910.1461     -1926.6239     -1929.0024      3.0457347     -7.0647167     -10.673245      16685.743    
    140000   382.33898      0.07           0.19205563     0.19378924     0.19422572    -1908.2839      679.37404      679.37404      679.37404      3.1356446e+08  1.5989318     -20521743      -20521743       1138.5402     -20520605      -1895.4417     -1912.5511     -1916.8588      2.9255717     -7.0711219     -11.69445       16660.848    
    141000   381.14027      0.0705         0.19089777     0.19227472     0.19301346    -1895.5044      679.6915       679.6915       679.6915       3.1400424e+08  1.5966924     -20510173      -20510173       1134.9706     -20509038      -1884.0145     -1897.604      -1904.8948      2.9130518     -7.8491038     -11.478116      16697.34     
    142000   379.39999      0.071          0.18994645     0.1910248      0.19175523    -1884.1236      680.00896      680.00896      680.00896      3.1444444e+08  1.5944571     -20498655      -20498655       1129.7884     -20497525      -1874.6257     -1885.2682     -1892.4769      2.805002      -6.8772175     -10.401278      16690.644    
    143000   377.32815      0.0715         0.18883251     0.19002222     0.19050666    -1873.0533      680.32643      680.32643      680.32643      3.1488504e+08  1.5922261     -20487185      -20487185       1123.6188     -20486061      -1863.6319     -1875.3735     -1880.1546      2.3483643     -5.1276006     -9.325294       16641.889    
    144000   375.88675      0.072          0.18748424     0.18880322     0.18919045    -1860.2777      680.64389      680.64389      680.64389      3.1532605e+08  1.5899992     -20475777      -20475777       1119.3266     -20474658      -1850.3256     -1863.3429     -1867.1646      2.2698574     -4.5309747     -8.7806528      16752.582    
    145000   375.16403      0.0725         0.18628827     0.18737747     0.18795481    -1847.588       680.96136      680.96136      680.96136      3.1576748e+08  1.5877765     -20464441      -20464441       1117.1744     -20463324      -1838.5223     -1849.2719     -1854.9697      2.6100777     -5.1090841     -8.6603528      16657.085    
    146000   374.15001      0.073          0.18524514     0.18593644     0.18672489    -1835.3696      681.27882      681.27882      681.27882      3.1620932e+08  1.5855579     -20453174      -20453174       1114.1549     -20452060      -1828.2274     -1835.05       -1842.8314      2.8329217     -5.071973      -9.3575217      16714.681    
    147000   372.82449      0.0735         0.18403343     0.184672       0.18543743    -1822.9883      681.59629      681.59629      681.59629      3.1665157e+08  1.5833434     -20441975      -20441975       1110.2077     -20440865      -1816.2687     -1822.571      -1830.1252      1.4421113     -4.6308773     -10.025858      16391.484    
    148000   371.42146      0.074          0.18282485     0.18369243     0.1843128     -1812.0901      681.91375      681.91375      681.91375      3.1709423e+08  1.5811331     -20430833      -20430833       1106.0297     -20429727      -1804.341      -1812.9033     -1819.026      -0.27766773    -4.2551721     -9.431285       16728.945    
    149000   369.70419      0.0745         0.18180387     0.18287221     0.18318344    -1802.3177      682.23122      682.23122      682.23122      3.1753731e+08  1.5789268     -20419731      -20419731       1100.9159     -20418630      -1794.2647     -1804.8084     -1807.88        0.18850259    -3.5038757     -7.9858357      16653.889    
    150000   367.85319      0.075          0.18083136     0.18185994     0.18196541    -1791.7812      682.54868      682.54868      682.54868      3.179808e+08   1.5767247     -20408670      -20408670       1095.404      -20407575      -1784.6667     -1794.818      -1795.8589      2.870108      -2.9797287     -7.2232914      16179.646    
    151000   366.23594      0.0755         0.17979118     0.18064591     0.18080553    -1780.5498      682.86614      682.86614      682.86614      3.184247e+08   1.5745267     -20397662      -20397662       1090.5881     -20396571      -1774.401      -1782.8365     -1784.4119      4.3751689     -4.069892      -7.7149703      16647.888    
    152000   364.97123      0.076          0.17861257     0.17948548     0.17982128    -1769.617       683.18361      683.18361      683.18361      3.1886901e+08  1.5723327     -20386712      -20386712       1086.822      -20385625      -1762.769      -1771.384      -1774.6981      3.168772      -5.812154      -8.4657154      16666.926    
    153000   364.22119      0.0765         0.17740476     0.17849021     0.1788882     -1759.2998      683.50107      683.50107      683.50107      3.1931374e+08  1.5701428     -20375823      -20375823       1084.5885     -20374738      -1750.8489     -1761.5614     -1765.4892      1.1064306     -5.6956816     -9.2840758      16698.105    
    154000   363.86029      0.077          0.17652711     0.17756162     0.17791515    -1750.1567      683.81854      683.81854      683.81854      3.1975888e+08  1.567957      -20364992      -20364992       1083.5138     -20363909      -1742.1871     -1752.3969     -1755.886      -0.32312427    -4.2947157     -9.9254529      16686.846    
    155000   363.39882      0.0775         0.17585866     0.17654792     0.17694213    -1741.4219      684.136        684.136        684.136        3.2020443e+08  1.5657753     -20354206      -20354206       1082.1396     -20353124      -1735.5901     -1742.3925     -1746.2831     -0.32228057    -3.5605924     -10.963129      16557.49     
    156000   362.43157      0.078          0.17518143     0.17555886     0.1760396     -1732.9711      684.45347      684.45347      684.45347      3.206504e+08   1.5635976     -20343455      -20343455       1079.2593     -20342376      -1728.9063     -1732.6312     -1737.3758      0.69477869    -3.4991357     -10.882912      16664.882    
    157000   361.10173      0.0785         0.17431918     0.17474621     0.17528865    -1724.9907      684.77093      684.77093      684.77093      3.2109678e+08  1.5614239     -20332734      -20332734       1075.2993     -20331659      -1720.3966     -1724.611      -1729.9645      0.30814741    -3.6856819     -9.5173457      16668.351    
    158000   359.70236      0.079          0.17323296     0.17395348     0.1745246     -1716.2959      685.0884       685.0884       685.0884       3.2154357e+08  1.5592542     -20322048      -20322048       1071.1322     -20320977      -1709.6764     -1716.7874     -1722.4238     -1.3614497     -4.0487155     -9.533314       16697.484    
    159000   358.54988      0.0795         0.17210348     0.17308435     0.1735599     -1706.5474      685.40586      685.40586      685.40586      3.2199078e+08  1.5570886     -20311408      -20311408       1067.7003     -20310340      -1698.5293     -1708.2097     -1712.9031     -0.88265142    -4.2486607     -10.127298      16632.012    
    160000   357.46002      0.08           0.1711474      0.17215823     0.17246157    -1696.7422      685.72333      685.72333      685.72333      3.2243841e+08  1.554927      -20300821      -20300821       1064.4549     -20299757      -1689.0935     -1699.0696     -1702.0633      1.5165988     -4.7064952     -9.302576       16618.988    
    161000   356.18252      0.0805         0.17034829     0.17113217     0.17132339    -1686.9935      686.04079      686.04079      686.04079      3.2288645e+08  1.5527694     -20290288      -20290288       1060.6507     -20289228      -1681.2069     -1688.9432     -1690.8304      2.8451623     -5.5102697     -8.1744747      16610.467    
    162000   354.77368      0.081          0.16970439     0.17015152     0.17034907    -1678.4439      686.35825      686.35825      686.35825      3.233349e+08   1.5506157     -20279800      -20279800       1056.4554     -20278743      -1674.8521     -1679.2649     -1681.2146      2.7238879     -5.986377      -8.5122817      16684.929    
    163000   353.49481      0.0815         0.16903802     0.16927437     0.16963026    -1671.0014      686.67572      686.67572      686.67572      3.2378377e+08  1.5484661     -20269343      -20269343       1052.6472     -20268291      -1668.2756     -1670.6081     -1674.1205      2.4385251     -4.8501291     -9.040362       16645.16     
    164000   352.61905      0.082          0.16829564     0.16842638     0.16909006    -1663.9924      686.99318      686.99318      686.99318      3.2423305e+08  1.5463204     -20258915      -20258915       1050.0393     -20257865      -1660.9489     -1662.2391     -1668.7892      2.2162343     -2.9922387     -9.0801685      16674.097    
    165000   352.13251      0.0825         0.16760016     0.16772848     0.16847283    -1657.378       687.31065      687.31065      687.31065      3.2468275e+08  1.5441787     -20248516      -20248516       1048.5905     -20247467      -1654.085      -1655.3514     -1662.6975      0.84783025    -2.123617      -9.0956564      16670.338    
    166000   351.79337      0.083          0.16691821     0.16720632     0.16763009    -1650.6444      687.62811      687.62811      687.62811      3.2513286e+08  1.5420409     -20238152      -20238152       1047.5806     -20237104      -1647.3547     -1650.198      -1654.3804      0.021573592   -3.3820852     -9.436545       16695.576    
    167000   351.46684      0.0835         0.16607195     0.16669247     0.16670074    -1643.1126      687.94558      687.94558      687.94558      3.255834e+08   1.5399071     -20227825      -20227825       1046.6082     -20226779      -1639.0027     -1645.1267     -1645.2084      1.8368239     -5.0979511     -9.3851097      16655.663    
    168000   350.86597      0.084          0.16509663     0.16600998     0.1659097     -1635.0566      688.26304      688.26304      688.26304      3.2603434e+08  1.5377772     -20217543      -20217543       1044.819      -20216498      -1629.3771     -1638.3911     -1637.4015      4.6478573     -5.7782006     -9.2103823      16617.72     
    169000   349.77356      0.0845         0.16417668     0.1650802      0.16527441    -1626.8814      688.58051      688.58051      688.58051      3.264857e+08   1.5356512     -20207301      -20207301       1041.5659     -20206259      -1620.2978     -1629.2149     -1631.1316      4.6336211     -6.2613269     -9.3301338      16709.395    
    170000   348.36898      0.085          0.16336259     0.16415807     0.16471772    -1619.3384      688.89797      688.89797      688.89797      3.2693748e+08  1.5335292     -20197084      -20197084       1037.3833     -20196047      -1612.2634     -1620.1142     -1625.6375      2.4178213     -6.4795176     -8.7627776      16623.164    
    171000   347.24945      0.0855         0.16266131     0.16342994     0.16405199    -1612.4459      689.21543      689.21543      689.21543      3.2738968e+08  1.5314111     -20186893      -20186893       1034.0496     -20185859      -1605.3423     -1612.9282     -1619.0673      1.1480883     -5.5442264     -7.611688       16677.529    
    172000   346.53291      0.086          0.16223497     0.16287911     0.16319145    -1606.4003      689.5329       689.5329       689.5329       3.2784229e+08  1.5292968     -20176739      -20176739       1031.9158     -20175707      -1601.1346     -1607.4918     -1610.5744      1.2974766     -4.4398056     -5.9258139      16654.199    
    173000   346.08105      0.0865         0.16201976     0.16234372     0.16232606    -1601.0841      689.85036      689.85036      689.85036      3.2829532e+08  1.5271865     -20166616      -20166616       1030.5703     -20165586      -1599.0107     -1602.208      -1602.0337      1.9181224     -4.4621189     -4.6588953      16634.876    
    174000   345.79272      0.087          0.16163468     0.16177618     0.16171647    -1595.9448      690.16783      690.16783      690.16783      3.2874877e+08  1.52508       -20156515      -20156515       1029.7117     -20155485      -1595.2103     -1596.6067     -1596.0175      2.6203018     -4.9178333     -4.8305829      16723.847    
    175000   345.49966      0.0875         0.16085728     0.1612619      0.16139646    -1590.6428      690.48529      690.48529      690.48529      3.2920263e+08  1.5229774     -20146434      -20146434       1028.839      -20145405      -1587.5379     -1591.5312     -1592.8592      3.0317353     -5.5164569     -6.2904022      16626.827    
    176000   345.16499      0.088          0.15993324     0.16078888     0.1609036     -1584.4254      690.80276      690.80276      690.80276      3.2965691e+08  1.5208787     -20136376      -20136376       1027.8424     -20135348      -1578.4184     -1586.8629     -1587.9951      2.9103542     -6.3118402     -8.5018293      16649.05     
    177000   344.82707      0.0885         0.15916281     0.16021648     0.16001135    -1577.0726      691.12022      691.12022      691.12022      3.3011161e+08  1.5187838     -20126350      -20126350       1026.8361     -20125324      -1570.8148     -1581.2138     -1579.1893      3.0426256     -6.2460744     -9.7034748      16595.195    
    178000   344.40265      0.089          0.1585542      0.15943647     0.15906065    -1569.3768      691.43769      691.43769      691.43769      3.3056673e+08  1.5166928     -20116366      -20116366       1025.5723     -20115340      -1564.8083     -1573.5156     -1569.8065      4.3176761     -5.3020552     -9.1551597      16679.468    
    179000   343.58918      0.0895         0.15800378     0.15861217     0.15853606    -1563.1286      691.75515      691.75515      691.75515      3.3102226e+08  1.5146056     -20106418      -20106418       1023.1499     -20105394      -1559.3761     -1565.3804     -1564.6293      5.0245705     -4.9036663     -7.2822535      16511.479    
    180000   342.39264      0.09           0.15753737     0.15799218     0.15827534    -1558.6969      692.07262      692.07262      692.07262      3.3147822e+08  1.5125222     -20096486      -20096486       1019.5868     -20095467      -1554.7729     -1559.2615     -1562.0561      4.4926667     -5.3467584     -6.0926424      16662.489    
    181000   341.41004      0.0905         0.15707912     0.15749019     0.1577791     -1553.9055      692.39008      692.39008      692.39008      3.3193459e+08  1.5104427     -20086569      -20086569       1016.6608     -20085553      -1550.2504     -1554.3074     -1557.1587      3.8373961     -5.5375473     -6.8778925      16670.104    
    182000   341.21835      0.091          0.15646796     0.15685498     0.15701362    -1547.287       692.70754      692.70754      692.70754      3.3239138e+08  1.508367      -20076683      -20076683       1016.09       -20075667      -1544.2187     -1548.0383     -1549.604       3.8397351     -6.0667483     -7.7261314      16636.757    
    183000   341.28569      0.0915         0.15579407     0.15623285     0.15629208    -1540.6497      693.02501      693.02501      693.02501      3.3284859e+08  1.506295      -20066835      -20066835       1016.2905     -20065818      -1537.568      -1541.8983     -1542.4829      3.375231      -7.4804039     -6.8511976      16681.341    
    184000   340.96102      0.092          0.15531804     0.15588524     0.15579156    -1536.2936      693.34247      693.34247      693.34247      3.3330622e+08  1.5042269     -20057007      -20057007       1015.3237     -20055992      -1532.8699     -1538.4677     -1537.5431      1.9509943     -8.6038429     -5.9553923      16669.622    
    185000   340.26412      0.0925         0.15497253     0.15556022     0.15554195    -1533.2666      693.65994      693.65994      693.65994      3.3376427e+08  1.5021625     -20047184      -20047184       1013.2484     -20046170      -1529.46       -1535.2601     -1535.0797      1.7380383     -8.4848401     -5.6930411      16677.43     
    186000   339.70212      0.093          0.15456983     0.15500457     0.1552351     -1529.1043      693.9774       693.9774       693.9774       3.3422273e+08  1.500102      -20037373      -20037373       1011.5749     -20036362      -1525.4856     -1529.7762     -1532.0513      2.6491251     -7.0014241     -5.8679435      16710.054    
    187000   339.32912      0.0935         0.15412311     0.15439909     0.15456967    -1523.4538      694.29487      694.29487      694.29487      3.3468162e+08  1.4980451     -20027595      -20027595       1010.4642     -20026584      -1521.0769     -1523.8005     -1525.4841      3.6874211     -4.5260141     -6.748001       16636.463    
    188000   339.09662      0.094          0.15351771     0.15379524     0.15369003    -1516.5819      694.61233      694.61233      694.61233      3.3514093e+08  1.4959921     -20017847      -20017847       1009.7718     -20016837      -1515.102      -1517.841      -1516.8026      4.5361082     -2.9605812     -7.186375       16658.626    
    189000   339.17356      0.0945         0.15273252     0.15319775     0.15294353    -1509.5774      694.9298       694.9298       694.9298       3.3560065e+08  1.4939428     -20008131      -20008131       1010.0009     -20007121      -1507.3527     -1511.9443     -1509.4353      5.2318411     -3.3698044     -5.9087148      16648.655    
    190000   339.19106      0.095          0.15207376     0.15288262     0.15251974    -1504.9794      695.24726      695.24726      695.24726      3.360608e+08   1.4918972     -19998439      -19998439       1010.0531     -19997429      -1500.8513     -1508.8342     -1505.2528      5.4126167     -5.2818021     -5.5223895      16656.994    
    191000   338.52826      0.0955         0.15165217     0.15288668     0.15240093    -1503.215       695.56472      695.56472      695.56472      3.3652137e+08  1.4898554     -19988756      -19988756       1008.0794     -19987748      -1496.6906     -1508.8742     -1504.0803      5.1185453     -6.9861385     -6.3459307      16639.426    
    192000   337.5859       0.096          0.15128325     0.15268008     0.15225771    -1500.8505      695.88219      695.88219      695.88219      3.3698236e+08  1.4878173     -19979080      -19979080       1005.2732     -19978075      -1493.0495     -1506.8352     -1502.6668      4.4045694     -7.603477      -7.060668       16693.378    
    193000   336.91081      0.0965         0.15086956     0.15212186     0.15182935    -1496.244       696.19965      696.19965      696.19965      3.3744377e+08  1.4857829     -19969420      -19969420       1003.2629     -19968417      -1488.9668     -1501.3261     -1498.4392      3.8349483     -7.5380714     -6.5732163      16584.388    
    194000   336.76796      0.097          0.15043185     0.15132727     0.15109856    -1489.7859      696.51712      696.51712      696.51712      3.379056e+08   1.4837522     -19959783      -19959783       1002.8375     -19958780      -1484.6469     -1493.484      -1491.2269      3.935296      -7.3898883     -5.5281317      16645.416    
    195000   336.92479      0.0975         0.15007714     0.15049422     0.15043406    -1483.6925      696.83458      696.83458      696.83458      3.3836785e+08  1.4817252     -19950174      -19950174       1003.3045     -19949170      -1481.1463     -1485.2625     -1484.6688      4.298428      -7.1006748     -4.8722819      16611.87     
    196000   336.77436      0.098          0.14968862     0.14979196     0.14984915    -1478.1799      697.15205      697.15205      697.15205      3.3883052e+08  1.4797019     -19940594      -19940594       1002.8565     -19939591      -1477.3118     -1478.3317     -1478.8962      4.1054865     -6.1732459     -4.4615738      16573.962    
    197000   336.21753      0.0985         0.14918672     0.14941869     0.1492331     -1473.2742      697.46951      697.46951      697.46951      3.3929361e+08  1.4776823     -19931039      -19931039       1001.1984     -19930038      -1472.3585     -1474.6478     -1472.8161      3.1550658     -4.0155459     -4.4632383      16660.793    
    198000   335.5359       0.099          0.14865786     0.1492549      0.14860657    -1468.9344      697.78698      697.78698      697.78698      3.3975713e+08  1.4756664     -19921507      -19921507       999.16862     -19920508      -1467.139      -1473.0313     -1466.6328      2.0446073     -2.5004318     -4.5565582      16611.985    
    199000   335.13394      0.0995         0.14798962     0.14910843     0.14819042    -1464.8851      698.10444      698.10444      698.10444      3.4022107e+08  1.4736541     -19911994      -19911994       997.97166     -19910996      -1460.544      -1471.5858     -1462.5257      1.9440528     -3.730798      -4.9792711      16620.47     
    200000   335.25454      0.1            0.14735208     0.14881053     0.14794518    -1461.001       698.42191      698.42191      698.42191      3.4068543e+08  1.4716455     -19902494      -19902494       998.33078     -19901495      -1454.252      -1468.6457     -1460.1054      3.9196964     -5.97856       -6.3677337      11423.548    
    201000   335.64823      0.1005         0.14704241     0.14826571     0.14774234    -1457.5227      698.73937      698.73937      698.73937      3.4115021e+08  1.4696405     -19893008      -19893008       999.50311     -19892009      -1451.1957     -1463.2688     -1458.1036      6.0612258     -7.1674369     -6.6817748      16597.855    
    202000   335.92707      0.101          0.1469564      0.14766132     0.1475531     -1454.6289      699.05683      699.05683      699.05683      3.4161541e+08  1.4676392     -19883534      -19883534       1000.3335     -19882533      -1450.3469     -1457.3039     -1456.2359      6.0114663     -6.8865232     -6.0906693      16541.079    
    203000   335.65648      0.1015         0.14665166     0.14708464     0.1472432     -1450.7097      699.3743       699.3743       699.3743       3.4208104e+08  1.4656415     -19874076      -19874076       999.52768     -19873076      -1447.3393     -1451.6125     -1453.1774      3.5614534     -5.7219766     -5.2263546      16483.464    
    204000   335.14119      0.102          0.14614672     0.14658527     0.14680148    -1445.9527      699.69176      699.69176      699.69176      3.4254709e+08  1.4636475     -19864637      -19864637       997.99324     -19863639      -1442.356      -1446.6841     -1448.8179      1.8127829     -5.203308      -4.1333955      16702.222    
    205000   334.58327      0.1025         0.14564372     0.1463226      0.14626082    -1441.6552      700.00923      700.00923      700.00923      3.4301356e+08  1.461657      -19855217      -19855217       996.33185     -19854220      -1437.3917     -1444.0918     -1443.482       2.5126723     -5.1579058     -4.1454061      16363.14     
    206000   333.8554       0.103          0.14519476     0.14615387     0.14561774    -1437.5076      700.32669      700.32669      700.32669      3.4348046e+08  1.4596701     -19845806      -19845806       994.16437     -19844812      -1432.9609     -1442.4266     -1437.1354      4.1574132     -5.2330541     -5.3482069      16507.66     
    207000   333.33619      0.1035         0.1448162      0.14578581     0.14487203    -1432.5982      700.64416      700.64416      700.64416      3.4394778e+08  1.4576869     -19836414      -19836414       992.61825     -19835422      -1429.2248     -1438.7941     -1429.7757      5.0552569     -5.7738248     -5.9832308      16633.17     
    208000   333.07412      0.104          0.14450217     0.14528463     0.14438152    -1428.3027      700.96162      700.96162      700.96162      3.4441553e+08  1.4557072     -19827049      -19827049       991.83787     -19826057      -1426.1255     -1433.8478     -1424.9348      4.5377028     -6.8130695     -4.7333059      16555.794    
    209000   332.92404      0.1045         0.14395916     0.14472442     0.14399945    -1423.4165      701.27909      701.27909      701.27909      3.4488369e+08  1.4537312     -19817708      -19817708       991.39095     -19816717      -1420.7664     -1428.3189     -1421.1641      4.0872504     -7.1364859     -2.5945735      16505.692    
    210000   333.22793      0.105          0.14325921     0.14413967     0.14353469    -1417.6612      701.59655      701.59655      701.59655      3.4535229e+08  1.4517587     -19808395      -19808395       992.29588     -19807403      -1413.8585     -1422.5479     -1416.5773      3.5722274     -6.8324771     -2.04997        16540.176    
    211000   333.54135      0.1055         0.14284969     0.14384094     0.14323228    -1414.3364      701.91401      701.91401      701.91401      3.458213e+08   1.4497897     -19799101      -19799101       993.22919     -19798108      -1409.8168     -1419.5997     -1413.5927      2.411196      -6.5233739     -3.8602389      16637.506    
    212000   333.2987       0.106          0.14280213     0.1437008      0.14315691    -1413.471       702.23148      702.23148      702.23148      3.4629074e+08  1.4478244     -19789809      -19789809       992.50663     -19788816      -1409.3475     -1418.2166     -1412.8489      1.7567505     -6.2351163     -6.5433483      16528.057    
    213000   333.23875      0.1065         0.14271398     0.14342977     0.14313948    -1412.232       702.54894      702.54894      702.54894      3.4676061e+08  1.4458626     -19780513      -19780513       992.3281      -19779521      -1408.4775     -1415.5417     -1412.6768      2.591985      -5.7524514     -7.3113755      16539.009    
    214000   333.72886      0.107          0.1424134      0.14298143     0.14284283    -1408.7924      702.86641      702.86641      702.86641      3.472309e+08   1.4439043     -19771231      -19771231       993.78755     -19770237      -1405.511      -1411.117      -1409.7491      3.8090517     -5.2400898     -6.2390075      16746.89     
    215000   334.09628      0.1075         0.14187561     0.14251322     0.14228915    -1403.6614      703.18387      703.18387      703.18387      3.4770161e+08  1.4419495     -19761974      -19761974       994.88167     -19760979      -1400.2034     -1406.4961     -1404.2848      4.0791637     -5.4259213     -5.3940531      16681.72     
    216000   333.67636      0.108          0.1412386      0.14211686     0.14181254    -1398.694       703.50134      703.50134      703.50134      3.4817275e+08  1.4399983     -19752740      -19752740       993.63123     -19751747      -1393.9166     -1402.5844     -1399.5809      4.5468553     -5.4697981     -4.9175261      16549.323    
    217000   332.65548      0.1085         0.14071763     0.1417964      0.14143513    -1394.6843      703.8188       703.8188       703.8188       3.4864432e+08  1.4380506     -19743517      -19743517       990.5912      -19742527      -1388.775      -1399.4216     -1395.8562      5.0259804     -4.9207151     -4.4017254      16591.274    
[...]
   3174000   324.32038      1.587          0.0083224935   0.0083236863   0.0082222485  -81.810769      1642.5613      1642.5613      1642.5613      4.4316432e+09  0.1131337     -5623532.9     -5623532.9      965.7707      -5622567.1     -82.136625     -82.148397     -81.147284      0.40186271     0.57916276     1.000856       14136.681    
   3175000   324.33111      1.5875         0.0083124613   0.0083209609   0.0082179031  -81.754504      1642.8788      1642.8788      1642.8788      4.4342133e+09  0.11306812    -5620623.8     -5620623.8      965.80267     -5619658       -82.037615     -82.121499     -81.104398      0.38446865     0.59303742     0.98499241     14130.427    
   3176000   324.30621      1.588          0.0083019361   0.0083158766   0.008213241   -81.687816      1643.1963      1643.1963      1643.1963      4.4367843e+09  0.1130026     -5617715.7     -5617715.7      965.7285      -5616750       -81.933739     -82.071321     -81.058387      0.36841528     0.61516457     0.96718935     14119.498    
   3177000   324.27352      1.5885         0.0082921599   0.0083092789   0.008206703   -81.612441      1643.5137      1643.5137      1643.5137      4.4393564e+09  0.11293713    -5614809       -5614809        965.63117     -5613843.4     -81.837255     -82.006207     -80.993861      0.36024834     0.63164157     0.96435646     14110.937    
   3178000   324.26524      1.589          0.0082840095   0.0083010971   0.0081980303  -81.530181      1643.8312      1643.8312      1643.8312      4.4419294e+09  0.11287171    -5611904.1     -5611904.1      965.60652     -5610938.5     -81.756817     -81.925459     -80.908268      0.35106811     0.62393207     0.98305453     14129.319    
   3179000   324.28127      1.5895         0.0082789446   0.0082917405   0.0081878044  -81.449098      1644.1487      1644.1487      1644.1487      4.4445034e+09  0.11280634    -5609001.3     -5609001.3      965.65425     -5608035.6     -81.706831     -81.833116     -80.807347      0.33843793     0.59603024     1.0041192      14271.244    
   3180000   324.29943      1.59           0.0082772877   0.0082829468   0.0081772254  -81.379916      1644.4661      1644.4661      1644.4661      4.4470785e+09  0.11274102    -5606100.1     -5606100.1      965.70832     -5605134.4     -81.690479     -81.746329     -80.70294       0.33088132     0.57459661     1.0141716      14345.029    
   3181000   324.31208      1.5905         0.0082766539   0.0082753624   0.0081662344  -81.316722      1644.7836      1644.7836      1644.7836      4.4496545e+09  0.11267575    -5603200.1     -5603200.1      965.74598     -5602234.3     -81.684223     -81.671476     -80.594468      0.33187239     0.57230136     1.0155645      14406.2      
   3182000   324.31525      1.591          0.0082762474   0.0082700276   0.0081551619  -81.261409      1645.1011      1645.1011      1645.1011      4.4522315e+09  0.11261054    -5600301.2     -5600301.2      965.75543     -5599335.4     -81.680211     -81.618826     -80.485191      0.33612236     0.58141052     1.0181285      14408.764    
   3183000   324.29522      1.5915         0.0082753918   0.0082670565   0.0081455699  -81.217265      1645.4185      1645.4185      1645.4185      4.4548095e+09  0.11254537    -5597402.9     -5597402.9      965.69579     -5596437.2     -81.671767     -81.589504     -80.390525      0.33900938     0.58268014     1.0186442      14440.201    
   3184000   324.25843      1.592          0.0082725748   0.0082638994   0.0081395243  -81.177723      1645.736       1645.736       1645.736       4.4573885e+09  0.11248025    -5594504.8     -5594504.8      965.58623     -5593539.2     -81.643965     -81.558346     -80.330859      0.34216278     0.57874339     1.0094476      14457.697    
   3185000   324.22352      1.5925         0.0082661141   0.0082576346   0.0081368188  -81.12696       1646.0534      1646.0534      1646.0534      4.4599685e+09  0.11241518    -5591607.1     -5591607.1      965.48228     -5590641.6     -81.580204     -81.496517     -80.304158      0.35610007     0.57940024     0.99288678     14438.427    
   3186000   324.20247      1.593          0.0082556829   0.008248403    0.0081344219  -81.054389      1646.3709      1646.3709      1646.3709      4.4625495e+09  0.11235016    -5588710.5     -5588710.5      965.4196      -5587745       -81.477256     -81.405409     -80.280502      0.38562047     0.58454019     0.96873458     14381.236    
   3187000   324.18303      1.5935         0.0082432677   0.00824038     0.0081307388  -80.975036      1646.6884      1646.6884      1646.6884      4.4651315e+09  0.1122852     -5585815.6     -5585815.6      965.36169     -5584850.2     -81.354727     -81.326228     -80.244153      0.41115782     0.59061199     0.94248296     14351.62     
   3188000   324.14664      1.594          0.0082324734   0.0082329827   0.008125588   -80.898245      1647.0058      1647.0058      1647.0058      4.4677145e+09  0.11222028    -5582922.5     -5582922.5      965.25334     -5581957.2     -81.248195     -81.253222     -80.193319      0.41666852     0.60180623     0.93306403     14342.245    
   3189000   324.10741      1.5945         0.0082254998   0.0082250924   0.0081206933  -80.833245      1647.3233      1647.3233      1647.3233      4.4702985e+09  0.11215541    -5580030.8     -5580030.8      965.13652     -5579065.7     -81.179372     -81.17535      -80.145012      0.3927265      0.62092682     0.94439534     14443.058    
   3190000   324.09376      1.595          0.0082205597   0.0082179707   0.0081175183  -80.783119      1647.6408      1647.6408      1647.6408      4.4728835e+09  0.1120906     -5577140       -5577140        965.09588     -5576174.9     -81.130616     -81.105064     -80.113677      0.35344863     0.64177294     0.96086355     14488.035    
   3191000   324.11925      1.5955         0.0082152176   0.0082130365   0.0081145698  -80.739613      1647.9582      1647.9582      1647.9582      4.4754695e+09  0.11202583    -5574249.8     -5574249.8      965.17179     -5573284.6     -81.077894     -81.056368     -80.084577      0.31956169     0.66575166     0.97328049     14483.547    
   3192000   324.17132      1.596          0.0082096128   0.0082115909   0.0081123071  -80.708975      1648.2757      1648.2757      1648.2757      4.4780565e+09  0.11196111    -5571360.1     -5571360.1      965.32683     -5570394.7     -81.022579     -81.042101     -80.062246      0.30362309     0.6856938      0.97584427     14512.427    
   3193000   324.22494      1.5965         0.0082032364   0.0082114862   0.0081114542  -80.684848      1648.5932      1648.5932      1648.5932      4.4806444e+09  0.11189644    -5568470.2     -5568470.2      965.4865      -5567504.7     -80.959648     -81.041068     -80.053829      0.30431103     0.68261001     0.97022757     14567.545    
   3194000   324.27143      1.597          0.008197379    0.0082094398   0.0081107643  -80.656577      1648.9106      1648.9106      1648.9106      4.4832334e+09  0.11183183    -5565580.1     -5565580.1      965.62496     -5564614.5     -80.90184      -81.020872     -80.04702       0.31199374     0.64846365     0.97031423     14584.452    
   3195000   324.31058      1.5975         0.0081934496   0.0082047695   0.0081070362  -80.616022      1649.2281      1649.2281      1649.2281      4.4858234e+09  0.11176726    -5562690.2     -5562690.2      965.74153     -5561724.5     -80.86306      -80.974779     -80.010227      0.31666115     0.60155634     0.98984973     14539.219    
   3196000   324.32745      1.598          0.0081912727   0.0081997399   0.0081001727  -80.569736      1649.5456      1649.5456      1649.5456      4.4884143e+09  0.11170274    -5559800.8     -5559800.8      965.79178     -5558835       -80.841576     -80.925141     -79.942489      0.3203555      0.55924132     1.013776       14529.473    
   3197000   324.30693      1.5985         0.0081882585   0.0081942923   0.0080905647  -80.51029       1649.863       1649.863       1649.863       4.4910063e+09  0.11163827    -5556912       -5556912        965.73066     -5555946.3     -80.811828     -80.871377     -79.847665      0.33034762     0.53099186     1.0196082      14489.254    
   3198000   324.26694      1.599          0.0081809025   0.008187663    0.0080795136  -80.427927      1650.1805      1650.1805      1650.1805      4.4935993e+09  0.11157385    -5554024.8     -5554024.8      965.61157     -5553059.2     -80.73923      -80.805951     -79.738599      0.3416837      0.52146229     1.0017528      14407.801    
   3199000   324.23053      1.5995         0.0081714882   0.0081814018   0.0080692399  -80.342561      1650.4979      1650.4979      1650.4979      4.4961932e+09  0.11150948    -5551139.7     -5551139.7      965.50314     -5550174.2     -80.646318     -80.744158     -79.637206      0.34173676     0.53572199     0.97482077     14362.442    
   3200000   324.20747      1.6            0.0081643414   0.0081773327   0.0080622808  -80.28277       1650.8154      1650.8154      1650.8154      4.4987882e+09  0.11144516    -5548256.3     -5548256.3      965.43449     -5547290.9     -80.575785     -80.703999     -79.568525      0.33332308     0.56627881     0.95167356     14088.515    
   3201000   324.20961      1.6005         0.008159685    0.0081744078   0.0080595148  -80.24873       1651.1329      1651.1329      1651.1329      4.5013841e+09  0.11138089    -5545373.4     -5545373.4      965.44086     -5544408       -80.52983      -80.675133     -79.541226      0.32693545     0.59477654     0.93674277     14394.15     
   3202000   324.24598      1.601          0.0081546588   0.0081705278   0.0080578687  -80.214016      1651.4503      1651.4503      1651.4503      4.5039811e+09  0.11131667    -5542490.5     -5542490.5      965.54916     -5541524.9     -80.480225     -80.63684      -79.524981      0.33015421     0.61198884     0.93414494     14409.205    
   3203000   324.30183      1.6015         0.0081481906   0.0081648006   0.0080524943  -80.156215      1651.7678      1651.7678      1651.7678      4.506579e+09   0.1112525     -5539608.1     -5539608.1      965.71548     -5538642.4     -80.416389     -80.580316     -79.47194       0.338784       0.61867703     0.94503474     14421.394    
   3204000   324.33581      1.602          0.0081408124   0.0081567322   0.0080418748  -80.070464      1652.0853      1652.0853      1652.0853      4.509178e+09   0.11118838    -5536727.3     -5536727.3      965.81665     -5535761.5     -80.343571     -80.500688     -79.367134      0.35266505     0.61425454     0.96501537     14470.699    
   3205000   324.32029      1.6025         0.008134045    0.0081452756   0.0080289821  -79.968099      1652.4027      1652.4027      1652.4027      4.5117779e+09  0.1111243     -5533849.2     -5533849.2      965.77043     -5532883.4     -80.276783     -80.38762      -79.239893      0.36815115     0.59602473     0.98201785     14452.539    
   3206000   324.26632      1.603          0.0081285943   0.0081326253   0.0080174689  -79.870675      1652.7202      1652.7202      1652.7202      4.5143789e+09  0.11106028    -5530973.7     -5530973.7      965.60973     -5530008.1     -80.222988     -80.262771     -79.126266      0.37918045     0.56522493     0.98322426     14476.563    
   3207000   324.2048       1.6035         0.0081242371   0.0081229425   0.0080102565  -79.80076       1653.0377      1653.0377      1653.0377      4.5169808e+09  0.1109963     -5528100.2     -5528100.2      965.42654     -5527134.8     -80.179986     -80.167209     -79.055085      0.37899201     0.53707863     0.97158019     14530.9      
   3208000   324.1563       1.604          0.0081195148   0.0081166298   0.0080080802  -79.757299      1653.3551      1653.3551      1653.3551      4.5195838e+09  0.11093238    -5525227.4     -5525227.4      965.28212     -5524262.1     -80.133381     -80.104908     -79.033607      0.36349649     0.52357149     0.96442444     14523.727    
   3209000   324.12949      1.6045         0.0081137971   0.0081105986   0.0080080071  -79.718407      1653.6726      1653.6726      1653.6726      4.5221877e+09  0.1108685     -5522354.7     -5522354.7      965.20226     -5521389.5     -80.076951     -80.045385     -79.032885      0.33660324     0.52871872     0.9695423      14547.165    
   3210000   324.12779      1.605          0.0081077973   0.0081019553   0.0080054903  -79.661956      1653.9901      1653.9901      1653.9901      4.5247927e+09  0.11080467    -5519482.6     -5519482.6      965.19721     -5518517.4     -80.017738     -79.960082     -79.008047      0.30856515     0.54385687     0.96937294     14538.47     
   3211000   324.14011      1.6055         0.0081029258   0.0080923999   0.0080005476  -79.598235      1654.3075      1654.3075      1654.3075      4.5273986e+09  0.1107409     -5516611.7     -5516611.7      965.2339      -5515646.5     -79.96966      -79.865778     -78.959266      0.28935898     0.557674       0.96069325     14509.568    
   3212000   324.14498      1.606          0.0080997798   0.008085011    0.0079937965  -79.541367      1654.625       1654.625       1654.625       4.5300056e+09  0.11067717    -5513742       -5513742        965.24839     -5512776.7     -79.938611     -79.792854     -78.892637      0.28515636     0.5642534      0.95767656     14514.888    
   3213000   324.147        1.6065         0.008096114    0.0080805688   0.0079860191  -79.489109      1654.9425      1654.9425      1654.9425      4.5326135e+09  0.11061349    -5510873.1     -5510873.1      965.2544      -5509907.8     -79.902433     -79.749014     -78.81588       0.2966808      0.56725615     0.96231071     14586.306    
   3214000   324.16503      1.607          0.0080898815   0.0080781124   0.0079809167  -79.443739      1655.2599      1655.2599      1655.2599      4.5352225e+09  0.11054985    -5508005.1     -5508005.1      965.30809     -5507039.8     -79.840923     -79.724771     -78.765524      0.31470971     0.56729834     0.96650852     14601.769    
   3215000   324.19877      1.6075         0.0080824431   0.0080759559   0.0079792407  -79.406661      1655.5774      1655.5774      1655.5774      4.5378324e+09  0.11048627    -5505137.6     -5505137.6      965.40859     -5504172.2     -79.767512     -79.703488     -78.748983      0.32534372     0.56859528     0.96458723     14607.899    
   3216000   324.22981      1.608          0.0080745981   0.0080712388   0.0079767931  -79.357283      1655.8948      1655.8948      1655.8948      4.5404434e+09  0.11042274    -5502270.4     -5502270.4      965.501       -5501304.9     -79.690087     -79.656933     -78.724827      0.3310044      0.57770715     0.96309185     14609.694    
   3217000   324.24613      1.6085         0.0080658665   0.0080615948   0.0079712742  -79.278676      1656.2123      1656.2123      1656.2123      4.5430553e+09  0.11035925    -5499404.5     -5499404.5      965.54961     -5498438.9     -79.603913     -79.561754     -78.67036       0.33874441     0.59171391     0.96280931     14555.944    
   3218000   324.24801      1.609          0.0080562897   0.008049802    0.0079632904  -79.182111      1656.5298      1656.5298      1656.5298      4.5456683e+09  0.11029581    -5496540.8     -5496540.8      965.5552      -5495575.3     -79.509398     -79.445369     -78.591566      0.33892871     0.59527153     0.96166286     14543.157    
   3219000   324.23894      1.6095         0.0080475713   0.0080407578   0.0079550998  -79.096731      1656.8472      1656.8472      1656.8472      4.5482822e+09  0.11023242    -5493679.8     -5493679.8      965.5282      -5492714.3     -79.423354     -79.35611      -78.510731      0.33454632     0.59172163     0.9653809      14503.632    
   3220000   324.21401      1.61           0.008042552    0.0080361241   0.0079498426  -79.04768       1657.1647      1657.1647      1657.1647      4.5508972e+09  0.11016908    -5490820.2     -5490820.2      965.45395     -5489854.7     -79.373817     -79.310378     -78.458846      0.34695524     0.58938597     0.96698832     14534.208    
   3221000   324.1819       1.6105         0.0080417671   0.0080338337   0.0079472969  -79.029189      1657.4822      1657.4822      1657.4822      4.5535131e+09  0.11010579    -5487960.5     -5487960.5      965.35834     -5486995.1     -79.36607      -79.287774     -78.433723      0.37360418     0.58814062     0.95718183     14404.899    
   3222000   324.15984      1.611          0.0080408415   0.0080317939   0.007944884   -79.011496      1657.7996      1657.7996      1657.7996      4.5561301e+09  0.11004255    -5485100       -5485100        965.29266     -5484134.7     -79.356935     -79.267643     -78.409909      0.38949114     0.57864427     0.94545233     14631.05     
   3223000   324.15744      1.6115         0.0080355384   0.0080303961   0.0079407322  -78.975793      1658.1171      1658.1171      1658.1171      4.5587481e+09  0.10997936    -5482239.3     -5482239.3      965.28551     -5481274       -79.304598     -79.253847     -78.368933      0.38722531     0.56718649     0.94028472     14642.207    
   3224000   324.17694      1.612          0.008027427    0.0080282517   0.0079352656  -78.92407       1658.4346      1658.4346      1658.4346      4.561367e+09   0.10991621    -5479379.2     -5479379.2      965.34356     -5478413.8     -79.224545     -79.232683     -78.314983      0.37861691     0.55795639     0.94105983     14623.436    
   3225000   324.20604      1.6125         0.0080192955   0.0080226467   0.0079287345  -78.857395      1658.752       1658.752       1658.752       4.563987e+09   0.10985311    -5476520.2     -5476520.2      965.43021     -5475554.7     -79.144293     -79.177367     -78.250525      0.36885309     0.55647578     0.94457825     14635.501    
   3226000   324.22854      1.613          0.0080113111   0.0080128494   0.0079204053  -78.771497      1659.0695      1659.0695      1659.0695      4.566608e+09   0.10979006    -5473663       -5473663        965.49721     -5472697.5     -79.065493     -79.080675     -78.168323      0.35485892     0.56105877     0.95304547     14675.935    
   3227000   324.22716      1.6135         0.0080052263   0.0080018233   0.007911856   -78.687082      1659.387       1659.387       1659.387       4.5692299e+09  0.10972706    -5470808.1     -5470808.1      965.49312     -5469842.7     -79.005441     -78.971856     -78.083948      0.34302849     0.56104587     0.96187391     14656.484    
   3228000   324.18623      1.614          0.0080002516   0.0079915786   0.0079031462  -78.60836       1659.7044      1659.7044      1659.7044      4.5718529e+09  0.10966411    -5467955.2     -5467955.2      965.37124     -5466989.8     -78.956344     -78.870749     -77.997988      0.33562782     0.5566708      0.96463013     14644.632    
   3229000   324.11328      1.6145         0.0079950885   0.007982476    0.0078941174  -78.531728      1660.0219      1660.0219      1660.0219      4.5744769e+09  0.1096012     -5465103.7     -5465103.7      965.154       -5464138.6     -78.905388     -78.780913     -77.908882      0.33187756     0.55545793     0.96372642     14673.164    
   3230000   324.03833      1.615          0.0079892109   0.0079754233   0.0078866332  -78.464569      1660.3393      1660.3393      1660.3393      4.5771019e+09  0.10953835    -5462253.7     -5462253.7      964.93082     -5461288.8     -78.847381     -78.711308     -77.835018      0.33110508     0.56174646     0.96844804     14646.205    
   3231000   323.99524      1.6155         0.0079837406   0.0079704547   0.0078814933  -78.413319      1660.6568      1660.6568      1660.6568      4.5797279e+09  0.10947554    -5459404.8     -5459404.8      964.8025      -5458440       -78.793393     -78.662272     -77.784291      0.32786204     0.57498035     0.97985713     14615.191    
ERROR on proc 0: Pair distance > table outer cutoff: ijtype 2 1 dist 308.00004325168203 (src/pair_table_pgn.cpp:138)
Last command: run				${steps_tensile}
