LAMMPS (23 Jun 2022 - Update 1)
OMP_NUM_THREADS environment is not set. Defaulting to 1 thread. (src/comm.cpp:98)
  using 1 OpenMP thread(s) per MPI task
###

# Read restart info
read_restart ${read_res}
read_restart ./trial10/4060/equpmf70.res
Reading restart file ...
  restart file = 23 Jun 2022, LAMMPS = 23 Jun 2022
  restoring atom style atomic from restart
  orthogonal box = (1656.5742 1656.5742 1656.5742) to (2343.4258 2343.4258 2343.4258)
  1 by 2 by 2 MPI processor grid
  restoring pair style table from restart
  1000 atoms
  read_restart CPU = 0.008 seconds

# Settings
pair_style table/pgn spline 10941
pair_coeff 1 1 N20e.txt DE_GNP 308 72.9   # 1.35 * r
pair_coeff 2 2 N100e.txt DE_GNP 473.9 111.78
WARNING: 20 of 10941 force values in table DE_GNP are inconsistent with -dE/dr.
WARNING:  Should only be flagged at inflection points (src/pair_table_pgn.cpp:478)
pair_coeff 1 2 mixed_potentiale.txt DE_GNP 391.2 92.95
WARNING: 1564 of 10941 force values in table DE_GNP are inconsistent with -dE/dr.
WARNING:  Should only be flagged at inflection points (src/pair_table_pgn.cpp:478)

# Neighbor list
neighbor 2.0 bin
neigh_modify delay 0 every 1 check no once yes

# Temperature
variable T equal ${Temp}
variable T equal 300

# Deformation
reset_timestep 0
variable tmp equal "lx"
variable L0 equal ${tmp}
variable L0 equal 686.851632880665
variable strain equal "(lx - v_L0)/v_L0"
variable stp equal "step"
variable tmpe equal "temp"
variable p1 equal "v_strain"
variable p2 equal "-pxx*1.01325/10000"
variable p3 equal "-pyy*1.01325/10000"
variable p4 equal "-pzz*1.01325/10000"
variable p5 equal "lx"
variable p6 equal "ly"
variable p7 equal "lz"
variable p8 equal "press"
variable p9 equal "epair"
variable p10 equal "etotal"

# Thermo
thermo_style custom step temp v_p1 v_p2 v_p3 v_p4 press lx ly lz vol density epair pe ke etotal pxx pyy pzz pxy pxz pyz spcpu
thermo ${ts_save}
thermo 1000

# Dump
# dump 1 all custom 2000 ./${N20}${N100}/tensile/trajectory/trajectory_${usic}_${trial}_*.tensile.custom id type x y z ix iy iz
# dump_modify 1 sort id
dump 2 all cfg 50000 ./trial${trial}/${N20}${N100}/tensile/trajectory/dumpten.tens_${usic}_${trial}_*.cfg mass type xs ys zs fx fy fz
dump 2 all cfg 50000 ./trial10/${N20}${N100}/tensile/trajectory/dumpten.tens_${usic}_${trial}_*.cfg mass type xs ys zs fx fy fz
dump 2 all cfg 50000 ./trial10/40${N100}/tensile/trajectory/dumpten.tens_${usic}_${trial}_*.cfg mass type xs ys zs fx fy fz
dump 2 all cfg 50000 ./trial10/4060/tensile/trajectory/dumpten.tens_${usic}_${trial}_*.cfg mass type xs ys zs fx fy fz
dump 2 all cfg 50000 ./trial10/4060/tensile/trajectory/dumpten.tens_1_${trial}_*.cfg mass type xs ys zs fx fy fz
dump 2 all cfg 50000 ./trial10/4060/tensile/trajectory/dumpten.tens_1_10_*.cfg mass type xs ys zs fx fy fz
dump_modify 2 element N20 N100

fix 1 all nvt temp ${T} ${T} 100
fix 1 all nvt temp 300 ${T} 100
fix 1 all nvt temp 300 300 100
fix 2 all deform 1 x erate ${strain_rate} y erate ${strain_rate} z erate ${strain_rate} units box
fix 2 all deform 1 x erate 5e-6 y erate ${strain_rate} z erate ${strain_rate} units box
fix 2 all deform 1 x erate 5e-6 y erate 5e-6 z erate ${strain_rate} units box
fix 2 all deform 1 x erate 5e-6 y erate 5e-6 z erate 5e-6 units box
fix             def1 all print ${ts_save} "${p1} ${p2} ${p3} ${p4}" file ./tensile/${trial}/tensile${N20}${N100}_${usic}_${trial}.txt screen no
fix             def1 all print 1000 "${p1} ${p2} ${p3} ${p4}" file ./tensile/${trial}/tensile${N20}${N100}_${usic}_${trial}.txt screen no
fix             def1 all print 1000 "${p1} ${p2} ${p3} ${p4}" file ./tensile/10/tensile${N20}${N100}_${usic}_${trial}.txt screen no
fix             def1 all print 1000 "${p1} ${p2} ${p3} ${p4}" file ./tensile/10/tensile40${N100}_${usic}_${trial}.txt screen no
fix             def1 all print 1000 "${p1} ${p2} ${p3} ${p4}" file ./tensile/10/tensile4060_${usic}_${trial}.txt screen no
fix             def1 all print 1000 "${p1} ${p2} ${p3} ${p4}" file ./tensile/10/tensile4060_1_${trial}.txt screen no
fix             def1 all print 1000 "${p1} ${p2} ${p3} ${p4}" file ./tensile/10/tensile4060_1_10.txt screen no

timestep       		${ts}
timestep       		0.1
run				${steps_tensile}
run				6000000
Generated 0 of 1 mixed pair_coeff terms from geometric mixing rule
Unused restart file global fix info:
  fix style: npt, fix ID: 5
Neighbor list info ...
  update every 1 steps, delay 0 steps, check no
  max neighbors/atom: 2000, page size: 100000
  master list distance cutoff = 113.78
  ghost atom cutoff = 113.78
  binsize = 56.89, bins = 13 13 13
  1 neighbor lists, perpetual/occasional/extra = 1 0 0
  (1) pair table/pgn, perpetual
      attributes: half, newton on
      pair build: half/bin/atomonly/newton
      stencil: half/bin/3d
      bin: standard
Per MPI rank memory allocation (min/avg/max) = 3.848 | 3.849 | 3.85 Mbytes
   Step          Temp           v_p1           v_p2           v_p3           v_p4          Press            Lx             Ly             Lz           Volume        Density         E_pair         PotEng         KinEng         TotEng          Pxx            Pyy            Pzz            Pxy            Pxz            Pyz           S/CPU     
         0   305.16384      0              0.01488034     0.012420186    0.005434787   -107.69081      686.85163      686.85163      686.85163      3.2403267e+08  1.7524657     -33645427      -33645427       908.72582     -33644518      -146.85754     -122.5777      -53.637177      67.156233      63.049664      23.399396      0            
      1000   367.14312      0.0005         0.022574645    0.02021946     0.013263931   -184.4166       687.19506      687.19506      687.19506      3.2451897e+08  1.7498397     -33644648      -33644648       1093.2895     -33643554      -222.79442     -199.55055     -130.90483      67.281577      61.480308      23.100963      13047.778    
      2000   465.63063      0.001          0.029842058    0.027292018    0.020598817   -255.72134      687.53848      687.53848      687.53848      3.2500574e+08  1.7472188     -33643609      -33643609       1386.5685     -33642222      -294.51821     -269.35128     -203.29452      66.533222      60.72124       22.590325      13017.292    
      3000   541.8711       0.0015         0.036502813    0.033855637    0.027462324   -321.80532      687.88191      687.88191      687.88191      3.2549301e+08  1.7446032     -33642270      -33642270       1613.5996     -33640657      -360.25475     -334.12916     -271.03206      64.34048       59.614632      23.426251      12476.453    
      4000   577.52108      0.002          0.042861323    0.040599163    0.034275461   -387.32115      688.22534      688.22534      688.22534      3.2598076e+08  1.7419928     -33640565      -33640565       1719.7592     -33638845      -423.00837     -400.68259     -338.2725       61.835789      57.325919      23.652416      13247.569    
      5000   579.79712      0.0025         0.049336944    0.047516771    0.041258764   -454.35473      688.56876      688.56876      688.56876      3.26469e+08    1.7393877     -33638418      -33638418       1726.5368     -33636691      -486.91778     -468.95407     -407.19235      60.818828      55.409021      21.951908      13475.564    
      6000   563.98229      0.003          0.05605745     0.054361633    0.048220025   -521.88209      688.91219      688.91219      688.91219      3.2695773e+08  1.7367877     -33635787      -33635787       1679.443      -33634107      -553.24402     -536.5076      -475.89465      61.246592      54.704861      20.695636      15160.23     
      7000   542.21432      0.0035         0.062698018    0.060914331    0.054837154   -587.05322      689.25561      689.25561      689.25561      3.2744694e+08  1.7341929     -33632660      -33632660       1614.6217     -33631046      -618.78133     -601.17771     -541.20063      60.846761      54.150599      21.06943       15535.866    
      8000   520.59303      0.004          0.06919136     0.067273537    0.061228785   -650.36165      689.59904      689.59904      689.59904      3.2793664e+08  1.7316033     -33629037      -33629037       1550.2372     -33627487      -682.86563     -663.93819     -604.28112      59.171512      53.209         21.91863       15639.611    
      9000   500.69724      0.0045         0.075508485    0.073673255    0.067702756   -713.49452      689.94247      689.94247      689.94247      3.2842683e+08  1.7290188     -33624923      -33624923       1490.9909     -33623432      -745.21081     -727.0985      -668.17425      57.264331      51.70077       21.462158      15253.514    
     10000   482.86326      0.005          0.081476891    0.079984519    0.074221709   -775.33718      690.28589      690.28589      690.28589      3.2891751e+08  1.7264394     -33620328      -33620328       1437.8843     -33618890      -804.11439     -789.38582     -732.51132      55.518577      49.540213      20.518892      15456.322    
     11000   467.44381      0.0055         0.087261928    0.08604378     0.080579717   -835.21811      690.62932      690.62932      690.62932      3.2940867e+08  1.7238652     -33615261      -33615261       1391.9678     -33613869      -861.20827     -849.18609     -795.25998      55.106125      47.765298      19.682737      14925.929    
     12000   454.66467      0.006          0.092974893    0.09187231     0.086607023   -893.01498      690.97274      690.97274      690.97274      3.2990033e+08  1.7212961     -33609739      -33609739       1353.9137     -33608385      -917.59085     -906.70921     -854.74486      55.118084      46.611103      19.834696      15335.926    
     13000   444.13238      0.0065         0.098560734    0.097615414    0.092336659   -949.13334      691.31617      691.31617      691.31617      3.3039247e+08  1.7187321     -33603780      -33603780       1322.5504     -33602457      -972.71881     -963.38924     -911.29197      54.495225      45.025993      21.165858      14773.282    
     14000   435.06278      0.007          0.10416362     0.10335162     0.097941017   -1004.873       691.65959      691.65959      691.65959      3.308851e+08   1.7161732     -33597396      -33597396       1295.5427     -33596100      -1028.015      -1020.0012     -966.60269      53.714074      43.583275      22.24231       15392.035    
     15000   427.2043       0.0075         0.10982039     0.1090508      0.1036439     -1060.9922      692.00302      692.00302      692.00302      3.3137823e+08  1.7136194     -33590583      -33590583       1272.1415     -33589311      -1083.8429     -1076.2478     -1022.8858      52.705893      42.834087      21.888365      15607.791    
     16000   420.36111      0.008          0.11536532     0.11461315     0.10940503    -1116.4849      692.34645      692.34645      692.34645      3.3187184e+08  1.7110706     -33583340      -33583340       1251.7636     -33582088      -1138.5672     -1131.1439     -1079.7437      51.595907      42.47497       20.931278      15409.579    
     17000   414.54905      0.0085         0.12060961     0.11984812     0.11492072    -1169.1042      692.68987      692.68987      692.68987      3.3236594e+08  1.7085269     -33575683      -33575683       1234.4563     -33574449      -1190.3243     -1182.809      -1134.1794      50.513069      42.013745      20.431748      15423.343    
     18000   409.96493      0.009          0.12551864     0.12486044     0.12011124    -1218.8184      693.0333       693.0333       693.0333       3.3286053e+08  1.7059882     -33567644      -33567644       1220.8055     -33566423      -1238.7727     -1232.2768     -1185.4058      48.018587      40.37036       19.367131      15458.092    
     19000   406.19764      0.0095         0.13035745     0.12991284     0.12518465    -1268.0482      693.37672      693.37672      693.37672      3.3335562e+08  1.7034546     -33559239      -33559239       1209.5872     -33558029      -1286.528      -1282.14       -1235.4765      45.815713      38.768441      17.851703      15429.09     
     20000   402.846        0.01           0.13536488     0.13490325     0.13036421    -1317.9779      693.72015      693.72015      693.72015      3.3385119e+08  1.700926      -33550457      -33550457       1199.6066     -33549258      -1335.9475     -1331.3916     -1286.5947      46.132322      38.280132      17.614522      15418.782    
     21000   400.37674      0.0105         0.1404172      0.13983066     0.13556054    -1367.9033      694.06358      694.06358      694.06358      3.3434725e+08  1.6984023     -33541295      -33541295       1192.2535     -33540103      -1385.81       -1380.0213     -1337.8785      47.01653       37.673519      18.634627      15395.128    
     22000   399.0445       0.011          0.14525609     0.14480035     0.14054896    -1416.5816      694.407        694.407        694.407        3.3484381e+08  1.6958837     -33531767      -33531767       1188.2864     -33530578      -1433.5661     -1429.0683     -1387.1104      46.983712      35.962852      19.989676      15422.461    
     23000   398.11948      0.0115         0.14978289     0.14964678     0.14523088    -1462.8195      694.75043      694.75043      694.75043      3.3534085e+08  1.69337       -33521883      -33521883       1185.5318     -33520698      -1478.2421     -1476.8989     -1433.3173      45.578458      34.072847      20.685949      15664.785    
     24000   397.16305      0.012          0.15399949     0.15407606     0.14964478    -1505.7828      695.09385      695.09385      695.09385      3.3583839e+08  1.6908613     -33511660      -33511660       1182.6837     -33510477      -1519.8568     -1520.6125     -1476.8791      43.488362      33.045558      20.35533       15667.313    
     25000   396.20854      0.0125         0.15818218     0.15826107     0.15399163    -1547.6104      695.43728      695.43728      695.43728      3.3633642e+08  1.6883576     -33501118      -33501118       1179.8414     -33499938      -1561.1368     -1561.9154     -1519.7792      42.763109      33.469768      19.235778      15644.658    
     26000   395.35469      0.013          0.16241123     0.16236211     0.15832094    -1589.2566      695.7807       695.7807       695.7807       3.3683495e+08  1.6858588     -33490262      -33490262       1177.2987     -33489084      -1602.8742     -1602.3895     -1562.5062      42.895959      34.453157      17.553813      15656.449    
     27000   395.05381      0.0135         0.16662802     0.16649169     0.16266298    -1630.9982      696.12413      696.12413      696.12413      3.3733396e+08  1.6833649     -33479089      -33479089       1176.4028     -33477913      -1644.4907     -1643.1452     -1605.3588      42.119896      34.269609      16.207819      15657.448    
     28000   395.47943      0.014          0.17073354     0.17072443     0.16696161    -1672.5704      696.46756      696.46756      696.46756      3.3783347e+08  1.680876      -33467605      -33467605       1177.6702     -33466427      -1685.0091     -1684.9192     -1647.783       40.161758      32.553357      16.068269      15375.701    
     29000   396.46163      0.0145         0.17469908     0.17486417     0.17114209    -1712.9874      696.81098      696.81098      696.81098      3.3833347e+08  1.6783919     -33455817      -33455817       1180.595      -33454637      -1724.1459     -1725.7752     -1689.0411      38.498696      30.96566       16.931702      15234.27     
     30000   397.64988      0.015          0.17865168     0.17875557     0.17512323    -1751.8891      697.15441      697.15441      697.15441      3.3883396e+08  1.6759128     -33443733      -33443733       1184.1334     -33442549      -1763.155      -1764.1803     -1728.3319      37.597838      29.590889      17.344227      15370.972    
     31000   398.58939      0.0155         0.18244557     0.18255201     0.17891884    -1789.3459      697.49783      697.49783      697.49783      3.3933495e+08  1.6734385     -33431358      -33431358       1186.9312     -33430171      -1800.5978     -1801.6483     -1765.7917      37.397041      28.089231      16.572057      15613.225    
     32000   399.28974      0.016          0.18593318     0.18624825     0.18259469    -1825.0716      697.84126      697.84126      697.84126      3.3983643e+08  1.6709691     -33418705      -33418705       1189.0167     -33417516      -1835.0178     -1838.1274     -1802.0695      37.908192      26.88022       16.47328       15429.291    
     33000   400.14819      0.0165         0.18923162     0.18981048     0.18628439    -1859.7796      698.18468      698.18468      698.18468      3.403384e+08   1.6685045     -33405788      -33405788       1191.573      -33404596      -1867.5709     -1873.2838     -1838.484       38.031073      26.160641      17.247722      15400.235    
     34000   401.16948      0.017          0.19256146     0.19328149     0.18986579    -1893.9345      698.52811      698.52811      698.52811      3.4084087e+08  1.6660448     -33392615      -33392615       1194.6142     -33391421      -1900.4338     -1907.54       -1873.8297      36.902035      25.750138      17.295109      15452.306    
     35000   402.37202      0.0175         0.19599034     0.19661424     0.19321809    -1927.2067      698.87154      698.87154      698.87154      3.4134383e+08  1.6635899     -33379188      -33379188       1198.1952     -33377990      -1934.2742     -1940.4317     -1906.9143      34.506248      25.648998      16.349678      15438.905    
     36000   403.77243      0.018          0.19939968     0.20000126     0.19657336    -1960.603       699.21496      699.21496      699.21496      3.4184729e+08  1.6611399     -33365507      -33365507       1202.3654     -33364304      -1967.9218     -1973.859      -1940.0283      31.877397      25.933014      15.213144      15425.349    
     37000   405.29521      0.0185         0.20261306     0.20337013     0.19996197    -1993.4046      699.55839      699.55839      699.55839      3.4235124e+08  1.6586946     -33351571      -33351571       1206.8999     -33350364      -1999.6354     -2007.1071     -1973.4712      30.00332       26.460856      14.244001      15573.778    
     38000   407.10422      0.019          0.2057655      0.20649362     0.20326074    -2024.9029      699.90181      699.90181      699.90181      3.4285569e+08  1.6562542     -33337389      -33337389       1212.2869     -33336177      -2030.7475     -2037.9335     -2006.0275      28.643007      25.27866       14.596343      15739.358    
     39000   408.95283      0.0195         0.20895207     0.20946335     0.20635621    -2055.3389      700.24524      700.24524      700.24524      3.4336063e+08  1.6538185     -33322974      -33322974       1217.7917     -33321756      -2062.1966     -2067.2426     -2036.5775      28.304419      22.732894      15.51714       15553.178    
     40000   410.87537      0.02           0.21199524     0.21244729     0.20935721    -2085.039       700.58867      700.58867      700.58867      3.4386607e+08  1.6513876     -33308331      -33308331       1223.5167     -33307107      -2092.2304     -2096.6917     -2066.195       29.551811      21.273572      15.508077      15573.405    
     41000   412.79935      0.0205         0.21481057     0.21545841     0.21241929    -2114.28        700.93209      700.93209      700.93209      3.44372e+08    1.6489615     -33293472      -33293472       1229.246      -33292242      -2120.0155     -2126.4091     -2096.4154      29.583966      20.701891      14.994245      15703.157    
     42000   414.34563      0.021          0.2175585      0.21836879     0.21539044    -2142.6687      701.27552      701.27552      701.27552      3.4487843e+08  1.6465401     -33278388      -33278388       1233.8505     -33277154      -2147.1354     -2155.1324     -2125.7384      26.929242      19.73876       14.418978      15561.442    
     43000   415.50798      0.0215         0.22033848     0.22102203     0.21816384    -2169.6664      701.61894      701.61894      701.61894      3.4538535e+08  1.6441234     -33263081      -33263081       1237.3118     -33261844      -2174.5717     -2181.3178     -2153.1097      24.359978      18.724886      13.597539      15584.517    
     44000   416.80418      0.022          0.22290362     0.2235069      0.22090953    -2195.3123      701.96237      701.96237      701.96237      3.4589278e+08  1.6417115     -33247573      -33247573       1241.1717     -33246332      -2199.8877     -2205.8416     -2180.2076      23.314957      18.305776      12.554948      15604.26     
     45000   418.24435      0.0225         0.22516711     0.22609932     0.2235814     -2220.0767      702.30579      702.30579      702.30579      3.464007e+08   1.6393043     -33231876      -33231876       1245.4603     -33230630      -2222.2266     -2231.4268     -2206.5769      22.810042      18.407678      11.684379      15610.734    
     46000   419.77861      0.023          0.22742846     0.22866532     0.22610487    -2244.2591      702.64922      702.64922      702.64922      3.4690911e+08  1.6369018     -33215991      -33215991       1250.029      -33214741      -2244.5444     -2256.7513     -2231.4816      21.353378      18.423636      11.228899      15575.737    
     47000   421.32014      0.0235         0.2298973      0.23094432     0.22846208    -2267.6329      702.99265      702.99265      702.99265      3.4741802e+08  1.634504      -33199919      -33199919       1254.6194     -33198664      -2268.91       -2279.2432     -2254.7455      19.383092      18.150415      11.289796      11523.267    
     48000   423.08123      0.024          0.23229808     0.23301237     0.23059978    -2289.3666      703.33607      703.33607      703.33607      3.4792743e+08  1.6321109     -33183665      -33183665       1259.8637     -33182405      -2292.6038     -2299.6533     -2275.8429      18.692174      17.563902      12.480465      14825.869    
     49000   424.84503      0.0245         0.23445621     0.23524214     0.23287766    -2311.2954      703.6795       703.6795       703.6795       3.4843734e+08  1.6297224     -33167241      -33167241       1265.116      -33165976      -2313.9029     -2321.6594     -2298.3238      18.667496      16.54524       13.492558      15580.569    
     50000   426.23605      0.025          0.23650328     0.23761698     0.23534849    -2333.9707      704.02292      704.02292      704.02292      3.4894775e+08  1.6273386     -33150636      -33150636       1269.2582     -33149367      -2334.1059     -2345.0973     -2322.709       18.747636      15.554262      13.209375      15165.595    
     51000   427.76182      0.0255         0.23855988     0.23994931     0.2377317     -2356.2493      704.36635      704.36635      704.36635      3.4945865e+08  1.6249595     -33133855      -33133855       1273.8017     -33132581      -2354.4029     -2368.1155     -2346.2295      18.322524      14.536541      12.307829      15737.802    
     52000   429.60481      0.026          0.24051843     0.24198021     0.23985221    -2376.3496      704.70978      704.70978      704.70978      3.4997006e+08  1.622585      -33116919      -33116919       1279.2898     -33115640      -2373.7324     -2388.159      -2367.1573      16.434816      13.338702      10.892627      15572.12     
     53000   431.37725      0.0265         0.24241268     0.24365817     0.24178033    -2394.4442      705.0532       705.0532       705.0532       3.5048196e+08  1.6202151     -33099833      -33099833       1284.5678     -33098549      -2392.4271     -2404.7192     -2386.1863      14.61049       11.859014      10.169692      15530.949    
     54000   432.77312      0.027          0.2443091      0.24546375     0.24361524    -2412.6592      705.39663      705.39663      705.39663      3.5099436e+08  1.6178498     -33082595      -33082595       1288.7245     -33081306      -2411.1434     -2422.5389     -2404.2954      14.036467      10.766325      11.145316      15332.863    
     55000   433.56426      0.0275         0.24613778     0.24758578     0.24541816    -2431.5872      705.74005      705.74005      705.74005      3.5150726e+08  1.6154891     -33065199      -33065199       1291.0803     -33063908      -2429.191      -2443.4817     -2422.089       13.946178      10.741679      12.041172      15697.283    
     56000   434.1949       0.028          0.24785184     0.24951365     0.24718937    -2449.395       706.08348      706.08348      706.08348      3.5202066e+08  1.613133      -33047655      -33047655       1292.9583     -33046362      -2446.1075     -2462.5082     -2439.5694      12.705708      11.506103      11.425617      15658.828    
     57000   435.08389      0.0285         0.24956428     0.25089141     0.24893849    -2465.3152      706.4269       706.4269       706.4269       3.5253456e+08  1.6107815     -33029976      -33029976       1295.6055     -33028680      -2463.0079     -2476.1057     -2456.8319      10.284985      11.062656      10.248592      15648.226    
     58000   436.19442      0.029          0.25106222     0.25207712     0.25055407    -2479.4586      706.77033      706.77033      706.77033      3.5304895e+08  1.6084346     -33012168      -33012168       1298.9125     -33010869      -2477.7915     -2487.8078     -2472.7764      9.0117471      8.9570601      9.5092957      15587.05     
     59000   437.37186      0.0295         0.25241084     0.25359927     0.25214023    -2494.1207      707.11376      707.11376      707.11376      3.5356385e+08  1.6060922     -32994238      -32994238       1302.4187     -32992936      -2491.1013     -2502.8302     -2488.4306      8.9003053      7.1640327      9.1994238      15714.422    
     60000   438.39409      0.03           0.25367947     0.25533926     0.253679      -2509.0805      707.45718      707.45718      707.45718      3.5407925e+08  1.6037544     -32976183      -32976183       1305.4627     -32974878      -2503.6218     -2520.0026     -2503.6171      8.3434069      7.0316938      8.9356222      15575.449    
     61000   439.48702      0.0305         0.25486244     0.25664905     0.25506473    -2521.8397      707.80061      707.80061      707.80061      3.5459515e+08  1.6014211     -32958014      -32958014       1308.7173     -32956705      -2515.2967     -2532.9292     -2517.2931      6.5926206      7.3786133      8.7461065      15745.36     
     62000   440.80669      0.031          0.25608562     0.25754441     0.25627254    -2532.7825      708.14403      708.14403      708.14403      3.5511155e+08  1.5990923     -32939747      -32939747       1312.647      -32938435      -2527.3686     -2541.7657     -2529.2133      5.3870187      6.8532926      8.5316358      15589.507    
     63000   441.68577      0.0315         0.25746209     0.25857945     0.25742489    -2544.5067      708.48746      708.48746      708.48746      3.5562845e+08  1.5967681     -32921389      -32921389       1315.2648     -32920074      -2540.9532     -2551.9807     -2540.5861      4.2859684      5.907228       8.3893844      15766.712    
     64000   441.97577      0.032          0.2587027      0.25980834     0.25856173    -2556.3706      708.83089      708.83089      708.83089      3.5614586e+08  1.5944483     -32902924      -32902924       1316.1284     -32901608      -2553.1971     -2564.1089     -2551.8059      3.6814961      4.5802936      8.6556387      15579.718    
     65000   442.14406      0.0325         0.25972771     0.2609982      0.25971939    -2567.4654      709.17431      709.17431      709.17431      3.5666376e+08  1.592133      -32884344      -32884344       1316.6295     -32883028      -2563.3132     -2575.852      -2563.2311      3.7526037      2.6099093      8.3106576      15560.773    
     66000   442.35323      0.033          0.26063356     0.26208827     0.26082594    -2577.6717      709.51774      709.51774      709.51774      3.5718217e+08  1.5898222     -32865665      -32865665       1317.2524     -32864348      -2572.2532     -2586.6102     -2574.1518      3.8729422      1.2930829      6.8061592      15776.534    
     67000   443.10172      0.0335         0.26140432     0.26304543     0.26173927    -2586.3608      709.86116      709.86116      709.86116      3.5770108e+08  1.5875159     -32846908      -32846908       1319.4813     -32845588      -2579.8601     -2596.0566     -2583.1657      3.1809378      0.64594063     5.6002229      15531.267    
     68000   444.27739      0.034          0.26225938     0.2639441      0.26252497    -2594.7149      710.20459      710.20459      710.20459      3.5822049e+08  1.5852141     -32828083      -32828083       1322.9822     -32826760      -2588.2988     -2604.9257     -2590.92        1.7446735      0.69399209     6.1074555      15727.202    
     69000   445.42073      0.0345         0.26315145     0.2646836      0.26339685    -2602.9506      710.54801      710.54801      710.54801      3.587404e+08   1.5829167     -32809180      -32809180       1326.3869     -32807853      -2597.1029     -2612.224      -2599.5248     -0.055201444    1.2376122      7.6449156      15581.55     
     70000   446.05911      0.035          0.26388421     0.26519187     0.2643368     -2610.1255      710.89144      710.89144      710.89144      3.5926082e+08  1.5806237     -32790199      -32790199       1328.2879     -32788870      -2604.3347     -2617.2403     -2608.8014     -1.9862925      0.76964467     7.94709        15705.101    
     71000   446.31448      0.0355         0.2644692      0.26562459     0.2651364     -2616.1039      711.23487      711.23487      711.23487      3.5978174e+08  1.5783351     -32771143      -32771143       1329.0483     -32769814      -2610.1081     -2621.5109     -2616.6928     -2.6568452     -1.1089508      7.2977272      15705.632    
     72000   446.31896      0.036          0.2650494      0.26624874     0.2657533     -2622.0954      711.57829      711.57829      711.57829      3.6030316e+08  1.576051      -32752027      -32752027       1329.0616     -32750698      -2615.8342     -2627.6707     -2622.7812     -2.3493216     -3.780663       6.8027397      15560.069    
     73000   446.37742      0.0365         0.26548443     0.26698691     0.26615338    -2627.2711      711.92172      711.92172      711.92172      3.6082509e+08  1.5737713     -32732866      -32732866       1329.2357     -32731537      -2620.1276     -2634.9559     -2626.7297     -2.1339979     -5.0315334      6.1188638      15769.608    
     74000   446.69794      0.037          0.2657433      0.26762055     0.26654532    -2631.4966      712.26514      712.26514      712.26514      3.6134752e+08  1.5714959     -32713648      -32713648       1330.1902     -32712318      -2622.6825     -2641.2095     -2630.5978     -2.3431842     -4.3912695      5.3591121      15688.177    
     75000   446.9392       0.0375         0.26598793     0.26819384     0.26716141    -2636.2141      712.60857      712.60857      712.60857      3.6187045e+08  1.569225      -32694374      -32694374       1330.9086     -32693043      -2625.0967     -2646.8674     -2636.6781     -2.8825344     -4.1803597      5.0121332      15612.628    
     76000   446.74462      0.038          0.26644343     0.26857399     0.26774108    -2640.8701      712.95199      712.95199      712.95199      3.6239389e+08  1.5669584     -32675054      -32675054       1330.3292     -32673723      -2629.5922     -2650.6192     -2642.399      -3.4485459     -4.9071711      4.5922227      15741.538    
     77000   446.48034      0.0385         0.26701678     0.26872256     0.26803808    -2644.2222      713.29542      713.29542      713.29542      3.6291783e+08  1.5646962     -32655688      -32655688       1329.5422     -32654358      -2635.2508     -2652.0855     -2645.3302     -4.1675667     -6.0179204      4.5486246      15791.838    
     78000   446.53423      0.039          0.26734613     0.26878594     0.26819497    -2646.0303      713.63885      713.63885      713.63885      3.6344228e+08  1.5624383     -32636281      -32636281       1329.7027     -32634951      -2638.5012     -2652.711      -2646.8786     -4.3018662     -6.5769977      5.2190014      15711.808    
     79000   446.80212      0.0395         0.26724644     0.26889819     0.26827735    -2646.3425      713.98227      713.98227      713.98227      3.6396723e+08  1.5601848     -32616844      -32616844       1330.5004     -32615513      -2637.5173     -2653.8188     -2647.6916     -3.9936958     -6.9230151      5.8849567      15514.612    
     80000   447.08367      0.04           0.26706497     0.26918412     0.26831087    -2646.7965      714.3257       714.3257       714.3257       3.6449269e+08  1.5579356     -32597377      -32597377       1331.3388     -32596045      -2635.7264     -2656.6408     -2648.0224     -3.9577304     -7.0408057      5.5193774      15626.868    
     81000   447.18176      0.0405         0.2670076      0.26952425     0.26845602    -2648.2042      714.66912      714.66912      714.66912      3.6501865e+08  1.5556908     -32577886      -32577886       1331.6309     -32576555      -2635.1601     -2659.9976     -2649.4549     -4.629913      -8.0155435      4.2355672      15677.495    
     82000   447.21534      0.041          0.26698284     0.26955411     0.26881099    -2649.3887      715.01255      715.01255      715.01255      3.6554512e+08  1.5534502     -32558386      -32558386       1331.7309     -32557054      -2634.9158     -2660.2922     -2652.9582     -5.2768471     -9.2147553      3.0054108      15652.952    
     83000   447.15127      0.0415         0.26699779     0.26938994     0.2690587     -2649.7127      715.35598      715.35598      715.35598      3.660721e+08   1.551214      -32538876      -32538876       1331.5401     -32537544      -2635.0633     -2658.672      -2655.4029     -4.8742036     -9.3882224      2.6002027      15486.149    
     84000   446.77427      0.042          0.26709777     0.26918162     0.26890048    -2648.8358      715.6994       715.6994       715.6994       3.6659958e+08  1.548982      -32519341      -32519341       1330.4175     -32518010      -2636.05       -2656.616      -2653.8414     -4.7426252     -9.1252145      2.4843593      15537.82     
     85000   446.26647      0.0425         0.26708949     0.26880587     0.26859723    -2646.5748      716.04283      716.04283      716.04283      3.6712757e+08  1.5467543     -32499784      -32499784       1328.9053     -32498455      -2635.9683     -2652.9077     -2650.8485     -5.7763382     -9.6130782      2.4236151      15668.887    
     86000   445.72644      0.043          0.26671945     0.26848572     0.2682898     -2643.2929      716.38625      716.38625      716.38625      3.6765606e+08  1.5445309     -32480223      -32480223       1327.2972     -32478896      -2632.3163     -2649.748      -2647.8145     -6.1470986     -10.881311      2.2436531      15507.337    
     87000   444.84326      0.0435         0.26604869     0.26849846     0.26793217    -2639.9517      716.72968      716.72968      716.72968      3.6818506e+08  1.5423118     -32460672      -32460672       1324.6673     -32459347      -2625.6964     -2649.8738     -2644.2849     -5.204552      -12.423169      2.0449294      15677.407    
     88000   443.59611      0.044          0.26544068     0.26833698     0.26746297    -2635.8767      717.0731       717.0731       717.0731       3.6871457e+08  1.5400969     -32441131      -32441131       1320.9535     -32439810      -2619.6958     -2648.28       -2639.6543     -3.7871653     -14.120542      2.9042149      15709.624    
     89000   442.635        0.0445         0.26510037     0.26766996     0.26696986    -2630.9407      717.41653      717.41653      717.41653      3.6924459e+08  1.5378862     -32421599      -32421599       1318.0914     -32420280      -2616.3372     -2641.6971     -2634.7876     -3.0444033     -15.143183      3.8587221      15619.862    
     90000   441.96714      0.045          0.26496438     0.26693953     0.26678175    -2627.4716      717.75996      717.75996      717.75996      3.6977511e+08  1.5356798     -32402084      -32402084       1316.1027     -32400768      -2614.9951     -2634.4883     -2632.9312     -4.2280013     -15.010456      3.4945154      15710.504    
     91000   441.53939      0.0455         0.26465212     0.26643655     0.26667892    -2624.4513      718.10338      718.10338      718.10338      3.7030614e+08  1.5334775     -32382581      -32382581       1314.8289     -32381266      -2611.9134     -2629.5243     -2631.9163     -5.8618615     -14.454732      2.1578426      15621.483    
     92000   441.32572      0.046          0.2641649      0.2659548      0.2662981     -2620.0109      718.44681      718.44681      718.44681      3.7083768e+08  1.5312795     -32363079      -32363079       1314.1926     -32361765      -2607.1049     -2624.7698     -2628.1579     -6.0161182     -14.093744      0.76808172     15695.662    
     93000   441.20143      0.0465         0.2635786      0.26532469     0.26556891    -2613.6104      718.79023      718.79023      718.79023      3.7136973e+08  1.5290857     -32343597      -32343597       1313.8225     -32342283      -2601.3186     -2618.5511     -2620.9614     -5.3633578     -14.760521      0.19924321     15536.008    
     94000   440.9625       0.047          0.26280071     0.26464217     0.26467274    -2605.8578      719.13366      719.13366      719.13366      3.7190229e+08  1.5268961     -32324158      -32324158       1313.111      -32322845      -2593.6414     -2611.8151     -2612.1168     -5.2296911     -16.563049      0.23253161     15612.622    
     95000   439.84616      0.0475         0.26197298     0.26406001     0.26389939    -2598.6755      719.47709      719.47709      719.47709      3.7243535e+08  1.5247107     -32304758      -32304758       1309.7868     -32303448      -2585.4723     -2606.0697     -2604.4845     -5.8507897     -18.83712       0.51231531     15636.293    
     96000   437.82271      0.048          0.26110767     0.26322047     0.26315791    -2590.6277      719.82051      719.82051      719.82051      3.7296893e+08  1.5225294     -32285387      -32285387       1303.7613     -32284083      -2576.9323     -2597.7841     -2597.1666     -5.7553054     -19.428264      1.4474257      15697.289    
     97000   436.21638      0.0485         0.26021757     0.26198922     0.2621391     -2580.2973      720.16394      720.16394      720.16394      3.7350301e+08  1.5203523     -32266058      -32266058       1298.9779     -32264759      -2568.1477     -2585.6326     -2587.1118     -6.027372      -17.7168        1.8088824      15430.96     
     98000   435.60416      0.049          0.25939601     0.26077273     0.26115787    -2570.3647      720.50736      720.50736      720.50736      3.7403761e+08  1.5181793     -32246791      -32246791       1297.1548     -32245494      -2560.0395     -2573.6268     -2577.4278     -7.1537254     -16.861588      0.65404932     15724.25     
     99000   435.1434       0.0495         0.25868354     0.25985959     0.26061509    -2563.2313      720.85079      720.85079      720.85079      3.7457271e+08  1.5160105     -32227574      -32227574       1295.7828     -32226279      -2553.008      -2564.6148     -2572.071      -7.3093085     -18.001614     -1.5087405      15651.099    
    100000   434.34224      0.05           0.25800017     0.25926541     0.26015113    -2557.5021      721.19421      721.19421      721.19421      3.7510832e+08  1.5138458     -32208383      -32208383       1293.397      -32207089      -2546.2637     -2558.7507     -2567.4921     -6.367805      -19.704096     -2.5151515      15049.68     
    101000   433.39824      0.0505         0.25719368     0.25869792     0.25924004    -2549.9848      721.53764      721.53764      721.53764      3.7564445e+08  1.5116852     -32189225      -32189225       1290.586      -32187934      -2538.3042     -2553.15       -2558.5003     -6.0189965     -20.739842     -1.3498731      15661.617    
    102000   431.87177      0.051          0.2563622      0.25780635     0.25803491    -2540.3519      721.88107      721.88107      721.88107      3.7618108e+08  1.5095287     -32170117      -32170117       1286.0404     -32168831      -2530.0982     -2544.3509     -2546.6066     -6.2368474     -21.796953     -0.34315469     15605.72     
    103000   429.66146      0.0515         0.25527262     0.2566147      0.2567215     -2528.5264      722.22449      722.22449      722.22449      3.7671823e+08  1.5073764     -32151066      -32151066       1279.4585     -32149786      -2519.3448     -2532.5902     -2533.6442     -6.2967491     -22.87876      -0.15433158     15630.556    
    104000   427.69541      0.052          0.25391444     0.25516038     0.25537198    -2514.8344      722.56792      722.56792      722.56792      3.7725589e+08  1.5052281     -32132080      -32132080       1273.6039     -32130806      -2505.9406     -2518.2372     -2520.3255     -6.7876986     -22.91814      -0.61272306     15653.462    
    105000   426.50681      0.0525         0.25250138     0.25368819     0.25413322    -2501.2675      722.91134      722.91134      722.91134      3.7779405e+08  1.5030839     -32113169      -32113169       1270.0644     -32111899      -2491.9948     -2503.7078     -2508.0999     -7.246244      -21.89145      -1.2107087      15454.675    
    106000   425.60642      0.053          0.25121722     0.2524555      0.25298726    -2489.2178      723.25477      723.25477      723.25477      3.7833273e+08  1.5009438     -32094343      -32094343       1267.3832     -32093075      -2479.3212     -2491.5421     -2496.7901     -7.4047389     -21.243424     -1.352133       15624.376    
    107000   424.59261      0.0535         0.25016305     0.25128884     0.25178981    -2477.9725      723.5982       723.5982       723.5982       3.7887193e+08  1.4988077     -32075596      -32075596       1264.3643     -32074332      -2468.9174     -2480.028      -2484.9722     -7.5097105     -21.970633     -1.076372       15463.456    
    108000   423.59624      0.054          0.24928485     0.24995317     0.25045489    -2466.2979      723.94162      723.94162      723.94162      3.7941163e+08  1.4966757     -32056927      -32056927       1261.3973     -32055666      -2460.2502     -2466.846      -2471.7976     -8.0278666     -23.71833      -0.27820689     15651.93     
    109000   422.55056      0.0545         0.24827606     0.2486038      0.24911015    -2454.1163      724.28505      724.28505      724.28505      3.7995184e+08  1.4945477     -32038327      -32038327       1258.2834     -32037069      -2450.2942     -2453.5287     -2458.5261     -7.994229      -24.740795     -0.57337422     15554.913    
    110000   421.18899      0.055          0.24687498     0.24727259     0.2477711     -2440.7226      724.62847      724.62847      724.62847      3.8049257e+08  1.4924238     -32019793      -32019793       1254.2289     -32018539      -2436.4666     -2440.3908     -2445.3106     -7.5329059     -24.259242     -2.2203603      15563.145    
    111000   419.9787       0.0555         0.24528349     0.24590637     0.24626388    -2426.0342      724.9719       724.9719       724.9719       3.8103381e+08  1.4903038     -32001342      -32001342       1250.6248     -32000092      -2420.7598     -2426.9072     -2430.4356     -7.7424385     -23.220891     -3.6803029      15613.231    
    112000   418.66083      0.056          0.24394024     0.24465207     0.24491264    -2413.0436      725.31532      725.31532      725.31532      3.8157557e+08  1.4881879     -31982980      -31982980       1246.7005     -31981733      -2407.503      -2414.5282     -2417.0998     -8.0700503     -22.97686      -3.2212321      15569.82     
    113000   416.76053      0.0565         0.24265284     0.243333       0.24375834    -2400.6717      725.65875      725.65875      725.65875      3.8211784e+08  1.486076      -31964703      -31964703       1241.0417     -31963462      -2394.7973     -2401.51       -2405.7078     -7.2963444     -23.795141     -2.1724123      15535.733    
    114000   414.67779      0.057          0.2410916      0.24166883     0.24246151    -2385.7947      726.00218      726.00218      726.00218      3.8266062e+08  1.4839681     -31946514      -31946514       1234.8397     -31945279      -2379.3891     -2385.0859     -2392.9091     -6.6200494     -24.551367     -1.4954964      15634.596    
    115000   413.11605      0.0575         0.23946731     0.23977482     0.24078319    -2368.6991      726.3456       726.3456       726.3456       3.8320391e+08  1.4818642     -31928421      -31928421       1230.1891     -31927191      -2363.3586     -2366.3935     -2376.3453     -7.5038314     -24.725653     -1.0739104      15536.262    
    116000   412.05901      0.058          0.23800214     0.23821229     0.23901098    -2352.9087      726.68903      726.68903      726.68903      3.8374772e+08  1.4797642     -31910429      -31910429       1227.0414     -31909202      -2348.8985     -2350.9725     -2358.855      -9.339788      -24.223807     -1.6211389      15452.874    
    117000   410.9334       0.0585         0.23655922     0.23697229     0.23748286    -2339.0554      727.03245      727.03245      727.03245      3.8429204e+08  1.4776683     -31892539      -31892539       1223.6895     -31891316      -2334.658      -2338.7347     -2343.7736     -10.342284     -23.189373     -2.5776761      15634.974    
    118000   409.65533      0.059          0.23506551     0.23563145     0.23596354    -2324.7323      727.37588      727.37588      727.37588      3.8483688e+08  1.4755762     -31874745      -31874745       1219.8836     -31873525      -2319.9163     -2325.5016     -2328.779      -9.4764689     -22.466935     -2.9245283      15651.955    
    119000   408.169        0.0595         0.23357797     0.23406459     0.23442671    -2309.6283      727.71931      727.71931      727.71931      3.8538223e+08  1.4734882     -31857042      -31857042       1215.4576     -31855827      -2305.2353     -2310.0379     -2313.6118     -8.241637      -22.906437     -2.3719763      15631.027    
    120000   406.32394      0.06           0.23203023     0.23245881     0.23282977    -2294.0005      728.06273      728.06273      728.06273      3.859281e+08   1.471404      -31839438      -31839438       1209.9633     -31838228      -2289.9603     -2294.19       -2297.8512     -8.1734982     -23.906013     -1.9425032      15632.575    
    121000   404.53969      0.0605         0.2303586      0.2309439      0.23114033    -2277.9598      728.40616      728.40616      728.40616      3.8647448e+08  1.4693238     -31821934      -31821934       1204.6501     -31820730      -2273.4626     -2279.2391     -2281.1777     -9.183506      -23.613723     -2.1057483      15552.581    
    122000   403.10202      0.061          0.22875728     0.22937299     0.2295352     -2262.2435      728.74958      728.74958      728.74958      3.8702138e+08  1.4672475     -31804535      -31804535       1200.369      -31803334      -2257.6588     -2263.7354     -2265.3363     -10.846364     -22.539843     -2.2638284      15550.984    
    123000   401.97568      0.0615         0.22729382     0.22757386     0.22815202    -2246.9601      729.09301      729.09301      729.09301      3.8756879e+08  1.4651751     -31787233      -31787233       1197.0149     -31786036      -2243.2155     -2245.9794     -2251.6854     -11.714449     -21.402184     -2.1697165      15610.037    
    124000   400.76433      0.062          0.2258534      0.22586596     0.22679913    -2232.1523      729.43643      729.43643      729.43643      3.8811672e+08  1.4631066     -31770031      -31770031       1193.4077     -31768838      -2228.9998     -2229.1238     -2238.3334     -11.438743     -20.271799     -2.0291727      15390.935    
    125000   399.10187      0.0625         0.22428278     0.22441597     0.2251605     -2216.8246      729.77986      729.77986      729.77986      3.8866517e+08  1.4610421     -31752931      -31752931       1188.4572     -31751743      -2213.499      -2214.8134     -2222.1613     -11.327452     -19.532365     -3.1042511      15466.048    
    126000   397.18961      0.063          0.22256698     0.22303306     0.22342515    -2200.9218      730.12329      730.12329      730.12329      3.8921413e+08  1.4589813     -31735932      -31735932       1182.7628     -31734749      -2196.5653     -2201.1651     -2205.0348     -11.294138     -18.655151     -4.3111307      15596.5      
    127000   395.44728      0.0635         0.22079502     0.2215613      0.22171366    -2184.6204      730.46671      730.46671      730.46671      3.8976361e+08  1.4569245     -31719040      -31719040       1177.5745     -31717863      -2179.0775     -2186.64       -2188.1437     -10.698755     -17.840868     -3.8575581      15614.153    
    128000   393.90733      0.064          0.21910636     0.219972       0.21993063    -2167.971       730.81014      730.81014      730.81014      3.903136e+08   1.4548715     -31702259      -31702259       1172.9888     -31701086      -2162.4117     -2170.9548     -2170.5465     -10.106354     -17.26575      -1.7529972      15468.524    
    129000   392.33003      0.0645         0.21751897     0.21837314     0.21824714    -2151.9508      731.15356      731.15356      731.15356      3.9086412e+08  1.4528224     -31685582      -31685582       1168.2918     -31684413      -2146.7453     -2155.1753     -2153.9318     -11.106854     -17.330294     -0.74796182     15435.528    
    130000   390.81268      0.065          0.2159781      0.21672371     0.21665777    -2136.2269      731.49699      731.49699      731.49699      3.9141515e+08  1.4507772     -31669004      -31669004       1163.7734     -31667840      -2131.5381     -2138.8967     -2138.2459     -12.621742     -17.546802     -1.5866244      15653.827    
    131000   389.5569       0.0655         0.21437887     0.21502504     0.21516318    -2120.4608      731.84041      731.84041      731.84041      3.919667e+08   1.4487357     -31652532      -31652532       1160.0339     -31651372      -2115.755      -2122.1321     -2123.4954     -12.366154     -17.668675     -2.343226       15347.682    
    132000   388.39472      0.066          0.21281169     0.21346088     0.21375459    -2105.5257      732.18384      732.18384      732.18384      3.9251876e+08  1.4466981     -31636170      -31636170       1156.5732     -31635014      -2100.2881     -2106.6951     -2109.5938     -11.246273     -18.080372     -2.8588753      15548.738    
    133000   387.08384      0.0665         0.21133107     0.21205226     0.21225646    -2091.0923      732.52727      732.52727      732.52727      3.9307134e+08  1.4446643     -31619912      -31619912       1152.6696     -31618760      -2085.6755     -2092.793      -2094.8084     -11.138534     -18.059851     -2.6271999      15666.465    
    134000   385.42707      0.067          0.20981327     0.21075685     0.21081632    -2077.0999      732.87069      732.87069      732.87069      3.9362445e+08  1.4426344     -31603746      -31603746       1147.736      -31602598      -2070.6959     -2080.0084     -2080.5953     -12.425839     -16.597255     -1.823294       15598.9      
    135000   383.44725      0.0675         0.20812512     0.20936934     0.20937098    -2062.2269      733.21412      733.21412      733.21412      3.9417807e+08  1.4406082     -31587667      -31587667       1141.8404     -31586525      -2054.0352     -2066.3147     -2066.3309     -14.013555     -14.567115     -1.0805393      15390.349    
    136000   381.72567      0.068          0.20655207     0.20780866     0.20764313    -2046.2336      733.55754      733.55754      733.55754      3.9473221e+08  1.4385858     -31571684      -31571684       1136.7139     -31570547      -2038.5104     -2050.912      -2049.2783     -15.057379     -13.561179     -1.237629       15610.97     
    137000   380.42452      0.0685         0.20514535     0.20616981     0.20585629    -2030.3362      733.90097      733.90097      733.90097      3.9528687e+08  1.4365672     -31555807      -31555807       1132.8393     -31554674      -2024.6272     -2034.7378     -2031.6436     -14.946378     -13.540593     -1.8119635      15540.849    
    138000   379.15564      0.069          0.20378017     0.20462075     0.20444338    -2016.101       734.2444       734.2444       734.2444       3.9584204e+08  1.4345524     -31540032      -31540032       1129.0608     -31538903      -2011.1539     -2019.4498     -2017.6993     -13.00712      -13.615248     -1.6045862      15650.984    
    139000   377.66754      0.0695         0.20241189     0.20319354     0.20332082    -2003.2116      734.58782      734.58782      734.58782      3.9639774e+08  1.4325413     -31524351      -31524351       1124.6294     -31523226      -1997.6501     -2005.3643     -2006.6204     -10.448891     -12.957033     -1.0937397      15661.285    
    140000   376.1581       0.07           0.2011102      0.20182408     0.20214253    -1990.548       734.93125      734.93125      734.93125      3.9695396e+08  1.4305341     -31508756      -31508756       1120.1346     -31507635      -1984.8034     -1991.8488     -1994.9917     -9.5261307     -12.01692      -0.77570888     15599.094    
    141000   374.85291      0.0705         0.19975981     0.20044904     0.20069814    -1976.8303      735.27467      735.27467      735.27467      3.975107e+08   1.4285305     -31493246      -31493246       1116.248      -31492130      -1971.476      -1978.2782     -1980.7366     -10.935034     -11.745941     -0.89370342     15670.332    
    142000   373.63362      0.071          0.19822068     0.19911295     0.19921754    -1962.5008      735.6181       735.6181       735.6181       3.9806795e+08  1.4265307     -31477834      -31477834       1112.6171     -31476721      -1956.286      -1965.0921     -1966.1242     -13.042363     -12.177279     -1.8896918      15683.848    
    143000   372.50918      0.0715         0.19666462     0.19789672     0.19775928    -1948.5833      735.96152      735.96152      735.96152      3.9862573e+08  1.4245346     -31462516      -31462516       1109.2687     -31461407      -1940.9289     -1953.0888     -1951.7323     -13.773817     -12.648109     -3.077554       15593.537    
    144000   371.41961      0.072          0.19538053     0.1967659      0.19633819    -1935.9639      736.30495      736.30495      736.30495      3.9918403e+08  1.4225423     -31447284      -31447284       1106.0242     -31446178      -1928.2559     -1941.9285     -1937.7073     -12.860894     -12.88315      -2.8389292      15662.457    
    145000   370.17136      0.0725         0.19424606     0.19539247     0.19504821    -1923.4698      736.64838      736.64838      736.64838      3.9974285e+08  1.4205536     -31432131      -31432131       1102.3071     -31431028      -1917.0596     -1928.3737     -1924.9761     -11.087894     -12.379482     -1.1033348      15681.303    
    146000   368.83341      0.073          0.19294618     0.19382872     0.19396921    -1910.4996      736.9918       736.9918       736.9918       4.0030219e+08  1.4185687     -31417059      -31417059       1098.3229     -31415961      -1904.2308     -1912.9408     -1914.3273     -10.208387     -10.804471     -0.10128492     15698.819    
    147000   367.55241      0.0735         0.19161965     0.19245872     0.19283959    -1897.9125      737.33523      737.33523      737.33523      4.0086206e+08  1.4165874     -31402073      -31402073       1094.5083     -31400978      -1891.1389     -1899.4199     -1903.1788     -10.651017     -9.0657237     -0.34350654     15450.168    
    148000   366.23103      0.074          0.19054634     0.19143272     0.19147013    -1886.5011      737.67865      737.67865      737.67865      4.0142244e+08  1.4146099     -31387169      -31387169       1090.5735     -31386079      -1880.5461     -1889.294      -1889.6633     -10.981346     -8.4861255     -1.1239289      15680.541    
    149000   364.67945      0.0745         0.18954837     0.19045569     0.18996861    -1875.0643      738.02208      738.02208      738.02208      4.0198335e+08  1.412636      -31372341      -31372341       1085.9531     -31371255      -1870.697      -1879.6515     -1874.8445     -10.783836     -8.7906468     -1.7677628      15640.526    
    150000   363.27876      0.075          0.18837634     0.18923679     0.18844343    -1862.1813      738.36551      738.36551      738.36551      4.0254478e+08  1.4106658     -31357589      -31357589       1081.7821     -31356507      -1859.1299     -1867.6219     -1859.7921     -10.40341      -8.4905641     -2.3225755      14159.289    
    151000   362.38245      0.0755         0.18718342     0.18784737     0.18723939    -1849.7251      738.70893      738.70893      738.70893      4.0310673e+08  1.4086993     -31342917      -31342917       1079.1131     -31341838      -1847.3567     -1853.9094     -1847.9091     -9.9841935     -7.9762713     -3.0204087      15553.776    
    152000   361.47019      0.076          0.18601141     0.18662804     0.18640699    -1839.1198      739.05236      739.05236      739.05236      4.036692e+08   1.4067364     -31328321      -31328321       1076.3965     -31327245      -1835.7899     -1841.8756     -1839.6939     -9.1658629     -8.5150104     -2.8542572      15488.433    
    153000   360.24685      0.0765         0.18482723     0.18559856     0.18561667    -1829.2375      739.39578      739.39578      739.39578      4.042322e+08   1.4047771     -31313792      -31313792       1072.7536     -31312719      -1824.1029     -1831.7154     -1831.8942     -8.4597236     -8.9083332     -1.7950903      15605.672    
    154000   358.80087      0.077          0.18379336     0.18462611     0.18463969    -1819.4232      739.73921      739.73921      739.73921      4.0479572e+08  1.4028215     -31299320      -31299320       1068.4477     -31298251      -1813.8994     -1822.1181     -1822.252      -8.6725623     -8.1133592     -1.1903341      15369.519    
    155000   357.40281      0.0775         0.18284874     0.18363479     0.18343093    -1809.0779      740.08263      740.08263      740.08263      4.0535977e+08  1.4008696     -31284913      -31284913       1064.2845     -31283849      -1804.5768     -1812.3345     -1810.3225     -9.5741336     -6.8582401     -1.7683534      15644.873    
    156000   356.6241       0.078          0.1817811      0.18258447     0.18213373    -1797.8429      740.42606      740.42606      740.42606      4.0592433e+08  1.3989212     -31270583      -31270583       1061.9657     -31269521      -1794.04       -1801.9686     -1797.5202     -10.026794     -6.73853       -2.6798804      15487.806    
    157000   356.25555      0.0785         0.18067346     0.18136757     0.18090651    -1786.1585      740.76949      740.76949      740.76949      4.0648943e+08  1.3969764     -31256332      -31256332       1060.8682     -31255272      -1783.1084     -1789.9587     -1785.4085     -9.4444591     -7.3890057     -2.5291295      15617.518    
    158000   355.55179      0.079          0.17968672     0.18023099     0.17985971    -1775.7296      741.11291      741.11291      741.11291      4.0705504e+08  1.3950353     -31242151      -31242151       1058.7725     -31241092      -1773.37       -1778.7416     -1775.0773     -7.675564      -7.6019083     -2.0942467      15525.068    
    159000   354.14609      0.0795         0.17883908     0.17937016     0.17901122    -1767.3179      741.45634      741.45634      741.45634      4.0762118e+08  1.3930978     -31228025      -31228025       1054.5866     -31226971      -1765.0045     -1770.2459     -1766.7033     -5.1736961     -7.0859866     -1.9002496      15539.359    
    160000   352.62258      0.08           0.17798608     0.17855845     0.17815287    -1759.0177      741.79976      741.79976      741.79976      4.0818785e+08  1.3911638     -31213950      -31213950       1050.0498     -31212900      -1756.5861     -1762.2349     -1758.2321     -3.9354131     -6.6103965     -1.5286423      15544.191    
    161000   351.59788      0.0805         0.17708888     0.17770702     0.17721866    -1750.1918      742.14319      742.14319      742.14319      4.0875504e+08  1.3892334     -31199927      -31199927       1046.9985     -31198880      -1747.7314     -1753.8319     -1749.0122     -5.2395329     -6.4525171     -1.7633138      15540.061    
    162000   350.64464      0.081          0.17632569     0.17682832     0.17639774    -1742.0898      742.48662      742.48662      742.48662      4.0932275e+08  1.3873066     -31185956      -31185956       1044.1599     -31184912      -1740.1992     -1745.1599     -1740.9104     -7.4095784     -6.0516173     -2.7391151      15486.877    
    163000   349.44058      0.0815         0.1755943      0.17587491     0.17554305    -1733.7355      742.83004      742.83004      742.83004      4.0989099e+08  1.3853833     -31172038      -31172038       1040.5744     -31170997      -1732.981      -1735.7504     -1732.4752     -7.8749679     -5.884698      -2.7353776      15622.309    
    164000   348.2624       0.082          0.17471893     0.17487486     0.17451495    -1724.1837      743.17347      743.17347      743.17347      4.1045976e+08  1.3834636     -31158177      -31158177       1037.066      -31157140      -1724.3418     -1725.8807     -1722.3286     -6.9901578     -6.3903255     -2.2909018      15601.617    
    165000   347.3848       0.0825         0.17368916     0.17385231     0.17351014    -1714.1265      743.51689      743.51689      743.51689      4.1102905e+08  1.3815475     -31144378      -31144378       1034.4526     -31143344      -1714.1787     -1715.7889     -1712.4119     -5.5444115     -6.355701      -1.6189126      15630.056    
    166000   346.7369       0.083          0.17278718     0.17298138     0.17274753    -1705.7853      743.86032      743.86032      743.86032      4.1159887e+08  1.3796349     -31130638      -31130638       1032.5233     -31129606      -1705.2769     -1707.1935     -1704.8856     -4.1644856     -5.4342123     -1.4125106      15557.777    
    167000   346.14641      0.0835         0.17215075     0.17244349     0.1721424     -1699.9314      744.20374      744.20374      744.20374      4.1216922e+08  1.3777258     -31116937      -31116937       1030.7649     -31115906      -1698.9958     -1701.885      -1698.9134     -3.6924965     -4.2677204     -1.7716385      15422.512    
    168000   345.73745      0.084          0.17149293     0.17204606     0.17153397    -1694.4583      744.54717      744.54717      744.54717      4.1274009e+08  1.3758202     -31103263      -31103263       1029.5471     -31102233      -1692.5037     -1697.9626     -1692.9087     -4.1432992     -3.293185      -2.1822785      15628.292    
    169000   345.56708      0.0845         0.17066283     0.17143008     0.17078732    -1687.2448      744.8906       744.8906       744.8906       4.1331149e+08  1.3739182     -31089631      -31089631       1029.0398     -31088602      -1684.3112     -1691.8834     -1685.5398     -4.4758075     -3.6897625     -2.2439305      15644.936    
    170000   345.26509      0.085          0.16983592     0.170559       0.16998569    -1679.0217      745.23402      745.23402      745.23402      4.1388341e+08  1.3720196     -31076055      -31076055       1028.1405     -31075027      -1676.1502     -1683.2864     -1677.6283     -4.3725059     -5.2652786     -1.4994462      15633.474    
    171000   344.41219      0.0855         0.16911826     0.16964616     0.16910525    -1670.7613      745.57745      745.57745      745.57745      4.1445586e+08  1.3701246     -31062533      -31062533       1025.6007     -31061508      -1669.0675     -1674.2774     -1668.9391     -3.9948337     -5.9109423     -0.70817202     15568.029    
    172000   343.28195      0.086          0.16854309     0.16881965     0.16821178    -1663.2108      745.92087      745.92087      745.92087      4.1502884e+08  1.368233      -31049053      -31049053       1022.235      -31048031      -1663.3909     -1666.1204     -1660.1212     -3.3553064     -4.4234099     -1.1410939      15550.817    
    173000   342.01704      0.0865         0.16791594     0.16808739     0.16744181    -1656.2058      746.2643       746.2643       746.2643       4.1560235e+08  1.3663449     -31035611      -31035611       1018.4683     -31034593      -1657.2015     -1658.8935     -1652.5222     -3.4361861     -2.8976096     -1.9890607      15547.029    
    174000   340.76695      0.087          0.16717011     0.16740657     0.16679528    -1649.3855      746.60772      746.60772      746.60772      4.1617639e+08  1.3644603     -31022206      -31022206       1014.7458     -31021192      -1649.8407     -1652.1744     -1646.1414     -4.4160746     -3.1143944     -1.4417816      15615.279    
    175000   339.84294      0.0875         0.16646547     0.16671187     0.16622242    -1642.8975      746.95115      746.95115      746.95115      4.1675095e+08  1.3625791     -31008840      -31008840       1011.9943     -31007828      -1642.8864     -1645.3182     -1640.4878     -4.2578465     -3.964978       0.16697529     15422.829    
    176000   339.35173      0.088          0.16583396     0.16615348     0.1656723     -1637.1733      747.29458      747.29458      747.29458      4.1732605e+08  1.3607014     -30995511      -30995511       1010.5315     -30994501      -1636.6539     -1639.8073     -1635.0585     -2.8868469     -4.1608177      0.035957159    15629.048    
    177000   339.32267      0.0885         0.16521307     0.1657262      0.16506909    -1631.7406      747.638        747.638        747.638        4.1790167e+08  1.3588272     -30982219      -30982219       1010.445      -30981209      -1630.5262     -1635.5904     -1629.1052     -1.6422238     -3.6291714     -1.8688558      15515.112    
    178000   339.47731      0.089          0.16461358     0.16517371     0.16439384    -1625.7295      747.98143      747.98143      747.98143      4.1847782e+08  1.3569564     -30968968      -30968968       1010.9055     -30967957      -1624.6098     -1630.1378     -1622.441      -1.7956796     -3.2915093     -3.0076929      15400.071    
    179000   339.35403      0.0895         0.16399937     0.16444645     0.16372133    -1619.104       748.32485      748.32485      748.32485      4.190545e+08   1.355089      -30955758      -30955758       1010.5384     -30954748      -1618.5479     -1622.9602     -1615.8039     -2.0059776     -2.8732113     -2.174165       15503.142    
    180000   338.76782      0.09           0.16336402     0.16370192     0.16315574    -1612.7039      748.66828      748.66828      748.66828      4.1963171e+08  1.3532251     -30942586      -30942586       1008.7927     -30941577      -1612.2775     -1615.6123     -1610.2219     -1.5242209     -2.2226012     -0.90192438     15602.216    
    181000   337.87583      0.0905         0.16278978     0.16308779     0.16264396    -1607.1109      749.01171      749.01171      749.01171      4.2020945e+08  1.3513646     -30929440      -30929440       1006.1365     -30928434      -1606.6102     -1609.5513     -1605.1711     -1.3306582     -2.3123084     -0.22712206     15476.936    
    182000   337.04048      0.091          0.16228484     0.16270755     0.16207114    -1602.3144      749.35513      749.35513      749.35513      4.2078772e+08  1.3495074     -30916313      -30916313       1003.649      -30915310      -1601.6269     -1605.7987     -1599.5178     -1.9366381     -2.9720371      0.41963352     15600.025    
    183000   336.77269      0.0915         0.1618247      0.16234777     0.16146826    -1597.6338      749.69856      749.69856      749.69856      4.2136652e+08  1.3476537     -30903218      -30903218       1002.8516     -30902216      -1597.0856     -1602.248      -1593.5679     -2.8322533     -2.9961337      0.58201595     15510.564    
    184000   336.8151       0.092          0.16134522     0.16189288     0.16090685    -1592.7131      750.04198      750.04198      750.04198      4.2194585e+08  1.3458034     -30890162      -30890162       1002.9779     -30889159      -1592.3535     -1597.7585     -1588.0272     -3.2774749     -2.3087173     -0.11880858     15627.153    
    185000   336.39264      0.0925         0.16077937     0.16125636     0.16035023    -1586.9264      750.38541      750.38541      750.38541      4.2252571e+08  1.3439564     -30877141      -30877141       1001.7198     -30876139      -1586.769      -1591.4766     -1582.5337     -2.5253807     -2.2342153     -0.69510696     15490.958    
    186000   335.44282      0.093          0.16013353     0.16056162     0.15978005    -1580.6405      750.72883      750.72883      750.72883      4.231061e+08   1.3421129     -30864148      -30864148       998.89143     -30863149      -1580.395      -1584.62       -1576.9065     -1.0635855     -2.562386      -0.12217574     15501.117    
    187000   334.69368      0.0935         0.15953687     0.15995359     0.1591426     -1574.5803      751.07226      751.07226      751.07226      4.2368703e+08  1.3402727     -30851179      -30851179       996.66063     -30850182      -1574.5065     -1578.6192     -1570.6154     -0.15657559    -2.4648778      1.0459514      15515.09     
    188000   334.44442      0.094          0.15912624     0.15948901     0.15851187    -1569.6262      751.41569      751.41569      751.41569      4.2426848e+08  1.3384359     -30838236      -30838236       995.91838     -30837240      -1570.4539     -1574.0342     -1564.3905     -0.42004519    -2.8884706      1.3520392      15355.694    
    189000   334.49816      0.0945         0.1587976      0.15900405     0.15802816    -1565.3583      751.75911      751.75911      751.75911      4.2485047e+08  1.3366024     -30825327      -30825327       996.0784      -30824331      -1567.2105     -1569.2479     -1559.6166     -0.73463952    -3.4480776      1.2907791      15662.654    
    190000   334.54779      0.095          0.15832073     0.1584807      0.15771373    -1561.0335      752.10254      752.10254      752.10254      4.2543299e+08  1.3347723     -30812450      -30812450       996.22619     -30811454      -1562.5041     -1564.0829     -1556.5135     -1.0708947     -2.9907094      0.46976957     15582.21     
    191000   334.3035       0.0955         0.15763135     0.15795758     0.15741178    -1556.0514      752.44596      752.44596      752.44596      4.2601604e+08  1.3329455     -30799605      -30799605       995.49874     -30798609      -1555.7005     -1558.9201     -1553.5335     -1.7227955     -1.4406208     -0.78751563     15472.432    
    192000   333.98407      0.096          0.15694826     0.15744753     0.15693315    -1550.5516      752.78939      752.78939      752.78939      4.2659962e+08  1.331122      -30786792      -30786792       994.54754     -30785797      -1548.9589     -1553.8863     -1548.8097     -1.8955551     -0.78706317    -0.93425171     15640.345    
    193000   333.84041      0.0965         0.15651538     0.15706819     0.15627007    -1545.6983      753.13282      753.13282      753.13282      4.2718374e+08  1.3293019     -30774002      -30774002       994.11974     -30773008      -1544.6867     -1550.1425     -1542.2657     -1.1992435     -1.7450152     -0.12382845     15606.275    
    194000   333.72711      0.097          0.15626545     0.15677442     0.15565528    -1541.8872      753.47624      753.47624      753.47624      4.2776839e+08  1.3274851     -30761226      -30761226       993.78233     -30760232      -1542.2201     -1547.2433     -1536.1982     -0.59127112    -2.9561557      0.42411735     15582.404    
    195000   333.34973      0.0975         0.1559017      0.1563273      0.15527588    -1537.9715      753.81967      753.81967      753.81967      4.2835357e+08  1.3256716     -30748466      -30748466       992.65856     -30747473      -1538.6302     -1542.8305     -1532.4538     -0.043432576   -3.0550458      0.64437542     15506.017    
    196000   332.94434      0.098          0.15538394     0.15576051     0.15491247    -1533.2081      754.16309      754.16309      754.16309      4.2893929e+08  1.3238614     -30735735      -30735735       991.4514      -30734743      -1533.5202     -1537.2367     -1528.8672      0.23662825    -2.5267027      0.96817467     15493.419    
    197000   332.69548      0.0985         0.15483561     0.15526636     0.15439639    -1528.0808      754.50652      754.50652      754.50652      4.2952554e+08  1.3220545     -30723041      -30723041       990.71032     -30722050      -1528.1087     -1532.3599     -1523.7739     -0.28274267    -2.2104891      1.4216821      15632.317    
    198000   332.3471       0.099          0.15434259     0.15487609     0.15380544    -1523.2309      754.84994      754.84994      754.84994      4.3011232e+08  1.3202508     -30710376      -30710376       989.67291     -30709387      -1523.2429     -1528.5082     -1517.9417     -1.2445772     -2.014794       1.7639476      15618.874    
    199000   331.7312       0.0995         0.15392402     0.15437558     0.15328072    -1518.4812      755.19337      755.19337      755.19337      4.3069964e+08  1.3184505     -30697733      -30697733       987.83886     -30696745      -1519.112      -1523.5685     -1512.7631     -1.6454786     -1.6712674      1.6884679      15651.986    
    200000   331.43306      0.1            0.1534787      0.15373574     0.15286218    -1513.5344      755.5368       755.5368       755.5368       4.3128749e+08  1.3166534     -30685115      -30685115       986.95107     -30684128      -1514.717      -1517.2538     -1508.6324     -0.98498371    -1.0307268      0.88372431     11618.683    
    201000   331.66364      0.1005         0.15299201     0.15319886     0.15246092    -1508.8471      755.88022      755.88022      755.88022      4.3187588e+08  1.3148596     -30672529      -30672529       987.63768     -30671541      -1509.9137     -1511.9552     -1504.6723     -0.31778338    -0.82189182     0.30756558     15392.332    
    202000   331.77493      0.101          0.15270018     0.15296921     0.15216654    -1506.1631      756.22365      756.22365      756.22365      4.324648e+08   1.3130691     -30659960      -30659960       987.96908     -30658972      -1507.0336     -1509.6887     -1501.767       0.15275343    -1.2287077      0.29771939     15532.62     
    203000   331.68273      0.1015         0.15241195     0.15285987     0.15190997    -1504.0111      756.56707      756.56707      756.56707      4.3305425e+08  1.3112818     -30647398      -30647398       987.69452     -30646411      -1504.189      -1508.6097     -1499.2348      0.90450925    -1.2832794      0.80668737     15524.3      
    204000   331.74285      0.102          0.15197329     0.15256628     0.15164301    -1500.724       756.9105       756.9105       756.9105       4.3364425e+08  1.3094977     -30634851      -30634851       987.87355     -30633863      -1499.8598     -1505.7121     -1496.6001      1.0524536     -1.2381346      1.481422       15448.597    
    205000   331.59907      0.1025         0.15152927     0.15198637     0.15121514    -1495.948       757.25393      757.25393      757.25393      4.3423477e+08  1.3077169     -30622330      -30622330       987.4454      -30621342      -1495.4776     -1499.9889     -1492.3774     -0.33564952    -1.6375207      1.8949412      15436.505    
    206000   331.0975       0.103          0.15105421     0.15132438     0.15055433    -1490.0335      757.59735      757.59735      757.59735      4.3482584e+08  1.3059393     -30609837      -30609837       985.95183     -30608851      -1490.7891     -1493.4555     -1485.8557     -1.4780271     -1.9586413      2.2503475      15509.328    
    207000   330.79769      0.1035         0.15047328     0.15068503     0.14978047    -1483.4733      757.94078      757.94078      757.94078      4.3541744e+08  1.3041649     -30597386      -30597386       985.05904     -30596401      -1485.0558     -1487.1456     -1478.2183     -1.3916064     -2.217271       2.594328       15535.059    
    208000   330.63553      0.104          0.14995956     0.15022516     0.14922386    -1478.4393      758.2842       758.2842       758.2842       4.3600957e+08  1.3023938     -30584974      -30584974       984.57616     -30583990      -1479.9858     -1482.607      -1472.725      -1.0647146     -2.6327233      1.867482       15565.457    
    209000   330.37285      0.1045         0.14963023     0.14998415     0.14892387    -1475.5761      758.62763      758.62763      758.62763      4.3660225e+08  1.3006258     -30572581      -30572581       983.79393     -30571597      -1476.7355     -1480.2285     -1469.7643     -0.59023324    -2.1297459      0.61302254     15541.371    
    210000   330.35582      0.105          0.14942868     0.14984967     0.14873846    -1473.8607      758.97105      758.97105      758.97105      4.3719546e+08  1.2988611     -30560191      -30560191       983.74323     -30559208      -1474.7464     -1478.9013     -1467.9345     -0.014241015   -0.69151081     0.61453424     15552.841    
    211000   330.62196      0.1055         0.14912806     0.14967768     0.14857271    -1471.7607      759.31448      759.31448      759.31448      4.377892e+08   1.2970995     -30547807      -30547807       984.53573     -30546822      -1471.7796     -1477.2039     -1466.2987      0.15132591    -0.42782294     1.4651457      15552.026    
    212000   330.75075      0.106          0.14874762     0.14941727     0.14828725    -1468.7133      759.65791      759.65791      759.65791      4.3838349e+08  1.2953411     -30535433      -30535433       984.91924     -30534448      -1468.0249     -1474.6338     -1463.4813     -0.44633331    -1.0900858      1.5613546      15524.45     
    213000   330.45953      0.1065         0.14843521     0.14900739     0.14784462    -1464.8811      760.00133      760.00133      760.00133      4.3897831e+08  1.2935859     -30523083      -30523083       984.05206     -30522099      -1464.9416     -1470.5886     -1459.113      -1.0725252     -1.3460158      0.97474302     15533.894    
    214000   330.03039      0.107          0.14803537     0.14836395     0.14727496    -1459.5749      760.34476      760.34476      760.34476      4.3957367e+08  1.2918339     -30510758      -30510758       982.77414     -30509775      -1460.9955     -1464.2383     -1453.4908     -0.89607756    -1.2600694      0.87424229     15583.329    
    215000   329.72228      0.1075         0.14746511     0.14767037     0.14668229    -1453.4675      760.68818      760.68818      760.68818      4.4016956e+08  1.290085      -30498464      -30498464       981.85664     -30497482      -1455.3675     -1457.3932     -1447.6417     -0.47575146    -1.4563621      1.4058794      15538.585    
    216000   329.64681      0.108          0.14689064     0.14714514     0.14625094    -1448.4307      761.03161      761.03161      761.03161      4.40766e+08    1.2883393     -30486205      -30486205       981.63191     -30485223      -1449.6979     -1452.2096     -1443.3845     -0.49267003    -1.6781131      2.4681374      15568.065    
    217000   329.58717      0.1085         0.14648415     0.14681396     0.14607326    -1445.4194      761.37504      761.37504      761.37504      4.4136297e+08  1.2865967     -30473969      -30473969       981.45432     -30472987      -1445.6861     -1448.9411     -1441.631       0.044311135   -1.3754669      2.6298547      15545.247    
[...]
   3256000   324.50951      1.628          0.010142516    0.01019444     0.010037078   -99.922803      1805.0461      1805.0461      1805.0461      5.8811856e+09  0.096554707   -8656100.5     -8656100.5      966.3339      -8655134.1     -100.09885     -100.6113      -99.058257      0.32867015     0.80583072     1.0408627      13891.976    
   3257000   324.49404      1.6285         0.010132799    0.010184763    0.010025335   -99.820374      1805.3895      1805.3895      1805.3895      5.8845431e+09  0.096499617   -8651368.3     -8651368.3      966.28785     -8650402       -100.00296     -100.5158      -98.942368      0.33597282     0.81503492     1.0307123      13864.004    
   3258000   324.4873       1.629          0.010125251    0.010177776    0.01001692    -99.74487       1805.7329      1805.7329      1805.7329      5.8879019e+09  0.096444568   -8646638.6     -8646638.6      966.26777     -8645672.3     -99.928454     -100.44684     -98.859316      0.35236122     0.83170106     1.0459853      13861.432    
   3259000   324.46891      1.6295         0.010118668    0.01017026     0.010011152   -99.679511      1806.0764      1806.0764      1806.0764      5.8912619e+09  0.096389562   -8641910.1     -8641910.1      966.213       -8640943.9     -99.863489     -100.37266     -98.802385      0.35822069     0.8494625      1.0671892      13835.529    
   3260000   324.44654      1.63           0.010109027    0.010158359    0.010004299   -99.586099      1806.4198      1806.4198      1806.4198      5.8946232e+09  0.096334597   -8637183.2     -8637183.2      966.14639     -8636217.1     -99.768337     -100.25521     -98.734753      0.34927994     0.85762389     1.0738624      13823.216    
   3261000   324.4395       1.6305         0.010097025    0.010145088    0.0099964114  -99.477013      1806.7632      1806.7632      1806.7632      5.8979858e+09  0.096279675   -8632459.8     -8632459.8      966.12543     -8631493.7     -99.649894     -100.12424     -98.65691       0.33484176     0.85962029     1.0694749      13832.106    
   3262000   324.44066      1.631          0.010087494    0.010134997    0.0099900291  -99.391464      1807.1066      1807.1066      1807.1066      5.9013497e+09  0.096224794   -8627739.8     -8627739.8      966.12888     -8626773.6     -99.555824     -100.02465     -98.593921      0.32303625     0.86014026     1.0637387      13832.282    
   3263000   324.43063      1.6315         0.010081296    0.010129347    0.0099846741  -99.334868      1807.4501      1807.4501      1807.4501      5.9047148e+09  0.096169954   -8623021.1     -8623021.1      966.09902     -8622055       -99.494654     -99.968878     -98.541072      0.31076421     0.85983842     1.0648505      13869.289    
   3264000   324.41361      1.632          0.010076555    0.010125652    0.0099781812  -99.285758      1807.7935      1807.7935      1807.7935      5.9080813e+09  0.096115157   -8618302.7     -8618302.7      966.04833     -8617336.7     -99.447863     -99.93242      -98.476991      0.30598796     0.85757271     1.0701173      13891.493    
   3265000   324.40824      1.6325         0.01007204     0.010120092    0.0099702154  -99.226407      1808.1369      1808.1369      1808.1369      5.911449e+09   0.096060401   -8613585       -8613585        966.03234     -8612619       -99.403304     -99.877543     -98.398375      0.31689785     0.85163954     1.0753799      13894.116    
   3266000   324.43319      1.633          0.010066562    0.010111141    0.0099622942  -99.152881      1808.4803      1808.4803      1808.4803      5.914818e+09   0.096005686   -8608869       -8608869        966.10665     -8607902.9     -99.349239     -99.789204     -98.3202        0.33009106     0.84229348     1.0809653      13921.055    
   3267000   324.47851      1.6335         0.01006055     0.010101115    0.0099564606  -99.080928      1808.8238      1808.8238      1808.8238      5.9181882e+09  0.095951013   -8604155       -8604155        966.24161     -8603188.8     -99.289905     -99.690253     -98.262626      0.33172726     0.82706135     1.0838109      13929.651    
   3268000   324.52734      1.634          0.010054709    0.010092785    0.0099529049  -99.022615      1809.1672      1809.1672      1809.1672      5.9215598e+09  0.095896382   -8599442.6     -8599442.6      966.387       -8598476.2     -99.232267     -99.608043     -98.227535      0.32230138     0.81200443     1.0847266      13917.997    
   3269000   324.58129      1.6345         0.010049342    0.010086423    0.0099496744  -98.973402      1809.5106      1809.5106      1809.5106      5.9249326e+09  0.095841792   -8594731       -8594731        966.54766     -8593764.5     -99.179295     -99.545259     -98.195652      0.31875834     0.80321541     1.0818805      13916.316    
   3270000   324.62589      1.635          0.010044347    0.010081043    0.0099451986  -98.924544      1809.8541      1809.8541      1809.8541      5.9283067e+09  0.095787243   -8590020       -8590020        966.68045     -8589053.3     -99.129994     -99.49216      -98.151479      0.32496775     0.79974774     1.0795133      13914.667    
   3271000   324.63264      1.6355         0.01003944     0.010076372    0.0099393814  -98.873898      1810.1975      1810.1975      1810.1975      5.9316821e+09  0.095732736   -8585309.5     -8585309.5      966.70058     -8584342.8     -99.081566     -99.44606      -98.094067      0.33206341     0.80436429     1.0787776      13943.911    
   3272000   324.59197      1.636          0.010033759    0.010071306    0.009931841   -98.813737      1810.5409      1810.5409      1810.5409      5.9350588e+09  0.09567827    -8580599.5     -8580599.5      966.57946     -8579633       -99.025501     -99.396059     -98.019649      0.33927047     0.81876041     1.0748574      13947.426    
   3273000   324.52956      1.6365         0.010025355    0.010064638    0.0099219731  -98.731692      1810.8843      1810.8843      1810.8843      5.9384367e+09  0.095623846   -8575891.1     -8575891.1      966.39362     -8574924.7     -98.942558     -99.330257     -97.922261      0.34603995     0.83769118     1.0684351      13980.176    
   3274000   324.47697      1.637          0.01001536     0.01005858     0.0099125173  -98.647774      1811.2278      1811.2278      1811.2278      5.9418159e+09  0.095569462   -8571185.1     -8571185.1      966.237       -8570218.9     -98.843915     -99.270469     -97.828939      0.34721878     0.84825584     1.0662487      13978.325    
   3275000   324.44963      1.6375         0.010005652    0.010053401    0.0099048036  -98.573423      1811.5712      1811.5712      1811.5712      5.9451965e+09  0.09551512    -8566481.1     -8566481.1      966.15559     -8565514.9     -98.74811      -99.21935      -97.752811      0.34356184     0.84598911     1.0709945      13963.157    
   3276000   324.44499      1.638          0.0099966152   0.010046313    0.0098979434  -98.49781       1811.9146      1811.9146      1811.9146      5.9485782e+09  0.09546082    -8561778.7     -8561778.7      966.14179     -8560812.6     -98.658922     -99.149404     -97.685106      0.34153654     0.83916869     1.0748192      13966.966    
   3277000   324.45158      1.6385         0.0099890816   0.010037555    0.0098906802  -98.42032       1812.258       1812.258       1812.258       5.9519613e+09  0.09540656    -8557078.4     -8557078.4      966.16139     -8556112.3     -98.584571     -99.062965     -97.613424      0.33406803     0.83213814     1.0680093      14010.934    
   3278000   324.45334      1.639          0.0099832824   0.010030227    0.0098831762  -98.352449      1812.6015      1812.6015      1812.6015      5.9553457e+09  0.095352341   -8552380.1     -8552380.1      966.16665     -8551413.9     -98.527337     -98.990645     -97.539366      0.32267033     0.82201067     1.0512376      14003.468    
   3279000   324.44434      1.6395         0.009977072    0.010025061    0.0098768895  -98.294342      1812.9449      1812.9449      1812.9449      5.9587313e+09  0.095298164   -8547682.7     -8547682.7      966.13985     -8546716.6     -98.466045     -98.93966      -97.477321      0.31400922     0.81931317     1.0404111      13987.45     
   3280000   324.44307      1.64           0.0099683009   0.010019123    0.0098704206  -98.224671      1813.2883      1813.2883      1813.2883      5.9621183e+09  0.095244028   -8542986.5     -8542986.5      966.13607     -8542020.3     -98.379481     -98.881055     -97.413477      0.31158318     0.83185842     1.0412514      14034.224    
   3281000   324.46851      1.6405         0.009959521    0.010010296    0.0098638945  -98.145279      1813.6317      1813.6317      1813.6317      5.9655065e+09  0.095189932   -8538292.4     -8538292.4      966.2118      -8537326.2     -98.29283      -98.793936     -97.34907       0.31624255     0.84903061     1.0480484      14081.535    
   3282000   324.51611      1.641          0.0099540444   0.01000089     0.0098584514  -98.078413      1813.9752      1813.9752      1813.9752      5.968896e+09   0.095135878   -8533600.5     -8533600.5      966.35357     -8532634.2     -98.23878      -98.701109     -97.295351      0.32594903     0.84727285     1.0452393      14065.182    
   3283000   324.5694       1.6415         0.0099513821   0.0099940596   0.0098544675  -98.034079      1814.3186      1814.3186      1814.3186      5.9722867e+09  0.095081864   -8528909.6     -8528909.6      966.51224     -8527943.1     -98.212505     -98.6337       -97.256033      0.33551984     0.82036317     1.0221977      14077.953    
   3284000   324.60575      1.642          0.0099491506   0.0099880081   0.0098501682  -97.992687      1814.662       1814.662       1814.662       5.9756788e+09  0.095027891   -8524218.7     -8524218.7      966.6205      -8523252.1     -98.190483     -98.573976     -97.213602      0.34328504     0.79115799     0.99825062     14102.886    
   3285000   324.61077      1.6425         0.0099456041   0.0099807535   0.0098432572  -97.934418      1815.0054      1815.0054      1815.0054      5.9790721e+09  0.09497396    -8519528.2     -8519528.2      966.63546     -8518561.6     -98.155481     -98.502379     -97.145396      0.3423999      0.78260765     0.99791195     14077.602    
   3286000   324.57951      1.643          0.0099397388   0.009972025    0.0098341117  -97.856322      1815.3489      1815.3489      1815.3489      5.9824668e+09  0.094920069   -8514839.2     -8514839.2      966.54234     -8513872.7     -98.097595     -98.416235     -97.055136      0.33446919     0.796676       1.0271939      14076.007    
   3287000   324.53265      1.6435         0.0099321207   0.0099630091   0.0098248552  -97.771149      1815.6923      1815.6923      1815.6923      5.9858627e+09  0.094866218   -8510152.5     -8510152.5      966.40281     -8509186.1     -98.02241      -98.327255     -96.963782      0.33152157     0.81975296     1.0732033      14063.825    
   3288000   324.50082      1.644          0.0099224873   0.0099547742   0.0098162269  -97.683982      1816.0357      1816.0357      1816.0357      5.9892599e+09  0.094812409   -8505468.2     -8505468.2      966.30802     -8504501.9     -97.927336     -98.245983     -96.878627      0.32833913     0.82249773     1.1035647      14058.049    
   3289000   324.48533      1.6445         0.0099117661   0.0099475262   0.0098076782  -97.596745      1816.3791      1816.3791      1816.3791      5.9926584e+09  0.09475864    -8500786.4     -8500786.4      966.26192     -8499820.2     -97.821526     -98.17445      -96.794258      0.32116941     0.79667596     1.102856       14062.442    
   3290000   324.47442      1.645          0.009901708    0.0099404524   0.0098000408  -97.51526       1816.7226      1816.7226      1816.7226      5.9960581e+09  0.094704912   -8496107.1     -8496107.1      966.22941     -8495140.9     -97.72226      -98.104638     -96.718882      0.31735731     0.77391414     1.0892225      14076.077    
   3291000   324.46558      1.6455         0.0098948249   0.0099346885   0.009795055   -97.457253      1817.066       1817.066       1817.066       5.9994592e+09  0.094651224   -8491429.5     -8491429.5      966.20308     -8490463.3     -97.654329     -98.047753     -96.669677      0.32213242     0.76647118     1.0872694      14065.198    
   3292000   324.45474      1.646          0.0098914282   0.0099310942   0.0097918668  -97.423766      1817.4094      1817.4094      1817.4094      6.0028615e+09  0.094597577   -8486752.2     -8486752.2      966.1708      -8485786.1     -97.620806     -98.012279     -96.638212      0.33259993     0.7683254      1.101324       14079.317    
   3293000   324.44833      1.6465         0.0098882663   0.0099288412   0.0097885298  -97.394974      1817.7528      1817.7528      1817.7528      6.0062651e+09  0.094543971   -8482074.4     -8482074.4      966.15173     -8481108.2     -97.589601     -97.990044     -96.605278      0.34936835     0.77532492     1.1142762      14072.818    
   3294000   324.4725       1.647          0.0098811358   0.00992487     0.0097826102  -97.338978      1818.0963      1818.0963      1818.0963      6.0096701e+09  0.094490405   -8477396.6     -8477396.6      966.22369     -8476430.3     -97.519228     -97.950851     -96.546856      0.36206232     0.78134441     1.1173274      14046.612    
   3295000   324.54162      1.6475         0.0098707198   0.0099182571   0.0097739474  -97.254459      1818.4397      1818.4397      1818.4397      6.0130763e+09  0.094436879   -8472720.8     -8472720.8      966.42952     -8471754.4     -97.41643      -97.885587     -96.461361      0.36642864     0.78277112     1.1152357      14042.5      
   3296000   324.6184       1.648          0.0098606133   0.0099102501   0.0097646632  -97.164328      1818.7831      1818.7831      1818.7831      6.0164837e+09  0.094383394   -8468047.9     -8468047.9      966.65817     -8467081.2     -97.316687     -97.806564     -96.369733      0.36484481     0.7832258      1.1105183      14055.778    
   3297000   324.65891      1.6485         0.0098515554   0.0099007548   0.0097555321  -97.073254      1819.1265      1819.1265      1819.1265      6.0198925e+09  0.094329949   -8463377.9     -8463377.9      966.7788      -8462411.1     -97.227292     -97.712853     -96.279616      0.36687191     0.79117686     1.1040013      14050.946    
   3298000   324.63883      1.649          0.0098438936   0.0098911047   0.0097471094  -96.988593      1819.47        1819.47        1819.47        6.0233026e+09  0.094276545   -8458710.3     -8458710.3      966.71901     -8457743.6     -97.151677     -97.617614     -96.19649       0.37284646     0.80631515     1.0941889      14049.558    
   3299000   324.5666       1.6495         0.0098361626   0.0098821183   0.0097403585  -96.911388      1819.8134      1819.8134      1819.8134      6.0267139e+09  0.094223181   -8454044.7     -8454044.7      966.5039      -8453078.2     -97.075377     -97.528924     -96.129864      0.3696993      0.82153423     1.0768697      14037.258    
   3300000   324.48815      1.65           0.0098287877   0.009873564    0.0097351577  -96.841876      1820.1568      1820.1568      1820.1568      6.0301266e+09  0.094169857   -8449380.8     -8449380.8      966.27031     -8448414.6     -97.002592     -97.444501     -96.078536      0.35030012     0.82623405     1.0597654      13735.4      
   3301000   324.44426      1.6505         0.0098225815   0.0098664701   0.0097299947  -96.781137      1820.5003      1820.5003      1820.5003      6.0335405e+09  0.094116573   -8444718.2     -8444718.2      966.1396      -8443752       -96.941342     -97.374489     -96.027581      0.32491936     0.80804573     1.0507515      14022.079    
   3302000   324.44316      1.651          0.0098172139   0.0098615776   0.009723308   -96.725387      1820.8437      1820.8437      1820.8437      6.0369557e+09  0.09406333    -8440056.6     -8440056.6      966.13632     -8439090.4     -96.888368     -97.326204     -95.961589      0.30378656     0.7842126      1.0513503      14032.291    
   3303000   324.46595      1.6515         0.0098119721   0.0098584599   0.0097163011  -96.674836      1821.1871      1821.1871      1821.1871      6.0403722e+09  0.094010127   -8435395.9     -8435395.9      966.2042      -8434429.7     -96.836635     -97.295435     -95.892436      0.29438641     0.77658782     1.0515523      14048.214    
   3304000   324.49582      1.652          0.0098058321   0.009855267    0.0097099003  -96.623075      1821.5305      1821.5305      1821.5305      6.04379e+09    0.093956964   -8430736.1     -8430736.1      966.29313     -8429769.8     -96.776038     -97.263923     -95.829265      0.30082724     0.7847641      1.0394035      14029.967    
   3305000   324.5275       1.6525         0.0097993434   0.0098505977   0.0097034097  -96.565016      1821.874       1821.874       1821.874       6.0472091e+09  0.093903841   -8426077.3     -8426077.3      966.38748     -8425110.9     -96.712        -97.217841     -95.765208      0.31598439     0.78742168     1.0207983      13970.782    
   3306000   324.54789      1.653          0.0097930099   0.009842887    0.0096962367  -96.495217      1822.2174      1822.2174      1822.2174      6.0506294e+09  0.093850758   -8421419.7     -8421419.7      966.44821     -8420453.3     -96.649493     -97.141742     -95.694416      0.32282689     0.78710457     1.0148183      13989.96     
   3307000   324.55837      1.6535         0.0097861369   0.00983078     0.0096871969  -96.403039      1822.5608      1822.5608      1822.5608      6.0540511e+09  0.093797715   -8416764.3     -8416764.3      966.47941     -8415797.9     -96.581662     -97.022255     -95.6052        0.32670957     0.79121201     1.0279882      13989.939    
   3308000   324.55313      1.654          0.0097775288   0.00981704     0.0096769235  -96.295722      1822.9042      1822.9042      1822.9042      6.057474e+09   0.093744712   -8412112.1     -8412112.1      966.46379     -8411145.6     -96.496706     -96.886651     -95.503809      0.33801205     0.78983953     1.0454866      13982.991    
   3309000   324.52889      1.6545         0.0097676738   0.0098047159   0.0096666951  -96.18911       1823.2477      1823.2477      1823.2477      6.0608983e+09  0.093691748   -8407463.5     -8407463.5      966.39163     -8406497.1     -96.399445     -96.765023     -95.402863      0.35492459     0.78635197     1.0557541      13969.667    
   3310000   324.50763      1.655          0.009758998    0.0097960075   0.009656789   -96.099332      1823.5911      1823.5911      1823.5911      6.0643238e+09  0.093638825   -8402818.1     -8402818.1      966.3283      -8401851.8     -96.313822     -96.679078     -95.305097      0.36490635     0.78760479     1.0619858      13950.005    
   3311000   324.50092      1.6555         0.009753455    0.0097925468   0.0096484927  -96.04242       1823.9345      1823.9345      1823.9345      6.0677506e+09  0.093585942   -8398174.8     -8398174.8      966.30834     -8397208.5     -96.259117     -96.644923     -95.223219      0.36684749     0.78957897     1.0670164      13939.059    
   3312000   324.4996       1.656          0.0097498864   0.0097913096   0.0096427852  -96.007834      1824.2779      1824.2779      1824.2779      6.0711787e+09  0.093533098   -8393531.6     -8393531.6      966.30438     -8392565.3     -96.223897     -96.632712     -95.166891      0.36935852     0.78676465     1.0655461      13895.004    
   3313000   324.49919      1.6565         0.0097448401   0.0097873032   0.0096390782  -95.965858      1824.6214      1824.6214      1824.6214      6.0746081e+09  0.093480294   -8388888.2     -8388888.2      966.30317     -8387921.9     -96.174094     -96.593173     -95.130306      0.37230843     0.78608162     1.0568976      13885.688    
   3314000   324.48885      1.657          0.009737799    0.0097808566   0.0096367039