LAMMPS (23 Jun 2022 - Update 1)
OMP_NUM_THREADS environment is not set. Defaulting to 1 thread. (src/comm.cpp:98)
  using 1 OpenMP thread(s) per MPI task
###

# Read restart info
read_restart ${read_res}
read_restart ./trial10/2080/equpmf70.res
Reading restart file ...
  restart file = 23 Jun 2022, LAMMPS = 23 Jun 2022
  restoring atom style atomic from restart
  orthogonal box = (1634.1406 1634.1406 1634.1406) to (2365.8594 2365.8594 2365.8594)
  2 by 1 by 2 MPI processor grid
  restoring pair style table from restart
  1000 atoms
  read_restart CPU = 0.008 seconds

# Settings
pair_style table/pgn spline 10941
pair_coeff 1 1 N20e.txt DE_GNP 308 72.9   # 1.35 * r
pair_coeff 2 2 N100e.txt DE_GNP 473.9 111.78
WARNING: 20 of 10941 force values in table DE_GNP are inconsistent with -dE/dr.
WARNING:  Should only be flagged at inflection points (src/pair_table_pgn.cpp:478)
pair_coeff 1 2 mixed_potentiale.txt DE_GNP 391.2 92.95
WARNING: 1564 of 10941 force values in table DE_GNP are inconsistent with -dE/dr.
WARNING:  Should only be flagged at inflection points (src/pair_table_pgn.cpp:478)

# Neighbor list
neighbor 2.0 bin
neigh_modify delay 0 every 1 check no once yes

# Temperature
variable T equal ${Temp}
variable T equal 300

# Deformation
reset_timestep 0
variable tmp equal "lx"
variable L0 equal ${tmp}
variable L0 equal 731.718737675724
variable strain equal "(lx - v_L0)/v_L0"
variable stp equal "step"
variable tmpe equal "temp"
variable p1 equal "v_strain"
variable p2 equal "-pxx*1.01325/10000"
variable p3 equal "-pyy*1.01325/10000"
variable p4 equal "-pzz*1.01325/10000"
variable p5 equal "lx"
variable p6 equal "ly"
variable p7 equal "lz"
variable p8 equal "press"
variable p9 equal "epair"
variable p10 equal "etotal"

# Thermo
thermo_style custom step temp v_p1 v_p2 v_p3 v_p4 press lx ly lz vol density epair pe ke etotal pxx pyy pzz pxy pxz pyz spcpu
thermo ${ts_save}
thermo 1000

# Dump
# dump 1 all custom 2000 ./${N20}${N100}/tensile/trajectory/trajectory_${usic}_${trial}_*.tensile.custom id type x y z ix iy iz
# dump_modify 1 sort id
dump 2 all cfg 50000 ./trial${trial}/${N20}${N100}/tensile/trajectory/dumpten.tens_${usic}_${trial}_*.cfg mass type xs ys zs fx fy fz
dump 2 all cfg 50000 ./trial10/${N20}${N100}/tensile/trajectory/dumpten.tens_${usic}_${trial}_*.cfg mass type xs ys zs fx fy fz
dump 2 all cfg 50000 ./trial10/20${N100}/tensile/trajectory/dumpten.tens_${usic}_${trial}_*.cfg mass type xs ys zs fx fy fz
dump 2 all cfg 50000 ./trial10/2080/tensile/trajectory/dumpten.tens_${usic}_${trial}_*.cfg mass type xs ys zs fx fy fz
dump 2 all cfg 50000 ./trial10/2080/tensile/trajectory/dumpten.tens_1_${trial}_*.cfg mass type xs ys zs fx fy fz
dump 2 all cfg 50000 ./trial10/2080/tensile/trajectory/dumpten.tens_1_10_*.cfg mass type xs ys zs fx fy fz
dump_modify 2 element N20 N100

fix 1 all nvt temp ${T} ${T} 100
fix 1 all nvt temp 300 ${T} 100
fix 1 all nvt temp 300 300 100
fix 2 all deform 1 x erate ${strain_rate} y erate ${strain_rate} z erate ${strain_rate} units box
fix 2 all deform 1 x erate 5e-6 y erate ${strain_rate} z erate ${strain_rate} units box
fix 2 all deform 1 x erate 5e-6 y erate 5e-6 z erate ${strain_rate} units box
fix 2 all deform 1 x erate 5e-6 y erate 5e-6 z erate 5e-6 units box
fix             def1 all print ${ts_save} "${p1} ${p2} ${p3} ${p4}" file ./tensile/${trial}/tensile${N20}${N100}_${usic}_${trial}.txt screen no
fix             def1 all print 1000 "${p1} ${p2} ${p3} ${p4}" file ./tensile/${trial}/tensile${N20}${N100}_${usic}_${trial}.txt screen no
fix             def1 all print 1000 "${p1} ${p2} ${p3} ${p4}" file ./tensile/10/tensile${N20}${N100}_${usic}_${trial}.txt screen no
fix             def1 all print 1000 "${p1} ${p2} ${p3} ${p4}" file ./tensile/10/tensile20${N100}_${usic}_${trial}.txt screen no
fix             def1 all print 1000 "${p1} ${p2} ${p3} ${p4}" file ./tensile/10/tensile2080_${usic}_${trial}.txt screen no
fix             def1 all print 1000 "${p1} ${p2} ${p3} ${p4}" file ./tensile/10/tensile2080_1_${trial}.txt screen no
fix             def1 all print 1000 "${p1} ${p2} ${p3} ${p4}" file ./tensile/10/tensile2080_1_10.txt screen no

timestep       		${ts}
timestep       		0.1
run				${steps_tensile}
run				6000000
Generated 0 of 1 mixed pair_coeff terms from geometric mixing rule
Unused restart file global fix info:
  fix style: npt, fix ID: 5
Neighbor list info ...
  update every 1 steps, delay 0 steps, check no
  max neighbors/atom: 2000, page size: 100000
  master list distance cutoff = 113.78
  ghost atom cutoff = 113.78
  binsize = 56.89, bins = 13 13 13
  1 neighbor lists, perpetual/occasional/extra = 1 0 0
  (1) pair table/pgn, perpetual
      attributes: half, newton on
      pair build: half/bin/atomonly/newton
      stencil: half/bin/3d
      bin: standard
Per MPI rank memory allocation (min/avg/max) = 3.838 | 3.84 | 3.842 Mbytes
   Step          Temp           v_p1           v_p2           v_p3           v_p4          Press            Lx             Ly             Lz           Volume        Density         E_pair         PotEng         KinEng         TotEng          Pxx            Pyy            Pzz            Pxy            Pxz            Pyz           S/CPU     
         0   306.12623      6.2147835e-16 -0.0010005005   0.00096036189  0.0038679896  -12.592651      731.71874      731.71874      731.71874      3.9177122e+08  1.6191698     -46050241      -46050241       911.59165     -46049329       9.8741721     -9.4780349     -38.17409      -18.17658      -4.4448337      30.288851      0            
      1000   354.94295      0.0005         0.0067377005   0.0085999245   0.011681359   -88.885547      732.0846       732.0846       732.0846       3.9235917e+08  1.6167435     -46050018      -46050018       1056.9595     -46048961      -66.495934     -84.874656     -115.28605     -16.410427     -4.6591827      30.146116      13780.291    
      2000   410.27608      0.001          0.014219348    0.016061516    0.019246075   -162.93096      732.45046      732.45046      732.45046      3.9294771e+08  1.614322      -46049280      -46049280       1221.7321     -46048058      -140.33405     -158.51484     -189.94399     -15.897594     -5.1769201      29.496219      14010.377    
      3000   448.58424      0.0015         0.021631035    0.023375169    0.026561298   -235.43877      732.81632      732.81632      732.81632      3.9353684e+08  1.6119054     -46048008      -46048008       1335.8073     -46046673      -213.48171     -230.69498     -262.13963     -16.345061     -5.5580411      28.735978      14046.456    
      4000   467.97774      0.002          0.028967009    0.030531877    0.033769116   -306.82787      733.18218      733.18218      733.18218      3.9412655e+08  1.6094935     -46046171      -46046171       1393.5578     -46044778      -285.88215     -301.32619     -333.27526     -16.372045     -6.0081876      28.068402      13990.002    
      5000   472.491        0.0025         0.03615807     0.03761022     0.040808651   -376.92883      733.54803      733.54803      733.54803      3.9471686e+08  1.6070865     -46043749      -46043749       1406.9975     -46042342      -356.8524      -371.18402     -402.75007     -16.229742     -6.0862931      27.374571      14473.199    
      6000   467.69537      0.003          0.043230677    0.044666515    0.047688823   -446.04331      733.91389      733.91389      733.91389      3.9530775e+08  1.6046843     -46040734      -46040734       1392.717      -46039341      -426.65361     -440.82423     -470.65209     -16.571421     -5.5596986      26.794894      15617.094    
      7000   457.57162      0.0035         0.050085595    0.051473272    0.054533009   -513.50235      734.27975      734.27975      734.27975      3.9589923e+08  1.6022868     -46037122      -46037122       1362.5702     -46035759      -494.30639     -508.0017      -538.19896     -16.2052       -5.5083685      26.172337      16401.626    
      8000   445.68714      0.004          0.05662433     0.057948494    0.061299704   -578.57563      734.64561      734.64561      734.64561      3.9649131e+08  1.5998942     -46032925      -46032925       1327.1802     -46031598      -558.83869     -571.90717     -604.98104     -14.624162     -5.8352809      25.352305      16291.375    
      9000   434.4576       0.0045         0.063028465    0.064346711    0.067940337   -642.53808      735.01147      735.01147      735.01147      3.9708397e+08  1.5975063     -46028163      -46028163       1293.7405     -46026869      -622.04258     -635.05266     -670.519       -12.889062     -6.3468617      24.801646      16206.023    
     10000   424.47781      0.005          0.069554458    0.07079154     0.074427832   -706.55097      735.37733      735.37733      735.37733      3.9767722e+08  1.5951231     -46022832      -46022832       1264.0224     -46021568      -686.44913     -698.65818     -734.54559     -11.842405     -6.7742187      25.173526      16380.354    
     11000   415.70151      0.0055         0.076214294    0.077306983    0.080813065   -770.90005      735.74319      735.74319      735.74319      3.9827106e+08  1.5927447     -46016917      -46016917       1237.8881     -46015680      -752.1766      -762.9606      -797.56294     -11.743104     -6.7927827      25.539939      16396.424    
     12000   408.22505      0.006          0.082800227    0.0838011      0.087090428   -834.58098      736.10905      736.10905      736.10905      3.988655e+08   1.590371      -46010424      -46010424       1215.6245     -46009208      -817.1747      -827.05255     -859.51569     -12.158083     -6.2989394      24.8731        16353.539    
     13000   402.26972      0.0065         0.089154803    0.089971497    0.093152227   -895.72671      736.47491      736.47491      736.47491      3.9946052e+08  1.5880021     -46003375      -46003375       1197.8905     -46002177      -879.88949     -887.94963     -919.341       -12.315654     -5.8211026      23.917376      16176.967    
     14000   397.82728      0.007          0.095200587    0.095764198    0.09899345    -953.88843      736.84077      736.84077      736.84077      4.0005614e+08  1.5856378     -45995802      -45995802       1184.6617     -45994617      -939.55674     -945.11915     -976.98939     -12.453993     -5.241822       23.552568      16284.7      
     15000   394.47408      0.0075         0.10086955     0.10141504     0.10477336    -1010.1421      737.20663      737.20663      737.20663      4.0065235e+08  1.5832782     -45987726      -45987726       1174.6764     -45986551      -995.50506     -1000.8886     -1034.0327     -12.031643     -4.7031744      23.42399       16404.676    
     16000   391.77559      0.008          0.10638297     0.10707946     0.11050461    -1065.7687      737.57249      737.57249      737.57249      4.0124915e+08  1.5809233     -45979155      -45979155       1166.6408     -45977989      -1049.9183     -1056.7921     -1090.5957     -10.802996     -4.4760155      22.927321      16411.193    
     17000   389.53878      0.0085         0.11199622     0.112775       0.11626857    -1121.9337      737.93835      737.93835      737.93835      4.0184654e+08  1.5785731     -45970076      -45970076       1159.98       -45968916      -1105.3168     -1113.0027     -1147.4815     -9.6252698     -4.7996331      22.107212      16361.122    
     18000   387.61226      0.009          0.11766002     0.1184081      0.12201391    -1177.9983      738.30421      738.30421      738.30421      4.0244453e+08  1.5762275     -45960486      -45960486       1154.2431     -45959332      -1161.2141     -1168.5971     -1204.1836     -9.080061      -6.060582       21.341762      16382.189    
     19000   386.35707      0.0095         0.12317961     0.12385548     0.12739255    -1231.7712      738.67007      738.67007      738.67007      4.0304311e+08  1.5738866     -45950411      -45950411       1150.5054     -45949260      -1215.6883     -1222.3585     -1257.2667     -9.1552758     -7.0272558      20.814309      16409.458    
     20000   385.91647      0.01           0.12859023     0.12912491     0.13252167    -1283.7793      739.03593      739.03593      739.03593      4.0364228e+08  1.5715503     -45939873      -45939873       1149.1933     -45938724      -1269.0869     -1274.3638     -1307.8872     -9.0914615     -6.7352644      20.664746      16418.084    
     21000   385.90953      0.0105         0.13384838     0.13428273     0.13759695    -1334.7415      739.40178      739.40178      739.40178      4.0424205e+08  1.5692186     -45928885      -45928885       1149.1727     -45927736      -1320.9808     -1325.2675     -1357.9763     -8.4769439     -5.8551118      21.109706      16361.698    
     22000   386.23308      0.011          0.138991       0.13932242     0.14262747    -1384.7879      739.76764      739.76764      739.76764      4.0484241e+08  1.5668915     -45917442      -45917442       1150.1362     -45916292      -1371.7345     -1375.0054     -1407.6237     -7.4250165     -4.9780089      21.298384      16337.596    
     23000   386.6217       0.0115         0.14410228     0.14422717     0.14763911    -1434.2251      740.1335       740.1335       740.1335       4.0544336e+08  1.5645691     -45905548      -45905548       1151.2934     -45904397      -1422.1789     -1423.4115     -1457.0848     -6.7505481     -4.2624387      20.199345      16429.905    
     24000   386.83501      0.012          0.14899242     0.14901741     0.15251997    -1482.1278      740.49936      740.49936      740.49936      4.0604491e+08  1.5622512     -45893215      -45893215       1151.9286     -45892063      -1470.4408     -1470.6874     -1505.2551     -6.5956715     -4.4563179      18.600733      16373.841    
     25000   387.2874       0.0125         0.15356402     0.15368445     0.1571346     -1527.7015      740.86522      740.86522      740.86522      4.0664705e+08  1.5599379     -45880457      -45880457       1153.2757     -45879304      -1515.5591     -1516.7476     -1550.7979     -6.5373205     -5.1440958      17.856624      16400.068    
     26000   388.34238      0.013          0.15807507     0.15816551     0.16165024    -1572.1386      741.23108      741.23108      741.23108      4.0724979e+08  1.5576291     -45867298      -45867298       1156.4173     -45866142      -1560.0797     -1560.9723     -1595.3638     -6.6497034     -5.0095442      18.250431      16377.701    
     27000   389.78878      0.0135         0.16268096     0.16258862     0.16625237    -1616.9815      741.59694      741.59694      741.59694      4.0785312e+08  1.555325      -45853744      -45853744       1160.7244     -45852583      -1605.5363     -1604.6249     -1640.7834     -7.0612693     -4.375914       18.560992      16428.698    
     28000   391.2674       0.014          0.16721874     0.16708782     0.17084749    -1661.8276      741.9628       741.9628       741.9628       4.0845705e+08  1.5530253     -45839789      -45839789       1165.1275     -45838624      -1650.3207     -1649.0286     -1686.1337     -6.912784      -4.5303049      18.417149      16330.794    
     29000   392.88991      0.0145         0.17155387     0.1715209      0.17518891    -1704.955       742.32866      742.32866      742.32866      4.0906157e+08  1.5507302     -45825441      -45825441       1169.9591     -45824271      -1693.1051     -1692.7796     -1728.9802     -6.5091443     -5.4454353      18.568832      16432.061    
     30000   394.64396      0.015          0.17582816     0.17578046     0.17927072    -1746.4573      742.69452      742.69452      742.69452      4.0966669e+08  1.5484396     -45810713      -45810713       1175.1823     -45809537      -1735.289      -1734.8183     -1769.2645     -6.3604415     -5.7647212      18.405662      16365.132    
     31000   396.12194      0.0155         0.18000525     0.17988108     0.18326725    -1786.8363      743.06038      743.06038      743.06038      4.1027241e+08  1.5461535     -45795615      -45795615       1179.5835     -45794435      -1776.5137     -1775.2882     -1808.7071     -6.0615661     -5.1857004      16.962706      16435.182    
     32000   397.21494      0.016          0.18405917     0.18375075     0.18727716    -1826.0945      743.42624      743.42624      743.42624      4.1087872e+08  1.5438719     -45780153      -45780153       1182.8383     -45778971      -1816.5228     -1813.4789     -1848.2819     -5.4795037     -4.3482007      15.950379      16388.504    
     33000   398.4082       0.0165         0.18804666     0.18743793     0.19122138    -1864.3177      743.7921       743.7921       743.7921       4.1148563e+08  1.5415948     -45764331      -45764331       1186.3916     -45763145      -1855.8762     -1849.8685     -1887.2083     -4.5904727     -3.794272       15.490724      16446.922    
     34000   400.12902      0.017          0.19191936     0.19110122     0.1950007     -1901.5422      744.15796      744.15796      744.15796      4.1209314e+08  1.5393222     -45748163      -45748163       1191.5159     -45746972      -1894.0968     -1886.0224     -1924.5073     -3.6905295     -3.3686031      15.006272      16387.805    
     35000   402.0889       0.0175         0.19565328     0.19487624     0.19868939    -1938.3795      744.52382      744.52382      744.52382      4.1270125e+08  1.5370541     -45731665      -45731665       1197.3521     -45730468      -1930.9477     -1923.2789     -1960.9118     -4.1673796     -3.1592576      14.533961      16435.461    
     36000   403.80983      0.018          0.1992347      0.19866176     0.20237234    -1974.7308      744.88967      744.88967      744.88967      4.1330995e+08  1.5347904     -45714840      -45714840       1202.4767     -45713637      -1966.2936     -1960.6392     -1997.2597     -5.6867603     -3.3049741      14.056588      16308.493    
     37000   405.39405      0.0185         0.20279732     0.20226484     0.20597681    -2010.1619      745.25553      745.25553      745.25553      4.1391925e+08  1.5325311     -45697687      -45697687       1207.1943     -45696480      -2001.4539     -1996.1988     -2032.8331     -6.1635795     -3.6110836      13.93979       16374.419    
     38000   407.13497      0.019          0.20636006     0.20563137     0.20942837    -2044.3122      745.62139      745.62139      745.62139      4.1452916e+08  1.5302763     -45680213      -45680213       1212.3784     -45679001      -2036.6155     -2029.4239     -2066.8973     -5.0478137     -2.8044733      13.61883       16440.215    
     39000   408.80113      0.0195         0.20977256     0.2089007      0.21273979    -2077.1874      745.98725      745.98725      745.98725      4.1513965e+08  1.5280259     -45662424      -45662424       1217.34       -45661207      -2070.2942     -2061.6896     -2099.5785     -3.7826433     -1.0960326      13.445305      16368.225    
     40000   410.10769      0.02           0.2130562      0.21219903     0.2159795     -2109.4982      746.35311      746.35311      746.35311      4.1575075e+08  1.5257799     -45644334      -45644334       1221.2307     -45643112      -2102.7012     -2094.2416     -2131.5519     -3.628983      -0.16648968     13.254939      16420.612    
     41000   410.85858      0.0205         0.21625822     0.215404       0.21914943    -2141.0039      746.71897      746.71897      746.71897      4.1636245e+08  1.5235383     -45625948      -45625948       1223.4667     -45624724      -2134.3027     -2125.8721     -2162.8367     -4.7206379     -0.77502802     12.106931      16411.489    
     42000   411.70411      0.021          0.21930961     0.21846009     0.22217376    -2171.0452      747.08483      747.08483      747.08483      4.1697475e+08  1.5213011     -45607271      -45607271       1225.9845     -45606045      -2164.4176     -2156.0334     -2192.6846     -5.692223      -1.9616509      10.878391      16430.96     
     43000   413.38874      0.0215         0.22221313     0.22141187     0.22511217    -2199.9742      747.45069      747.45069      747.45069      4.1758765e+08  1.5190682     -45588321      -45588321       1231.0011     -45587090      -2193.0731     -2185.1652     -2221.6843     -4.8786662     -2.4703869      10.470959      16434.406    
     44000   415.62505      0.022          0.22511917     0.2243105      0.22806962    -2228.7994      747.81655      747.81655      747.81655      4.1820114e+08  1.5168398     -45569101      -45569101       1237.6604     -45567864      -2221.7535     -2213.7725     -2250.8722     -3.2692061     -1.6855571      10.851277      16424.407    
     45000   417.56917      0.0225         0.22815149     0.22721035     0.23105682    -2258.1418      748.18241      748.18241      748.18241      4.1881524e+08  1.5146157     -45549611      -45549611       1243.4497     -45548367      -2251.6801     -2242.3918     -2280.3535     -3.0731342     -1.4475674      10.748307      16407.045    
     46000   418.77678      0.023          0.23111817     0.22999706     0.23396758    -2286.6447      748.54827      748.54827      748.54827      4.1942994e+08  1.5123959     -45529854      -45529854       1247.0458     -45528607      -2280.959      -2269.8945     -2309.0804     -3.9082955     -2.2659436      9.8940085      16370.782    
     47000   419.62568      0.0235         0.23383389     0.23258137     0.23663253    -2312.8474      748.91413      748.91413      748.91413      4.2004524e+08  1.5101805     -45509839      -45509839       1249.5736     -45508590      -2307.7611     -2295.3997     -2335.3815     -4.3819762     -2.6380986      9.3516396      16364.596    
     48000   420.59029      0.024          0.23631801     0.23508902     0.23909112    -2337.3572      749.27999      749.27999      749.27999      4.2066114e+08  1.5079694     -45489576      -45489576       1252.4461     -45488324      -2332.2775     -2320.1482     -2359.6459     -4.0914147     -2.1978466      9.6356384      16411.266    
     49000   421.59458      0.0245         0.23865221     0.23758188     0.2414662     -2361.0504      749.64585      749.64585      749.64585      4.2127765e+08  1.5057626     -45469078      -45469078       1255.4367     -45467823      -2355.3142     -2344.7508     -2383.0861     -3.5988602     -1.174865       10.107259      16343.405    
     50000   422.67325      0.025          0.2410072      0.23999246     0.24385957    -2384.6015      750.01171      750.01171      750.01171      4.2189475e+08  1.5035601     -45448353      -45448353       1258.6488     -45447094      -2378.5561     -2368.5415     -2406.7069     -3.8219712     -0.14080091     9.6604195      15871.945    
     51000   423.70585      0.0255         0.24351021     0.24238244     0.24623457    -2408.5113      750.37757      750.37757      750.37757      4.2251246e+08  1.5013619     -45427404      -45427404       1261.7237     -45426142      -2403.2589     -2392.1287     -2430.1463     -4.3808121      0.39459527     8.6238561      16417.247    
     52000   424.93917      0.026          0.24594482     0.24471295     0.24847708    -2431.5646      750.74342      750.74342      750.74342      4.2313077e+08  1.499168      -45406233      -45406233       1265.3963     -45404967      -2427.2867     -2415.129      -2452.2781     -4.1453115      0.17150296     8.0214944      16352.439    
     53000   426.3463       0.0265         0.24817887     0.24692233     0.25069536    -2453.4799      751.10928      751.10928      751.10928      4.2374969e+08  1.4969784     -45384843      -45384843       1269.5865     -45383573      -2449.335      -2436.9339     -2474.1708     -3.1848757      0.016920562    7.8181681      15900.115    
     54000   427.59129      0.027          0.25019728     0.24890378     0.2528613     -2473.7638      751.47514      751.47514      751.47514      4.243692e+08   1.494793      -45363245      -45363245       1273.2938     -45361972      -2469.2552     -2456.4893     -2495.547      -2.5258866      0.36030291     7.6402231      16400.542    
     55000   428.55706      0.0275         0.2521889      0.25081503     0.25485814    -2493.1724      751.841        751.841        751.841        4.2498932e+08  1.4926119     -45341449      -45341449       1276.1697     -45340173      -2488.911      -2475.3519     -2515.2543     -2.9801905      0.59331694     7.5653311      16368.207    
     56000   429.20746      0.028          0.25426698     0.25281031     0.25670636    -2512.6528      752.20686      752.20686      752.20686      4.2561005e+08  1.490435      -45319461      -45319461       1278.1065     -45318182      -2509.42       -2495.0438     -2533.4947     -4.0097449      0.55615375     7.9830626      16373.176    
     57000   429.93311      0.0285         0.25621425     0.25470111     0.25852524    -2531.2628      752.57272      752.57272      752.57272      4.2623138e+08  1.4882624     -45297283      -45297283       1280.2674     -45296003      -2528.638      -2513.7046     -2551.4457     -4.308412       0.43367092     8.4530447      16412.347    
     58000   430.80348      0.029          0.25799343     0.2564051      0.26041705    -2548.9451      752.93858      752.93858      752.93858      4.2685331e+08  1.486094      -45274925      -45274925       1282.8592     -45273643      -2546.1972     -2530.5216     -2570.1165     -3.9383585      0.54914953     8.0149093      16345.514    
     59000   431.48382      0.0295         0.25961664     0.25795467     0.26219922    -2565.2456      753.30444      753.30444      753.30444      4.2747585e+08  1.4839298     -45252400      -45252400       1284.8851     -45251115      -2562.217      -2545.8147     -2587.7051     -3.8992157      0.82034132     7.0234438      16374.739    
     60000   432.02844      0.03           0.26117588     0.25954182     0.26378712    -2580.8202      753.6703       753.6703       753.6703       4.2809899e+08  1.4817697     -45229712      -45229712       1286.5069     -45228425      -2577.6056     -2561.4786     -2603.3765     -3.8143103      1.1206532      6.6833547      16408.021    
     61000   432.46301      0.0305         0.26281365     0.26125701     0.26531181    -2596.8664      754.03616      754.03616      754.03616      4.2872274e+08  1.4796139     -45206859      -45206859       1287.801      -45205571      -2593.769      -2578.4063     -2618.4239     -3.481869       1.1386556      6.9294741      16386.374    
     62000   432.71812      0.031          0.26442511     0.26286932     0.26674085    -2612.173       754.40202      754.40202      754.40202      4.2934709e+08  1.4774623     -45183845      -45183845       1288.5607     -45182556      -2609.6729     -2594.3185     -2632.5275     -3.8497301      1.2637078      7.1630598      16388.967    
     63000   432.97881      0.0315         0.26589602     0.26419119     0.26791137    -2625.2112      754.76788      754.76788      754.76788      4.2997205e+08  1.4753148     -45160684      -45160684       1289.337      -45159395      -2624.1897     -2607.3643     -2644.0796     -5.1840111      1.6987777      7.1771219      16411.906    
     64000   433.28575      0.032          0.26720189     0.26533299     0.26908395    -2637.1209      755.13374      755.13374      755.13374      4.3059762e+08  1.4731715     -45137388      -45137388       1290.251      -45136097      -2637.0776     -2618.633      -2655.6521     -6.3859934      1.7526117      6.5931335      16371.703    
     65000   433.45519      0.0325         0.26830014     0.26652526     0.27040108    -2648.9892      755.4996       755.4996       755.4996       4.3122379e+08  1.4710323     -45113955      -45113955       1290.7556     -45112664      -2647.9165     -2630.3998     -2668.6512     -5.9496593      1.2084439      5.5726491      16421.855    
     66000   433.96121      0.033          0.26943294     0.26778063     0.27174463    -2661.2656      755.86546      755.86546      755.86546      4.3185057e+08  1.4688973     -45090388      -45090388       1292.2624     -45089096      -2659.0963     -2642.7894     -2681.911      -5.2019776      0.69254193     5.3825298      16392        
     67000   434.69296      0.0335         0.27070486     0.26903257     0.27303499    -2673.8134      756.23132      756.23132      756.23132      4.3247795e+08  1.4667664     -45066697      -45066697       1294.4414     -45065402      -2671.6493     -2655.1451     -2694.6459     -5.2774006      0.57189062     5.9829932      16378.012    
     68000   435.21174      0.034          0.27197393     0.27019331     0.27412885    -2685.4054      756.59717      756.59717      756.59717      4.3310595e+08  1.4646396     -45042885      -45042885       1295.9862     -45041589      -2684.174      -2666.6006     -2705.4414     -5.666672       0.77266083     6.3673646      16397.002    
     69000   435.38187      0.0345         0.27309273     0.27119548     0.27495545    -2695.1021      756.96303      756.96303      756.96303      4.3373455e+08  1.462517      -45018960      -45018960       1296.4929     -45017663      -2695.2157     -2676.4913     -2713.5993     -5.9828317      1.009675       5.6603623      16429.916    
     70000   435.48423      0.035          0.27392977     0.27200505     0.27559916    -2702.6367      757.32889      757.32889      757.32889      4.3436375e+08  1.4603984     -44994927      -44994927       1296.7977     -44993630      -2703.4766     -2684.4811     -2719.9523     -5.6985677      1.3562517      4.4541777      16406.666    
     71000   435.39273      0.0355         0.27462622     0.27269299     0.27636564    -2709.7125      757.69475      757.69475      757.69475      4.3499357e+08  1.4582839     -44970794      -44970794       1296.5252     -44969498      -2710.35       -2691.2706     -2727.5168     -5.3507029      2.0080046      3.6651946      16423.566    
     72000   434.78762      0.036          0.27539652     0.27336032     0.27723871    -2717.3141      758.06061      758.06061      758.06061      4.35624e+08    1.4561735     -44946565      -44946565       1294.7233     -44945270      -2717.9523     -2697.8566     -2736.1333     -5.3059049      1.8403257      3.5395852      16405.522    
     73000   434.40629      0.0365         0.2760865      0.27403941     0.27789959    -2723.9921      758.42647      758.42647      758.42647      4.3625503e+08  1.4540672     -44922252      -44922252       1293.5877     -44920959      -2724.7619     -2704.5587     -2742.6558     -5.4880915      1.1380671      3.7254234      16394.595    
     74000   434.60129      0.037          0.27670703     0.27472074     0.27839767    -2729.9135      758.79233      758.79233      758.79233      4.3688667e+08  1.4519649     -44897870      -44897870       1294.1684     -44896575      -2730.886      -2711.2829     -2747.5714     -5.9170562      0.78811474     4.6328137      16441.657    
     75000   434.86412      0.0375         0.27732572     0.27529148     0.278778      -2735.0776      759.15819      759.15819      759.15819      4.3751893e+08  1.4498667     -44873419      -44873419       1294.9511     -44872124      -2736.992      -2716.9157     -2751.325      -6.0838015      0.92778948     5.0883091      16367.835    
     76000   434.88456      0.038          0.27787158     0.27568725     0.27909457    -2739.2167      759.52405      759.52405      759.52405      4.3815179e+08  1.4477725     -44848900      -44848900       1295.012      -44847605      -2742.3793     -2720.8216     -2754.4493     -5.6546647      1.7647391      4.3974601      16438.454    
     77000   434.74195      0.0385         0.27832124     0.27611295     0.2794026     -2743.1097      759.88991      759.88991      759.88991      4.3878526e+08  1.4456824     -44824318      -44824318       1294.5873     -44823023      -2746.817      -2725.023      -2757.4892     -5.0671418      2.3964328      3.6661333      16405.24     
     78000   434.28671      0.039          0.2787733      0.27663612     0.27979604    -2747.6124      760.25577      760.25577      760.25577      4.3941934e+08  1.4435963     -44799675      -44799675       1293.2317     -44798382      -2751.2786     -2730.1862     -2761.3722     -4.8766775      2.1955647      3.5559045      16422.339    
     79000   433.50132      0.0395         0.27912047     0.27701238     0.28016663    -2751.2114      760.62163      760.62163      760.62163      4.4005404e+08  1.4415142     -44774967      -44774967       1290.8929     -44773676      -2754.7049     -2733.8996     -2765.0296     -5.0960051      1.8502135      3.4857428      16221.932    
     80000   433.04812      0.04           0.27922648     0.27712168     0.2802624     -2752.2348      760.98749      760.98749      760.98749      4.4068934e+08  1.4394361     -44750211      -44750211       1289.5433     -44748922      -2755.7511     -2734.9783     -2765.9749     -5.400222       2.0602545      3.7292534      16365.033    
     81000   432.99132      0.0405         0.27930028     0.27716149     0.28020569    -2752.4219      761.35335      761.35335      761.35335      4.4132526e+08  1.437362      -44725431      -44725431       1289.3742     -44724141      -2756.4795     -2735.3712     -2765.4151     -5.1241765      2.5636104      3.1146426      16340.833    
     82000   432.5161       0.041          0.27948315     0.27734194     0.2802549     -2753.7791      761.71921      761.71921      761.71921      4.4196178e+08  1.4352918     -44700613      -44700613       1287.9591     -44699325      -2758.2843     -2737.1521     -2765.9008     -4.5762132      2.7436684      2.0167326      16429.085    
     83000   431.36528      0.0415         0.27973874     0.27749758     0.28037675    -2755.5327      762.08507      762.08507      762.08507      4.4259892e+08  1.4332257     -44675752      -44675752       1284.5321     -44674467      -2760.8067     -2738.6882     -2767.1034     -4.5384414      2.4656821      2.0684816      16395.971    
     84000   430.30054      0.042          0.27981466     0.27740804     0.28024541    -2755.0559      762.45092      762.45092      762.45092      4.4323667e+08  1.4311635     -44650866      -44650866       1281.3615     -44649585      -2761.556      -2737.8045     -2765.8071     -4.8484032      1.7976697      3.0150126      16331.949    
     85000   429.75138      0.0425         0.27952221     0.27711327     0.2797674     -2751.5516      762.81678      762.81678      762.81678      4.4387504e+08  1.4291052     -44625980      -44625980       1279.7262     -44624701      -2758.6698     -2734.8954     -2761.0895     -5.4726117      1.1070261      3.4229587      16422.988    
     86000   429.58152      0.043          0.27913866     0.27675809     0.27924703    -2747.4094      763.18264      763.18264      763.18264      4.4451401e+08  1.4270509     -44601101      -44601101       1279.2204     -44599821      -2754.8844     -2731.3899     -2755.9539     -5.7236943      0.56538138     3.0336347      16408.817    
     87000   429.24636      0.0435         0.27894112     0.27646153     0.27891843    -2744.703       763.5485       763.5485       763.5485       4.451536e+08   1.4250006     -44576215      -44576215       1278.2224     -44574937      -2752.9348     -2728.4632     -2752.7109     -5.1490782      1.0587105      2.6047487      16433.711    
     88000   428.44685      0.044          0.27887214     0.27621537     0.27881586    -2743.3288      763.91436      763.91436      763.91436      4.457938e+08   1.4229541     -44551321      -44551321       1275.8416     -44550045      -2752.254      -2726.0337     -2751.6985     -4.2256194      2.0726352      2.4032459      16385.879    
     89000   427.37014      0.0445         0.27871396     0.27596648     0.278719      -2741.671       764.28022      764.28022      764.28022      4.4643462e+08  1.4209116     -44526428      -44526428       1272.6353     -44525155      -2750.693      -2723.5774     -2750.7426     -4.2260335      2.8311489      1.6039421      16419.156    
     90000   426.29123      0.045          0.27819885     0.27571248     0.27826301    -2737.6408      764.64608      764.64608      764.64608      4.4707605e+08  1.418873      -44501543      -44501543       1269.4225     -44500273      -2745.6092     -2721.0707     -2746.2424     -4.8068588      2.9413935      0.47993144     16365.35     
     91000   425.33018      0.0455         0.27745657     0.27530869     0.27738735    -2730.9898      765.01194      765.01194      765.01194      4.4771809e+08  1.4168383     -44476677      -44476677       1266.5606     -44475410      -2738.2835     -2717.0856     -2737.6003     -4.7953432      2.026607       0.32431107     16401.95     
     92000   424.14273      0.046          0.27675702     0.27471511     0.27655108    -2723.9846      765.3778       765.3778       765.3778       4.4836075e+08  1.4148075     -44451837      -44451837       1263.0246     -44450574      -2731.3794     -2711.2273     -2729.347      -4.0050007      1.0199582      0.49717484     16390.988    
     93000   422.72886      0.0465         0.27613359     0.27384377     0.27588049    -2716.8611      765.74366      765.74366      765.74366      4.4900402e+08  1.4127805     -44427036      -44427036       1258.8144     -44425777      -2725.2267     -2702.6279     -2722.7288     -3.3723831      0.62100526     0.072783222    16426.833    
     94000   421.55839      0.047          0.27548345     0.27287051     0.27509027    -2708.9209      766.10952      766.10952      766.10952      4.4964791e+08  1.4107575     -44402282      -44402282       1255.3289     -44401026      -2718.8103     -2693.0225     -2714.9299     -3.7997995      1.0171872     -0.61096262     16423.588    
     95000   420.74887      0.0475         0.27481869     0.27212397     0.27417054    -2701.2524      766.47538      766.47538      766.47538      4.5029241e+08  1.4087382     -44377574      -44377574       1252.9183     -44376321      -2712.2496     -2685.6548     -2705.8529     -4.4157974      2.0745177     -1.6114337      16399.102    
     96000   420.04469      0.048          0.27416991     0.2716938      0.27329837    -2694.8337      766.84124      766.84124      766.84124      4.5093753e+08  1.4067229     -44352908      -44352908       1250.8214     -44351657      -2705.8467     -2681.4093     -2697.2452     -4.1930452      2.7122183     -2.3955003      16419.64     
     97000   419.12947      0.0485         0.2734889      0.27128667     0.27247434    -2688.5432      767.2071       767.2071       767.2071       4.5158326e+08  1.4047114     -44328278      -44328278       1248.096      -44327030      -2699.1256     -2677.3912     -2689.1126     -3.4603037      2.4040818     -2.4975694      16411.196    
     98000   418.06515      0.049          0.27266009     0.27059907     0.27162903    -2680.7737      767.57296      767.57296      767.57296      4.5222961e+08  1.4027037     -44303688      -44303688       1244.9266     -44302443      -2690.9458     -2670.6051     -2680.7701     -2.6797599      1.7617368     -2.8762228      16334.685    
     99000   416.97074      0.0495         0.27171945     0.26956191     0.27081446    -2671.5876      767.93882      767.93882      767.93882      4.5287658e+08  1.4006998     -44279147      -44279147       1241.6677     -44277906      -2681.6625     -2660.3692     -2672.7309     -2.0127458      1.837514      -3.9758895      16385.723    
    100000   415.80473      0.05           0.27072343     0.26837802     0.26992236    -2661.4814      768.30467      768.30467      768.30467      4.5352416e+08  1.3986998     -44254671      -44254671       1238.1955     -44253433      -2671.8325     -2648.6852     -2663.9266     -1.7024043      2.5598803     -4.5386426      15829.284    
    101000   414.76858      0.0505         0.26965347     0.2673082      0.26870802    -2650.4472      768.67053      768.67053      768.67053      4.5417236e+08  1.3967035     -44230267      -44230267       1235.11       -44229032      -2661.2728     -2638.1268     -2651.942      -1.8696583      2.4511616     -4.9360103      16330.438    
    102000   413.85904      0.051          0.26851225     0.26643883     0.26732549    -2639.2847      769.03639      769.03639      769.03639      4.5482118e+08  1.3947111     -44205939      -44205939       1232.4016     -44204707      -2650.0098     -2629.5468     -2638.2975     -2.5098178      1.3365173     -5.2768279      16360.086    
    103000   412.83336      0.0515         0.2673425      0.2655006      0.26604158    -2628.1263      769.40225      769.40225      769.40225      4.5547061e+08  1.3927224     -44181696      -44181696       1229.3473     -44180467      -2638.4653     -2620.2872     -2625.6263     -3.2688009      0.62678346    -5.227328       16372.712    
    104000   411.72732      0.052          0.2661469      0.26427999     0.26482512    -2616.1757      769.76811      769.76811      769.76811      4.5612067e+08  1.3907375     -44157538      -44157538       1226.0536     -44156312      -2626.6657     -2608.2407     -2613.6207     -3.4173765      0.85303729    -5.2149829      16399.801    
    105000   410.47668      0.0525         0.26503019     0.26302939     0.26362825    -2604.4505      770.13397      770.13397      770.13397      4.5677134e+08  1.3887564     -44133461      -44133461       1222.3295     -44132238      -2615.6446     -2595.8983     -2601.8086     -2.9434086      1.4890194     -6.0975937      16320.127    
    106000   409.08085      0.053          0.26390638     0.26190378     0.26233954    -2592.8109      770.49983      770.49983      770.49983      4.5742263e+08  1.3867791     -44109465      -44109465       1218.1729     -44108247      -2604.5534     -2584.7893     -2589.0899     -1.8407674      2.0781385     -7.4696424      16400.41     
    107000   407.92109      0.0535         0.2626859      0.26075253     0.26098796    -2580.5622      770.86569      770.86569      770.86569      4.5807453e+08  1.3848055     -44085556      -44085556       1214.7194     -44084341      -2592.5083     -2573.4273     -2575.7509     -0.82010383     2.0020868     -8.1413857      16409.092    
    108000   407.03211      0.054          0.26141984     0.25947335     0.25969365    -2567.931       771.23155      771.23155      771.23155      4.5872706e+08  1.3828356     -44061738      -44061738       1212.0721     -44060526      -2580.0132     -2560.8028     -2562.977      -0.17468876     1.5229893     -8.0068581      16374.359    
    109000   405.9741       0.0545         0.26011335     0.25813908     0.25852182    -2555.3886      771.59741      771.59741      771.59741      4.5938021e+08  1.3808695     -44038012      -44038012       1208.9216     -44036803      -2567.1191     -2547.6346     -2551.412       0.21228661     1.0420077     -7.6313886      16286.2      
    110000   404.72694      0.055          0.25877115     0.25679063     0.25725852    -2542.3811      771.96327      771.96327      771.96327      4.6003398e+08  1.3789071     -44014385      -44014385       1205.2077     -44013180      -2553.8727     -2534.3265     -2538.9442      0.025315654    1.0779503     -7.5440577      16411.633    
    111000   403.30805      0.0555         0.25738439     0.25542289     0.2557464     -2528.345       772.32913      772.32913      772.32913      4.6068836e+08  1.3769485     -43990864      -43990864       1200.9825     -43989663      -2540.1864     -2520.8279     -2524.0207     -0.44388349     1.0184356     -8.148517       16363.401    
    112000   401.74682      0.056          0.25591273     0.25398485     0.25413836    -2513.4828      772.69499      772.69499      772.69499      4.6134337e+08  1.3749935     -43967452      -43967452       1196.3334     -43966256      -2525.6623     -2506.6356     -2508.1506     -0.62656943     0.38650252    -9.2342283      16364.073    
    113000   400.39541      0.0565         0.25438935     0.25258924     0.25271674    -2499.2033      773.06085      773.06085      773.06085      4.61999e+08    1.3730422     -43944150      -43944150       1192.3092     -43942957      -2510.6277     -2492.8619     -2494.1203      0.076411842    0.39125592    -10.18458       16373.151    
    114000   399.32556      0.057          0.25291701     0.25128572     0.25135216    -2485.5823      773.42671      773.42671      773.42671      4.6265525e+08  1.3710947     -43920949      -43920949       1189.1233     -43919760      -2496.0968     -2479.9972     -2480.653       1.4281088      1.0429769     -10.582112      16365.98     
    115000   398.26576      0.0575         0.25152657     0.24995707     0.24980328    -2471.5418      773.79257      773.79257      773.79257      4.6331212e+08  1.3691508     -43897847      -43897847       1185.9674     -43896661      -2482.3743     -2466.8845     -2465.3667      2.3831997      0.86174637    -10.584122      16419.137    
    116000   396.97342      0.058          0.25014028     0.24848579     0.24821521    -2456.9168      774.15842      774.15842      774.15842      4.6396961e+08  1.3672105     -43874861      -43874861       1182.1191     -43873679      -2468.6926     -2452.3641     -2449.6936      2.5873835     -0.17828913    -10.708835      16363.587    
    117000   395.34481      0.0585         0.24858716     0.2469912      0.24671391    -2441.9517      774.52428      774.52428      774.52428      4.6462772e+08  1.365274      -43851998      -43851998       1177.2693     -43850821      -2453.3645     -2437.6136     -2434.877       2.6398655     -1.0025055     -10.73135       16408.323    
    118000   393.93542      0.059          0.24688062     0.24551756     0.24524805    -2426.6674      774.89014      774.89014      774.89014      4.6528645e+08  1.3633411     -43829256      -43829256       1173.0724     -43828082      -2436.5222     -2423.07       -2420.4101      3.0948252     -1.2657363     -10.721187      16345.037    
    119000   392.82016      0.0595         0.24526108     0.24393144     0.24380956    -2411.3894      775.256        775.256        775.256        4.6594581e+08  1.3614118     -43806633      -43806633       1169.7514     -43805463      -2420.5387     -2407.4161     -2406.2133      4.2281205     -1.0145669     -11.069758      16388.235    
    120000   391.49593      0.06           0.24366931     0.24220645     0.24224743    -2395.3391      775.62186      775.62186      775.62186      4.6660579e+08  1.3594862     -43784126      -43784126       1165.808      -43782961      -2404.8291     -2390.3918     -2390.7963      5.4275628     -0.60717596    -12.272766      16369.941    
    121000   389.91666      0.0605         0.24204412     0.24053694     0.24054491    -2378.8995      775.98772      775.98772      775.98772      4.6726639e+08  1.3575642     -43761744      -43761744       1161.1052     -43760583      -2388.7897     -2373.915      -2373.9937      5.7155375     -0.64012588    -13.635425      16334.18     
    122000   388.37137      0.061          0.24039172     0.23905198     0.23885191    -2363.0088      776.35358      776.35358      776.35358      4.6792762e+08  1.3556458     -43739494      -43739494       1156.5036     -43738338      -2372.4819     -2359.2596     -2357.285       5.7039075     -1.312269      -14.030037      16358.763    
    123000   387.02366      0.0615         0.23874429     0.23758695     0.23722961    -2347.4327      776.71944      776.71944      776.71944      4.6858947e+08  1.3537311     -43717369      -43717369       1152.4904     -43716217      -2356.223      -2344.8009     -2341.2743      6.7572796     -1.7782297     -13.305118      16420.638    
    124000   385.72196      0.062          0.23709072     0.2359326      0.23566998    -2331.4197      777.0853       777.0853       777.0853       4.6925194e+08  1.3518199     -43695373      -43695373       1148.6141     -43694224      -2339.9034     -2328.4737     -2325.8818      8.3658091     -1.6551238     -12.610124      16400.4      
    125000   384.58018      0.0625         0.23536408     0.23416795     0.23415841    -2314.9615      777.45116      777.45116      777.45116      4.6991504e+08  1.3499124     -43673506      -43673506       1145.2141     -43672361      -2322.8628     -2311.058      -2310.9638      8.7477684     -1.2881258     -12.88184       16402.823    
    126000   383.77081      0.063          0.23364532     0.23257368     0.23260581    -2298.9549      777.81702      777.81702      777.81702      4.7057876e+08  1.3480084     -43651777      -43651777       1142.8039     -43650634      -2305.9        -2295.3238     -2295.6408      7.838132      -1.7156465     -13.463376      16366.255    
    127000   382.99303      0.0635         0.23199882     0.23109118     0.23096044    -2283.2484      778.18288      778.18288      778.18288      4.7124311e+08  1.346108      -43630181      -43630181       1140.4879     -43629041      -2289.6503     -2280.6926     -2279.4023      7.4378096     -2.7132227     -13.839257      16379.602    
    128000   381.82417      0.064          0.23036155     0.22954816     0.22936374    -2267.5333      778.54874      778.54874      778.54874      4.7190808e+08  1.3442112     -43608711      -43608711       1137.0072     -43607574      -2273.4917     -2265.4642     -2263.6441      8.0645041     -2.8729917     -13.915554      16357.353    
    129000   380.28023      0.0645         0.22872415     0.22797268     0.2278591     -2252.0139      778.9146       778.9146       778.9146       4.7257368e+08  1.342318      -43587360      -43587360       1132.4096     -43586228      -2257.3318     -2249.9154     -2248.7945      8.5592746     -1.9501611     -14.026716      16374.51     
    130000   378.57723      0.065          0.22713493     0.2264585      0.22631706    -2236.7316      779.28046      779.28046      779.28046      4.732399e+08   1.3404283     -43566130      -43566130       1127.3384     -43565002      -2241.6475     -2234.9717     -2233.5757      8.8646617     -0.99894019    -14.269152      16314.749    
    131000   377.1216       0.0655         0.22553516     0.22490687     0.22468134    -2220.9832      779.64631      779.64631      779.64631      4.7390675e+08  1.3385421     -43545026      -43545026       1123.0037     -43543903      -2225.859      -2219.6582     -2217.4324      9.5690362     -0.92866142    -14.655195      16289.162    
    132000   376.00867      0.066          0.22390385     0.22331708     0.22308075    -2205.1211      780.01217      780.01217      780.01217      4.7457422e+08  1.3366595     -43524056      -43524056       1119.6896     -43522936      -2209.7592     -2203.9682     -2201.6358      10.64992      -1.8234263     -15.081868      16347.742    
    133000   374.95103      0.0665         0.22228617     0.22173135     0.2215249     -2189.4643      780.37803      780.37803      780.37803      4.7524232e+08  1.3347804     -43503220      -43503220       1116.5401     -43502103      -2193.7939     -2188.3183     -2186.2808      10.943118     -2.6913164     -15.312454      16365.891    
    134000   373.5596       0.067          0.2207382      0.22024154     0.21996125    -2174.3268      780.74389      780.74389      780.74389      4.7591105e+08  1.3329048     -43482505      -43482505       1112.3967     -43481392      -2178.5166     -2173.615      -2170.8488      9.8634625     -2.7609127     -15.616351      16335.346    
    135000   371.95892      0.0675         0.21924515     0.21877317     0.21840542    -2159.4662      781.10975      781.10975      781.10975      4.765804e+08   1.3310328     -43461903      -43461903       1107.6301     -43460795      -2163.7814     -2159.1233     -2155.4939      8.7293616     -2.3218505     -15.452874      16255.519    
    136000   370.64208      0.068          0.21768765     0.21728579     0.21691924    -2144.5602      781.47561      781.47561      781.47561      4.7725039e+08  1.3291642     -43441420      -43441420       1103.7088     -43440316      -2148.4101     -2144.444      -2140.8265      9.0124246     -1.7177005     -15.083216      16389.137    
    137000   369.69754      0.0685         0.21609881     0.21584232     0.2154553     -2129.7687      781.84147      781.84147      781.84147      4.7792099e+08  1.3272992     -43421065      -43421065       1100.8961     -43419964      -2132.7294     -2130.1981     -2126.3785      10.550104     -1.0527723     -15.377441      16349.679    
    138000   368.7933       0.069          0.21457834     0.21443452     0.21403764    -2115.4716      782.20733      782.20733      782.20733      4.7859223e+08  1.3254376     -43400832      -43400832       1098.2035     -43399734      -2117.7235     -2116.3041     -2112.3873      10.911008     -0.94710467    -15.586733      16366.894    
    139000   367.73684      0.0695         0.2131939      0.21302427     0.21257413    -2101.4633      782.57319      782.57319      782.57319      4.792641e+08   1.3235795     -43380710      -43380710       1095.0575     -43379615      -2104.0602     -2102.3861     -2097.9435      9.439782      -1.0101281     -15.174776      16403.752    
    140000   366.60023      0.07           0.21189254     0.21158085     0.21105897    -2087.4492      782.93905      782.93905      782.93905      4.7993659e+08  1.3217249     -43360700      -43360700       1091.6729     -43359609      -2091.2168     -2088.1406     -2082.9901      8.1424306     -0.80611367    -15.135858      16407.543    
    141000   365.28322      0.0705         0.21046063     0.21014957     0.20959319    -2073.2079      783.30491      783.30491      783.30491      4.8060971e+08  1.3198737     -43340806      -43340806       1087.7511     -43339718      -2077.0849     -2074.015      -2068.524       8.4946632     -0.74631969    -15.271168      16425.828    
    142000   363.73901      0.071          0.20888003     0.2087712      0.20817525    -2058.8091      783.67077      783.67077      783.67077      4.8128347e+08  1.318026      -43321025      -43321025       1083.1527     -43319942      -2061.4856     -2060.4116     -2054.53        9.2327156     -1.0110343     -15.37372       16393.355    
    143000   362.2743       0.0715         0.2073746      0.20741952     0.20674887    -2044.7175      784.03663      784.03663      784.03663      4.8195785e+08  1.3161818     -43301365      -43301365       1078.791      -43300286      -2046.6281     -2047.0715     -2040.4527      8.7557921     -1.2633164     -15.151028      16332.669    
    144000   361.05224      0.072          0.20601552     0.20604977     0.20526975    -2030.8744      784.40249      784.40249      784.40249      4.8263286e+08  1.314341      -43281821      -43281821       1075.1519     -43280745      -2033.2151     -2033.5531     -2025.8549      6.9077337     -1.4799829     -14.884783      16351.318    
    145000   360.09065      0.0725         0.20472749     0.20471833     0.20383575    -2017.5395      784.76835      784.76835      784.76835      4.833085e+08   1.3125036     -43262380      -43262380       1072.2885     -43261308      -2020.5032     -2020.4128     -2011.7025      5.4421547     -1.7549394     -14.635643      16379.34     
    146000   359.3803       0.073          0.20346065     0.20336647     0.20254595    -2004.6816      785.13421      785.13421      785.13421      4.8398477e+08  1.3106696     -43243040      -43243040       1070.1732     -43241970      -2008.0005     -2007.071      -1998.9731      5.7841542     -1.6375728     -14.447962      16348.938    
    147000   358.62723      0.0735         0.20216694     0.20206185     0.2013833     -1992.3089      785.50006      785.50006      785.50006      4.8466167e+08  1.3088391     -43223803      -43223803       1067.9307     -43222735      -1995.2326     -1994.1954     -1987.4987      6.7654        -1.0848304     -14.299241      16326.191    
    148000   357.61365      0.074          0.20079212     0.2007998      0.20013428    -1979.5253      785.86592      785.86592      785.86592      4.853392e+08   1.3070119     -43204680      -43204680       1064.9124     -43203615      -1981.6641     -1981.74       -1975.1717      6.500153      -0.060473504   -13.868019      16363.626    
    149000   356.49015      0.0745         0.19934255     0.19942965     0.19875266    -1965.704       786.23178      786.23178      786.23178      4.8601737e+08  1.3051882     -43185666      -43185666       1061.5668     -43184605      -1967.358      -1968.2177     -1961.5362      4.8887814      0.6781728     -13.223577      16411.517    
    150000   355.42447      0.075          0.1979194      0.19801037     0.19738961    -1951.869       786.59764      786.59764      786.59764      4.8669616e+08  1.3033679     -43166758      -43166758       1058.3934     -43165700      -1953.3126     -1954.2105     -1948.084       3.73695        0.20511809    -12.77068       12612.365    
    151000   354.50628      0.0755         0.1966168      0.19665702     0.1961541     -1939.0671      786.9635       786.9635       786.9635       4.8737559e+08  1.3015509     -43147955      -43147955       1055.6592     -43146899      -1940.4569     -1940.8539     -1935.8904      4.3270323     -0.91038175    -12.68279       16380.964    
    152000   353.55038      0.076          0.19549639     0.19550153     0.19500529    -1927.8007      787.32936      787.32936      787.32936      4.8805565e+08  1.2997373     -43129250      -43129250       1052.8127     -43128197      -1929.3994     -1929.4501     -1924.5526      5.5741227     -1.6404885     -12.551464      16349.538    
    153000   352.36515      0.0765         0.19448014     0.19448119     0.19386174    -1917.3388      787.69522      787.69522      787.69522      4.8873634e+08  1.2979271     -43110635      -43110635       1049.2832     -43109585      -1919.3697     -1919.3801     -1913.2666      5.4057998     -1.5456394     -12.358484      16359.054    
    154000   351.14582      0.077          0.19333864     0.19336616     0.19270808    -1906.1202      788.06108      788.06108      788.06108      4.8941766e+08  1.2961202     -43092108      -43092108       1045.6523     -43091063      -1908.1041     -1908.3756     -1901.8809      3.6791266     -0.79736575    -12.184256      16410.982    
    155000   350.16582      0.0775         0.19205377     0.19218411     0.1915052     -1894.0475      788.42694      788.42694      788.42694      4.9009962e+08  1.2943167     -43073676      -43073676       1042.734      -43072633      -1895.4233     -1896.7097     -1890.0094      2.0368746     -0.047600915   -12.285584      16373.612    
    156000   349.37228      0.078          0.19080277     0.19106469     0.19026577    -1882.172       788.7928       788.7928       788.7928       4.9078221e+08  1.2925166     -43055336      -43055336       1040.371      -43054296      -1883.0769     -1885.6619     -1877.7771      1.6148102      0.44052015    -12.377173      16343.4      
    157000   348.50154      0.0785         0.18971886     0.18992567     0.18909206    -1870.9979      789.15866      789.15866      789.15866      4.9146543e+08  1.2907197     -43037089      -43037089       1037.7781     -43036051      -1872.3795     -1874.4207     -1866.1936      2.1128457      1.0868316     -11.959607      16407.749    
    158000   347.55637      0.079          0.18875519     0.18876106     0.18796272    -1860.2812      789.52452      789.52452      789.52452      4.9214929e+08  1.2889262     -43018930      -43018930       1034.9635     -43017895      -1862.8689     -1862.9268     -1855.0478      2.2401233      1.7965119     -10.874166      16358.601    
    159000   346.67184      0.0795         0.18776941     0.18769659     0.18698577    -1850.3225      789.89038      789.89038      789.89038      4.9283378e+08  1.2871361     -43000853      -43000853       1032.3296     -42999821      -1853.14       -1852.4213     -1845.4061      1.9581621      1.6980932     -10.072015      16329.266    
    160000   346.04993      0.08           0.18666211     0.18677674     0.18611181    -1840.7785      790.25624      790.25624      790.25624      4.9351891e+08  1.2853492     -42982859      -42982859       1030.4776     -42981828      -1842.2118     -1843.3431     -1836.7808      2.3097474      0.70397868    -9.7620325      16395.657    
    161000   345.61195      0.0805         0.18552795     0.18584973     0.18514713    -1830.8243      790.6221       790.6221       790.6221       4.9420467e+08  1.2835656     -42964942      -42964942       1029.1734     -42963912      -1831.0185     -1834.1942     -1827.2601      2.8437141     -0.12345698    -9.3830075      16277.25     
    162000   344.96064      0.081          0.18459232     0.18490101     0.18414694    -1821.3349      790.98796      790.98796      790.98796      4.9489106e+08  1.2817854     -42947099      -42947099       1027.2339     -42946072      -1821.7846     -1824.8311     -1817.389       2.8035246     -0.21316062    -9.6300186      16362.048    
    163000   343.82816      0.0815         0.18379232     0.18392997     0.18321917    -1812.4565      791.35381      791.35381      791.35381      4.9557809e+08  1.2800084     -42929330      -42929330       1023.8616     -42928306      -1813.8892     -1815.2477     -1808.2326      2.0965062      0.51700031    -10.270962      16386.854    
    164000   342.60572      0.082          0.18292957     0.18293464     0.18227371    -1803.2335      791.71967      791.71967      791.71967      4.9626576e+08  1.2782347     -42911628      -42911628       1020.2213     -42910608      -1805.3744     -1805.4245     -1798.9016      1.1207074      1.5188409     -10.159863      16346.457    
    165000   341.56819      0.0825         0.18193422     0.18193931     0.18132349    -1793.5588      792.08553      792.08553      792.08553      4.9695406e+08  1.2764643     -42893996      -42893996       1017.1318     -42892979      -1795.5512     -1795.6014     -1789.5237      0.26381516     1.8956235     -9.8412678      16416.055    
    166000   340.77292      0.083          0.18089838     0.18100401     0.18035769    -1783.8969      792.45139      792.45139      792.45139      4.97643e+08    1.2746972     -42876440      -42876440       1014.7636     -42875425      -1785.3282     -1786.3707     -1779.992       0.02374057     1.7889308     -9.5393054      16367.426    
    167000   340.14696      0.0835         0.17997593     0.18017188     0.17940571    -1774.9931      792.81725      792.81725      792.81725      4.9833257e+08  1.2729333     -42858956      -42858956       1012.8996     -42857943      -1776.2243     -1778.1582     -1770.5967      0.0050291276   1.1663301     -9.0197663      16382.272    
    168000   339.72672      0.084          0.17919422     0.17938801     0.17857061    -1767.0954      793.18311      793.18311      793.18311      4.9902279e+08  1.2711727     -42841535      -42841535       1011.6481     -42840523      -1768.5094     -1770.422      -1762.3549      0.32183768     0.71589223    -8.2032354      16407.115    
    169000   339.38774      0.0845         0.17843166     0.17860341     0.17783281    -1759.5785      793.54897      793.54897      793.54897      4.9971363e+08  1.2694153     -42824180      -42824180       1010.6387     -42823169      -1760.9835     -1762.6786     -1755.0733      0.90943986     1.0327135     -8.0372404      16345.458    
    170000   338.7583       0.085          0.17760551     0.17782789     0.17713749    -1752.022       793.91483      793.91483      793.91483      5.0040512e+08  1.2676612     -42806887      -42806887       1008.7644     -42805878      -1752.8301     -1755.0248     -1748.2111      1.4991102      1.6098468     -8.1607206      16377.285    
    171000   337.91395      0.0855         0.17678202     0.17700001     0.17643156    -1744.2671      794.28069      794.28069      794.28069      5.0109724e+08  1.2659102     -42789649      -42789649       1006.25       -42788643      -1744.7029     -1746.8543     -1741.2441      1.6670868      1.6862297     -7.7399567      16410.073    
    172000   337.08505      0.086          0.17600358     0.17617249     0.17569639    -1736.5654      794.64655      794.64655      794.64655      5.0179e+08     1.2641626     -42772461      -42772461       1003.7817     -42771457      -1737.0203     -1738.6873     -1733.9885      1.3942525      1.4822324     -7.6103643      16381.469    
    173000   336.38142      0.0865         0.17531162     0.17541434     0.17488456    -1729.1242      795.01241      795.01241      795.01241      5.024834e+08   1.2624181     -42755321      -42755321       1001.6864     -42754319      -1730.1912     -1731.2049     -1725.9764      0.97472992     1.1619947     -7.8191055      16407.509    
    174000   335.82833      0.087          0.17468181     0.17468341     0.17398476    -1721.6876      795.37827      795.37827      795.37827      5.0317744e+08  1.2606768     -42738237      -42738237       1000.0394     -42737237      -1723.9754     -1723.9912     -1717.0961      0.68320392     1.2361214     -8.2390641      16392.258    
    175000   335.40859      0.0875         0.173961       0.17388702     0.17316833    -1714.0105      795.74413      795.74413      795.74413      5.0387212e+08  1.2589388     -42721218      -42721218       998.78951     -42720220      -1716.8616     -1716.1314     -1709.0385      0.7598411      2.0660269     -8.5849242      16437.547    
    176000   334.97295      0.088          0.17313811     0.17309123     0.17251095    -1706.5229      796.10999      796.10999      796.10999      5.0456743e+08  1.2572039     -42704265      -42704265       997.49224     -42703268      -1708.7403     -1708.2776     -1702.5507      0.72476298     2.8275972     -8.3386236      16390.864    
    177000   334.26519      0.0885         0.17240349     0.17248118     0.17196483    -1700.3026      796.47585      796.47585      796.47585      5.0526339e+08  1.2554722     -42687365      -42687365       995.38465     -42686369      -1701.4901     -1702.2568     -1697.161       0.41233046     2.4330144     -7.4901355      16425.26     
    178000   333.33931      0.089          0.17178043     0.17192024     0.17141989    -1694.6149      796.84171      796.84171      796.84171      5.0595998e+08  1.2537437     -42670500      -42670500       992.62754     -42669507      -1695.341      -1696.7208     -1691.7828      0.57846283     1.4822431     -6.5785912      16340.982    
    179000   332.70587      0.0895         0.17117753     0.17121827     0.17079542    -1688.2679      797.20756      797.20756      797.20756      5.0665722e+08  1.2520184     -42653674      -42653674       990.74128     -42652683      -1689.3909     -1689.793      -1685.6197      1.2878932      1.1601269     -6.2231166      16389.536    
    180000   332.43187      0.09           0.17048064     0.17044803     0.17014342    -1681.2965      797.57342      797.57342      797.57342      5.0735509e+08  1.2502962     -42636897      -42636897       989.92534     -42635907      -1682.5131     -1682.1913     -1679.185       1.618151       1.7404185     -6.8239775      16384.554    
    181000   332.19321      0.0905         0.16983261     0.16977641     0.16958176    -1675.1074      797.93928      797.93928      797.93928      5.0805361e+08  1.2485772     -42620168      -42620168       989.21464     -42619178      -1676.1175     -1675.5629     -1673.6418      1.0512072      2.092805      -7.6438278      16411.371    
    182000   331.89074      0.091          0.1693601      0.16923281     0.16905754    -1670.0401      798.30514      798.30514      798.30514      5.0875276e+08  1.2468613     -42603479      -42603479       988.31394     -42602490      -1671.4542     -1670.1979     -1668.4682      0.29379912     1.180719      -7.7281369      16374.671    
    183000   331.60048      0.0915         0.16899238     0.16867946     0.1683894     -1664.8121      798.671        798.671        798.671        5.0945256e+08  1.2451486     -42586828      -42586828       987.44959     -42585841      -1667.8251     -1664.7369     -1661.8742      0.65049657     0.27704046    -7.5964367      16347.698    
    184000   331.19316      0.092          0.16848281     0.16801249     0.1676157     -1658.3962      799.03686      799.03686      799.03686      5.10153e+08    1.243439      -42570224      -42570224       986.23668     -42569238      -1662.796      -1658.1543     -1654.2383      1.4458773      0.43320328    -8.1194719      16369.382    
    185000   330.59514      0.0925         0.1676887      0.16738815     0.16693518    -1651.4912      799.40272      799.40272      799.40272      5.1085408e+08  1.2417325     -42553669      -42553669       984.45589     -42552685      -1654.9588     -1651.9926     -1647.5222      1.6059736      1.5414156     -8.5792448      16428.119    
    186000   330.13292      0.093          0.16684962     0.16689212     0.16639256    -1645.3139      799.76858      799.76858      799.76858      5.115558e+08   1.2400292     -42537158      -42537158       983.07945     -42536175      -1646.6777     -1647.0972     -1642.1669      1.1752728      2.5062283     -7.7746173      16381.255    
    187000   330.0795       0.0935         0.16626307     0.16649326     0.16592983    -1640.5499      800.13444      800.13444      800.13444      5.1225817e+08  1.238329      -42520679      -42520679       982.9204      -42519696      -1640.8889     -1643.1607     -1637.6001      0.85349828     2.5459691     -6.3465286      16404.198    
    188000   330.02181      0.094          0.16585287     0.1660614      0.16556855    -1636.5912      800.5003       800.5003       800.5003       5.1296117e+08  1.2366319     -42504229      -42504229       982.7486      -42503246      -1636.8405     -1638.8986     -1634.0346      0.93004482     1.81336       -5.559697       16312.404    
    189000   329.71046      0.0945         0.16535201     0.16543857     0.16513226    -1631.4593      800.86616      800.86616      800.86616      5.1366483e+08  1.2349378     -42487815      -42487815       981.82146     -42486833      -1631.8974     -1632.7517     -1629.7287      1.3300077      0.92030073    -5.7994471      16408.128    
    190000   329.18855      0.095          0.16478196     0.16468433     0.16453777    -1625.147       801.23202      801.23202      801.23202      5.1436912e+08  1.2332469     -42471450      -42471450       980.26729     -42470469      -1626.2715     -1625.308      -1623.8615      1.604098       0.5355775     -6.0725758      16379.511    
    191000   328.58682      0.0955         0.16428783     0.16406679     0.16393731    -1619.5145      801.59788      801.59788      801.59788      5.1507406e+08  1.2315591     -42455123      -42455123       978.47545     -42454145      -1621.3948     -1619.2133     -1617.9354      1.6166636      0.76426236    -6.3592556      16413.546    
    192000   328.20252      0.096          0.16385035     0.16361773     0.16340618    -1614.8508      801.96374      801.96374      801.96374      5.1577964e+08  1.2298743     -42438820      -42438820       977.33107     -42437843      -1617.0772     -1614.7814     -1612.6936      1.351707       0.89315524    -6.7113473      16383.605    
    193000   328.33279      0.0965         0.16344395     0.16320095     0.16288411    -1610.4252      802.3296       802.3296       802.3296       5.1648586e+08  1.2281926     -42422547      -42422547       977.71897     -42421569      -1613.0664     -1610.6681     -1607.5412      1.3620475      0.47711841    -6.6972147      16431.287    
    194000   328.36438      0.097          0.16305894     0.16278733     0.1623983     -1606.1997      802.69546      802.69546      802.69546      5.1719273e+08  1.226514      -42406310      -42406310       977.81306     -42405332      -1609.2666     -1606.586      -1602.7466      1.7468728     -0.12474421    -6.6226514      16420.347    
    195000   327.86923      0.0975         0.16260774     0.16230858     0.16198249    -1601.7725      803.06131      803.06131      803.06131      5.1790024e+08  1.2248385     -42390104      -42390104       976.33857     -42389127      -1604.8136     -1601.8611     -1598.6428      1.839129      -0.031091499   -6.6253989      16378.288    
    196000   327.66681      0.098          0.16199431     0.16169412     0.16144518    -1595.9655      803.42717      803.42717      803.42717      5.186084e+08   1.2231659     -42373939      -42373939       975.7358      -42372963      -1598.7595     -1595.7969     -1593.34        1.6617025      1.3464725     -6.5111246      16421.03     
    197000   327.91188      0.0985         0.16133791     0.16111157     0.16087275    -1590.0065      803.79303      803.79303      803.79303      5.1931721e+08  1.2214965     -42357817      -42357817       976.46558     -42356841      -1592.2814     -1590.0476     -1587.6906      1.6622999      3.1123116     -6.5314241      16380.667    
    198000   327.6709       0.099          0.16075822     0.16070182     0.16042566    -1585.2807      804.15889      804.15889      804.15889      5.2002666e+08  1.21983       -42341729      -42341729       975.74799     -42340753      -1586.5603     -1586.0037     -1583.2781      1.507963       3.496501      -6.4875818      16362.598    
    199000   326.9053       0.0995         0.1603392      0.16037259     0.16002642    -1581.5058      804.52475      804.52475      804.52475      5.2073675e+08  1.2181666     -42325658      -42325658       973.46817     -42324684      -1582.4249     -1582.7544     -1579.338       1.1134657      2.3199155     -6.3195177      16393.886    
    200000   326.43099      0.1            0.16002519     0.15992897     0.1596206     -1577.6783      804.89061      804.89061      804.89061      5.2144749e+08  1.2165062     -42309613      -42309613       972.05575     -42308641      -1579.3259     -1578.3762     -1575.3329      1.0839099      0.83646364    -5.8330148      16008.856    
    201000   326.70292      0.1005         0.15968756     0.1594022      0.15921768    -1573.5092      805.25647      805.25647      805.25647      5.2215888e+08  1.2148489     -42293605      -42293605       972.8655      -42292632      -1575.9937     -1573.1774     -1571.3563      1.3762044     -0.15580807    -5.2748727      16344.836    
    202000   327.07048      0.101          0.15933998     0.15896348     0.15878807    -1569.5091      805.62233      805.62233      805.62233      5.2287092e+08  1.2131945     -42277629      -42277629       973.96003     -42276655      -1572.5633     -1568.8475     -1567.1164      1.6298273     -0.2032676     -5.6010373      16355.383    
    203000   326.88042      0.1015         0.15897511     0.1586061      0.15832489    -1565.6094      805.98819      805.98819      805.98819      5.235836e+08   1.2115432     -42261672      -42261672       973.39408     -42260698      -1568.9623     -1565.3205     -1562.5452      1.7809823      0.51251892    -6.2402157      16319.696    
    204000   326.37389      0.102          0.15853156     0.15821574     0.15789103    -1561.4387      806.35405      806.35405      806.35405      5.2429693e+08  1.2098948     -42245732      -42245732       971.88571     -42244760      -1564.5848     -1561.4679     -1558.2633      1.8743887      0.92836867    -6.4683151      16370.352    
    205000   326.17577      0.1025         0.15796545     0.15772765     0.15738713    -1556.313       806.71991      806.71991      806.71991      5.250109e+08   1.2082494     -42229821      -42229821       971.29574     -42228850      -1558.9978     -1556.6509     -1553.2902      2.0338109      0.73073641    -6.3326998      16378.773    
    206000   326.39994      0.103          0.15735347     0.15725097     0.15685556    -1550.9828      807.08577      807.08577      807.08577      5.2572553e+08  1.2066071     -42213955      -42213955       971.9633      -42212983      -1552.958      -1551.9464     -1548.044       1.8887942      0.92730931    -6.1997927      16400.195    
    207000   326.60908      0.1035         0.15686259     0.15674468     0.15641311    -1546.2468      807.45163      807.45163      807.45163      5.264408e+08   1.2049676     -42198136      -42198136       972.58606     -42197163      -1548.1134     -1546.9497     -1543.6773      1.6633311      1.7290473     -6.1336348      16348.223    
    208000   326.39415      0.104          0.15654539     0.15623357     0.15609184    -1542.465       807.81749      807.81749      807.81749      5.2715672e+08  1.2033312     -42182346      -42182346       971.94604     -42181374      -1544.9829     -1541.9054     -1540.5067      1.5177422      2.0870267     -5.8346555      16395.079    
    209000   326.01714      0.1045         0.15619471     0.15580381     0.15575752    -1538.7977      808.18335      808.18335      808.18335      5.2787329e+08  1.2016977     -42166574      -42166574       970.82337     -42165603      -1541.5219     -1537.664      -1537.2072      1.4751704      1.7506763     -5.6936597      16322.331    
    210000   325.89132      0.105          0.15574502     0.15549492     0.15534088    -1534.9316      808.54921      808.54921      808.54921      5.2859051e+08  1.2000672     -42150818      -42150818       970.44869     -42149847      -1537.0838     -1534.6156     -1533.0953      1.5265057      1.4586099     -5.8599162      16318.936    
    211000   325.9643       0.1055         0.1553148      0.15519438     0.15490642    -1531.0982      808.91506      808.91506      808.91506      5.2930838e+08  1.1984396     -42135083      -42135083       970.66602     -42134112      -1532.8379     -1531.6494     -1528.8075      1.4387654      1.5213261     -5.8207451      16404.317    
    212000   325.97701      0.106          0.15494574     0.15484704     0.1544456     -1527.2255      809.28092      809.28092      809.28092      5.300269e+08   1.196815      -42119378      -42119378       970.70388     -42118407      -1529.1955     -1528.2215     -1524.2595      1.4254787      1.400897      -5.5414498      16318.692    
    213000   325.80661      0.1065         0.15457447     0.1544522      0.15393202    -1523.0156      809.64678      809.64678      809.64678      5.3074607e+08  1.1951933     -42103707      -42103707       970.19644     -42102737      -1525.5314     -1524.3247     -1519.1909      1.508765       0.86890878    -5.2447039      16368.544    
    214000   325.49866      0.107          0.15409203     0.15396346     0.15351113    -1518.4361      810.01264      810.01264      810.01264      5.3146588e+08  1.1935745     -42088068      -42088068       969.27943     -42087099      -1520.7701     -1519.5012     -1515.037       1.6189296      0.55482187    -5.2813403      16393.169    
    215000   325.27729      0.1075         0.1535758      0.15345667     0.15324203    -1514.1854      810.3785       810.3785       810.3785       5.3218635e+08  1.1919587     -42072456      -42072456       968.62022     -42071488      -1515.6753     -1514.4996     -1512.3813      1.7823858      0.7527242     -5.402819       16219.202    
    216000   325.16266      0.108          0.15319151     0.1530353      0.15290173    -1510.4154      810.74436      810.74436      810.74436      5.3290747e+08  1.1903457     -42056870      -42056870       968.27888     -42055902      -1511.8827     -1510.3409     -1509.0228      2.2284878      1.4045078     -5.2553783      16402.301    
    217000   325.0817       0.1085         0.15292204     0.15272228     0.15246165    -1507.0515      811.11022      811.11022      811.11022      5.3362924e+08  1.1887357     -42041306      -42041306       968.03779     -42040338      -1509.2232     -1507.2517     -1504.6795      2.3736643      1.5139869     -5.4555526      16333.059    
[...]
   3208000   323.00738      1.604          0.012335507    0.012290145    0.012241528   -121.28359      1905.3956      1905.3956      1905.3956      6.9176004e+09  0.091700026   -12506066      -12506066       961.86082     -12505104      -121.74199     -121.2943      -120.81449     -0.087671054    0.10341454     0.19033264     15334.669    
   3209000   322.99516      1.6045         0.012325334    0.012281575    0.012232597   -121.19255      1905.7615      1905.7615      1905.7615      6.9215859e+09  0.091647224   -12499166      -12499166       961.82444     -12498204      -121.64159     -121.20972     -120.72635     -0.073445171    0.10421066     0.2059682      15307.263    
   3210000   322.99563      1.605          0.012315603    0.01227326     0.012222724   -121.1007       1906.1273      1906.1273      1906.1273      6.925573e+09   0.091594462   -12492268      -12492268       961.82583     -12491306      -121.54555     -121.12765     -120.6289      -0.070925786    0.11386677     0.21961162     15359.881    
   3211000   322.99007      1.6055         0.012305892    0.012265087    0.012215163   -121.017        1906.4932      1906.4932      1906.4932      6.9295616e+09  0.091541741   -12485373      -12485373       961.80928     -12484411      -121.44971     -121.047       -120.55428     -0.080854113    0.13506665     0.23029724     15336.45     
   3212000   322.95095      1.606          0.012297193    0.012256932    0.012208861   -120.94082      1906.859       1906.859       1906.859       6.9335518e+09  0.09148906    -12478480      -12478480       961.6928      -12477518      -121.36386     -120.96651     -120.49209     -0.091107929    0.1521879      0.23518941     15356.633    
   3213000   322.88717      1.6065         0.012289505    0.012248439    0.01220096    -120.8616       1907.2249      1907.2249      1907.2249      6.9375435e+09  0.091436419   -12471588      -12471588       961.50286     -12470626      -121.28799     -120.88269     -120.41411     -0.086891258    0.14968796     0.22417071     15317.03     
   3214000   322.85771      1.607          0.012280858    0.0122395      0.012190992   -120.77095      1907.5907      1907.5907      1907.5907      6.9415367e+09  0.091383819   -12464698      -12464698       961.41512     -12463737      -121.20265     -120.79447     -120.31574     -0.069853115    0.12960266     0.20701555     15309.287    
   3215000   322.8831       1.6075         0.012271808    0.012231332    0.012179766   -120.67738      1907.9566      1907.9566      1907.9566      6.9455314e+09  0.09133126    -12457812      -12457812       961.49072     -12456850      -121.11333     -120.71386     -120.20494     -0.053595833    0.10135317     0.20699007     15348.829    
   3216000   322.91788      1.608          0.012262926    0.012223928    0.012170058   -120.59186      1908.3225      1908.3225      1908.3225      6.9495277e+09  0.09127874    -12450928      -12450928       961.59432     -12449966      -121.02567     -120.64079     -120.10913     -0.054648678    0.076439897    0.22177682     15358.179    
   3217000   322.91675      1.6085         0.01225459     0.01221578     0.012162321   -120.51218      1908.6883      1908.6883      1908.6883      6.9535255e+09  0.091226261   -12444046      -12444046       961.59095     -12443084      -120.9434      -120.56037     -120.03277     -0.070188433    0.072641693    0.236926       15363.241    
   3218000   322.87492      1.609          0.012248245    0.012207062    0.012154729   -120.43765      1909.0542      1909.0542      1909.0542      6.9575249e+09  0.091173822   -12437165      -12437165       961.46638     -12436204      -120.88078     -120.47433     -119.95785     -0.084261641    0.082184239    0.24611276     15082.709    
   3219000   322.81782      1.6095         0.012244309    0.012198545    0.01214705    -120.37143      1909.42        1909.42        1909.42        6.9615257e+09  0.091121423   -12430286      -12430286       961.29633     -12429325      -120.84194     -120.39028     -119.88206     -0.085867653    0.091186585    0.2501032      15308.642    
   3220000   322.77902      1.61           0.012240011    0.012189698    0.012140139   -120.30545      1909.7859      1909.7859      1909.7859      6.9655281e+09  0.091069065   -12423408      -12423408       961.18082     -12422447      -120.79952     -120.30297     -119.81386     -0.07570398     0.096688586    0.24782343     15320.348    
   3221000   322.78157      1.6105         0.012232579    0.012180451    0.012133958   -120.23024      1910.1518      1910.1518      1910.1518      6.9695321e+09  0.091016746   -12416532      -12416532       961.18839     -12415570      -120.72617     -120.2117      -119.75285     -0.067713836    0.096752349    0.24431007     15281.189    
   3222000   322.83174      1.611          0.012221752    0.012171825    0.01212578    -120.13934      1910.5176      1910.5176      1910.5176      6.9735376e+09  0.090964468   -12409657      -12409657       961.33779     -12408696      -120.61931     -120.12657     -119.67215     -0.069251464    0.090860673    0.23746247     15290.195    
   3223000   322.91768      1.6115         0.012210628    0.012164261    0.01211568    -120.04464      1910.8835      1910.8835      1910.8835      6.9775446e+09  0.090912229   -12402786      -12402786       961.5937      -12401824      -120.50953     -120.05193     -119.57247     -0.066106801    0.088001956    0.22103551     15323.609    
   3224000   323.00957      1.612          0.012201396    0.012156295    0.012106074   -119.95646      1911.2493      1911.2493      1911.2493      6.9815531e+09  0.090860031   -12395918      -12395918       961.86734     -12394956      -120.41842     -119.97331     -119.47766     -0.060977305    0.090468459    0.1999854      15307.006    
   3225000   323.08225      1.6125         0.012192334    0.012147339    0.012098367   -119.87183      1911.6152      1911.6152      1911.6152      6.9855632e+09  0.090807873   -12389052      -12389052       962.08378     -12388090      -120.32899     -119.88491     -119.4016      -0.061292904    0.096373113    0.18743318     15343.04     
   3226000   323.12085      1.613          0.012182645    0.012139667    0.012092203   -119.79444      1911.9811      1911.9811      1911.9811      6.9895748e+09  0.090755754   -12382188      -12382188       962.1987      -12381226      -120.23336     -119.8092      -119.34077     -0.058891469    0.10641464     0.18481        15325.941    
   3227000   323.11079      1.6135         0.012174237    0.012135095    0.012085988   -119.73129      1912.3469      1912.3469      1912.3469      6.993588e+09   0.090703675   -12375326      -12375326       962.16876     -12374364      -120.15038     -119.76407     -119.27943     -0.050716927    0.10900618     0.19571791     15320.715    
   3228000   323.05157      1.614          0.012166056    0.012130842    0.012078051   -119.66428      1912.7128      1912.7128      1912.7128      6.9976027e+09  0.090651637   -12368464      -12368464       961.99242     -12367502      -120.06964     -119.7221      -119.2011      -0.040367567    0.097095191    0.21726395     15336.996    
   3229000   322.96939      1.6145         0.012156901    0.012123035    0.012066662   -119.57101      1913.0786      1913.0786      1913.0786      7.0016189e+09  0.090599638   -12361604      -12361604       961.74768     -12360642      -119.97929     -119.64505     -119.08869     -0.036696309    0.083614513    0.23399773     15302.529    
   3230000   322.89012      1.615          0.012147655    0.01211121     0.012054121   -119.46043      1913.4445      1913.4445      1913.4445      7.0056367e+09  0.090547678   -12354748      -12354748       961.51164     -12353786      -119.88804     -119.52835     -118.96492     -0.046652954    0.08058131     0.23868793     15305.239    
   3231000   322.83029      1.6155         0.012138859    0.012097687    0.012043119   -119.35082      1913.8104      1913.8104      1913.8104      7.009656e+09   0.090495759   -12347895      -12347895       961.33348     -12346933      -119.80122     -119.39489     -118.85635     -0.064633847    0.08304371     0.23358899     15308.559    
   3232000   322.80613      1.616          0.012130738    0.012085968    0.012034256   -119.25639      1914.1762      1914.1762      1914.1762      7.0136768e+09  0.090443879   -12341045      -12341045       961.26153     -12340084      -119.72108     -119.27923     -118.76887     -0.074728863    0.082126107    0.21996313     15299.884    
   3233000   322.81791      1.6165         0.012122828    0.012076711    0.012026479   -119.17433      1914.5421      1914.5421      1914.5421      7.0176992e+09  0.090392039   -12334198      -12334198       961.2966      -12333237      -119.64301     -119.18787     -118.69212     -0.067627323    0.085958765    0.19754993     15316.767    
   3234000   322.8539       1.617          0.012114809    0.012069404    0.012018461   -119.09754      1914.9079      1914.9079      1914.9079      7.0217231e+09  0.090340238   -12327354      -12327354       961.40378     -12326392      -119.56387     -119.11576     -118.61299     -0.051620049    0.098636451    0.17630973     15297.824    
   3235000   322.90621      1.6175         0.012105976    0.012063178    0.012010501   -119.02181      1915.2738      1915.2738      1915.2738      7.0257485e+09  0.090288477   -12320511      -12320511       961.55955     -12319549      -119.47669     -119.05431     -118.53443     -0.037410969    0.10894587     0.16298083     15311.702    
   3236000   322.97312      1.618          0.012097016    0.012056737    0.012004675   -118.95198      1915.6397      1915.6397      1915.6397      7.0297755e+09  0.090236756   -12313670      -12313670       961.75879     -12312708      -119.38827     -118.99075     -118.47693     -0.037457828    0.11702965     0.1650153      15312.495    
   3237000   323.02454      1.6185         0.012090005    0.012050496    0.012001194   -118.89693      1916.0055      1916.0055      1916.0055      7.033804e+09   0.090185074   -12306830      -12306830       961.91193     -12305868      -119.31907     -118.92915     -118.44257     -0.054448641    0.12300495     0.18438666     15316.188    
   3238000   323.02676      1.619          0.012084571    0.012045251    0.011996117   -118.8451       1916.3714      1916.3714      1916.3714      7.0378341e+09  0.090133431   -12299990      -12299990       961.91853     -12299028      -119.26544     -118.87738     -118.39247     -0.070262013    0.11984279     0.21588138     15298.081    
   3239000   322.99126      1.6195         0.012077756    0.012039265    0.011986749   -118.77217      1916.7372      1916.7372      1916.7372      7.0418657e+09  0.090081828   -12293151      -12293151       961.81283     -12292189      -119.19819     -118.81831     -118.30001     -0.072707064    0.1149581      0.23776928     15306.015    
   3240000   322.96469      1.62           0.012067996    0.012030088    0.0119755     -118.67286      1917.1031      1917.1031      1917.1031      7.0458988e+09  0.090030264   -12286314      -12286314       961.7337      -12285352      -119.10186     -118.72774     -118.189       -0.071336236    0.1123872      0.23316792     15310.748    
   3241000   322.97967      1.6205         0.012057707    0.012018659    0.011966451   -118.57165      1917.469       1917.469       1917.469       7.0499335e+09  0.08997874    -12279481      -12279481       961.77831     -12278519      -119.00031     -118.61494     -118.09969     -0.074626514    0.10723338     0.2156366      15307.57     
   3242000   323.02066      1.621          0.012049884    0.012006699    0.011959467   -118.48359      1917.8348      1917.8348      1917.8348      7.0539697e+09  0.089927255   -12272651      -12272651       961.90036     -12271689      -118.92311     -118.49691     -118.03077     -0.076540047    0.10315765     0.19886099     15304.108    
   3243000   323.06504      1.6215         0.012043761    0.011994236    0.011951254   -118.39543      1918.2007      1918.2007      1918.2007      7.0580075e+09  0.089875809   -12265823      -12265823       962.03252     -12264861      -118.86268     -118.37391     -117.94971     -0.07971114     0.094646754    0.19567463     15289.265    
   3244000   323.09804      1.622          0.012036371    0.011983135    0.011941022   -118.30094      1918.5665      1918.5665      1918.5665      7.0620468e+09  0.089824402   -12258999      -12258999       962.1308      -12258037      -118.78974     -118.26435     -117.84872     -0.085398503    0.081337976    0.20684287     15284.412    
   3245000   323.09746      1.6225         0.012027048    0.011974851    0.011930816   -118.20944      1918.9324      1918.9324      1918.9324      7.0660876e+09  0.089773035   -12252177      -12252177       962.12905     -12251215      -118.69774     -118.18259     -117.748       -0.087786414    0.078891861    0.22107891     15308.971    
   3246000   323.04014      1.623          0.012017375    0.011968635    0.01192131    -118.1259       1919.2982      1919.2982      1919.2982      7.07013e+09    0.089721707   -12245357      -12245357       961.95839     -12244396      -118.60227     -118.12124     -117.65419     -0.078397635    0.093062099    0.23210338     15283.453    
   3247000   322.94106      1.6235         0.012006357    0.011961819    0.011910934   -118.03309      1919.6641      1919.6641      1919.6641      7.074174e+09   0.089670418   -12238540      -12238540       961.66333     -12237578      -118.49353     -118.05397     -117.55178     -0.056028458    0.11469095     0.24048231     15150.695    
   3248000   322.85992      1.624          0.011994908    0.011953711    0.011900854   -117.9356       1920.03        1920.03        1920.03        7.0782194e+09  0.089619168   -12231726      -12231726       961.42171     -12230764      -118.38054     -117.97396     -117.45229     -0.036972019    0.13244452     0.2383756      15282.319    
   3249000   322.82953      1.6245         0.011984574    0.011944992    0.011892381   -117.84504      1920.3958      1920.3958      1920.3958      7.0822664e+09  0.089567957   -12224914      -12224914       961.33121     -12223953      -118.27855     -117.8879      -117.36868     -0.032431281    0.13537817     0.22457553     15289.792    
   3250000   322.8382       1.625          0.011974318    0.011936275    0.01188491    -117.75805      1920.7617      1920.7617      1920.7617      7.086315e+09   0.089516785   -12218105      -12218105       961.35702     -12217144      -118.17733     -117.80188     -117.29495     -0.037080276    0.12389243     0.21447887     14855.941    
   3251000   322.85999      1.6255         0.011964868    0.011928452    0.011878184   -117.6791       1921.1275      1921.1275      1921.1275      7.0903651e+09  0.089465652   -12211299      -12211299       961.42193     -12210337      -118.08406     -117.72467     -117.22856     -0.036094485    0.10977721     0.21443783     15373.462    
   3252000   322.8885       1.626          0.011958008    0.011920749    0.011872477   -117.61241      1921.4934      1921.4934      1921.4934      7.0944167e+09  0.089414558   -12204494      -12204494       961.50683     -12203533      -118.01636     -117.64864     -117.17224     -0.036726288    0.10266085     0.20990045     15317.417    
   3253000   322.91998      1.6265         0.011953921    0.011914033    0.011868052   -117.56232      1921.8593      1921.8593      1921.8593      7.0984699e+09  0.089363503   -12197690      -12197690       961.60056     -12196729      -117.97603     -117.58237     -117.12857     -0.047161255    0.10043536     0.20007662     15301.173    
   3254000   322.95346      1.627          0.011950211    0.011907677    0.011863341   -117.5137       1922.2251      1922.2251      1922.2251      7.1025246e+09  0.089312486   -12190886      -12190886       961.70027     -12189925      -117.93941     -117.51963     -117.08207     -0.058753806    0.098918745    0.20051803     15309.442    
   3255000   322.98909      1.6275         0.011945457    0.01190052     0.011857132   -117.4541       1922.591       1922.591       1922.591       7.1065809e+09  0.089261509   -12184083      -12184083       961.80636     -12183121      -117.89249     -117.44901     -117.02079     -0.063547436    0.091910483    0.20272626     15284.316    
   3256000   323.01079      1.628          0.011938166    0.011891905    0.011847794   -117.37105      1922.9568      1922.9568      1922.9568      7.1106387e+09  0.08921057    -12177281      -12177281       961.87098     -12176319      -117.82053     -117.36398     -116.92863     -0.059179255    0.08645351     0.19855734     15266.769    
   3257000   323.0155       1.6285         0.011927922    0.011881436    0.011835482   -117.26241      1923.3227      1923.3227      1923.3227      7.1146981e+09  0.08915967    -12170483      -12170483       961.885       -12169521      -117.71944     -117.26066     -116.80713     -0.052155673    0.088831201    0.20386437     15302.497    
   3258000   323.01193      1.629          0.011916726    0.011870073    0.011823166   -117.14768      1923.6886      1923.6886      1923.6886      7.118759e+09   0.089108809   -12163688      -12163688       961.87438     -12162726      -117.60894     -117.14851     -116.68557     -0.05564549     0.091634046    0.22017198     15291.541    
   3259000   323.00197      1.6295         0.011905699    0.01185967     0.011813324   -117.0448       1924.0544      1924.0544      1924.0544      7.1228214e+09  0.089057987   -12156898      -12156898       961.84471     -12155936      -117.50011     -117.04584     -116.58845     -0.072164016    0.099838933    0.23401732     15287.19     
   3260000   322.98342      1.63           0.01189551     0.011851997    0.011805432   -116.96008      1924.4203      1924.4203      1924.4203      7.1268854e+09  0.089007203   -12150110      -12150110       961.78947     -12149148      -117.39955     -116.97012     -116.51056     -0.085138136    0.11891157     0.23322904     15302.929    
   3261000   322.96958      1.6305         0.011887171    0.011846566    0.011798969   -116.89351      1924.7861      1924.7861      1924.7861      7.1309509e+09  0.088956458   -12143325      -12143325       961.74827     -12142363      -117.31725     -116.91651     -116.44677     -0.084695556    0.13227884     0.22298811     15316.955    
   3262000   322.95955      1.631          0.011881306    0.01184105     0.011793927   -116.83949      1925.152       1925.152       1925.152       7.135018e+09   0.088905751   -12136540      -12136540       961.71839     -12135578      -117.25938     -116.86207     -116.39701     -0.073878876    0.12530377     0.21256759     15320.061    
   3263000   322.94578      1.6315         0.011874684    0.01183252     0.011787894   -116.76979      1925.5179      1925.5179      1925.5179      7.1390866e+09  0.088855083   -12129755      -12129755       961.6774      -12128793      -117.19402     -116.7779      -116.33747     -0.063021287    0.10543035     0.21787679     15310.372    
   3264000   322.9498       1.632          0.01186489     0.011822117    0.011778738   -116.67323      1925.8837      1925.8837      1925.8837      7.1431568e+09  0.088804453   -12122973      -12122973       961.68936     -12122011      -117.09736     -116.67523     -116.2471      -0.061165972    0.083764461    0.23538261     15312.789    
   3265000   322.97663      1.6325         0.011854159    0.011812868    0.011767849   -116.57168      1926.2496      1926.2496      1926.2496      7.1472285e+09  0.088753862   -12116195      -12116195       961.76925     -12115233      -116.99146     -116.58394     -116.13964     -0.061944255    0.073813303    0.24891447     15323.464    
   3266000   322.99351      1.633          0.011844882    0.011805984    0.011756544   -116.48132      1926.6154     