LAMMPS (23 Jun 2022 - Update 1)
OMP_NUM_THREADS environment is not set. Defaulting to 1 thread. (src/comm.cpp:98)
  using 1 OpenMP thread(s) per MPI task
###

# Read restart info
read_restart ${read_res}
read_restart ./trial10/0100/equpmf70.res
Reading restart file ...
  restart file = 23 Jun 2022, LAMMPS = 23 Jun 2022
  restoring atom style atomic from restart
  orthogonal box = (1613.9668 1613.9668 1613.9668) to (2386.0332 2386.0332 2386.0332)
  1 by 2 by 2 MPI processor grid
  restoring pair style table from restart
  1000 atoms
  read_restart CPU = 0.047 seconds

# Settings
pair_style table/pgn spline 10941
pair_coeff 1 1 N20e.txt DE_GNP 308 72.9   # 1.35 * r
pair_coeff 2 2 N100e.txt DE_GNP 473.9 111.78
WARNING: 20 of 10941 force values in table DE_GNP are inconsistent with -dE/dr.
WARNING:  Should only be flagged at inflection points (src/pair_table_pgn.cpp:478)
pair_coeff 1 2 mixed_potentiale.txt DE_GNP 391.2 92.95
WARNING: 1564 of 10941 force values in table DE_GNP are inconsistent with -dE/dr.
WARNING:  Should only be flagged at inflection points (src/pair_table_pgn.cpp:478)

# Neighbor list
neighbor 2.0 bin
neigh_modify delay 0 every 1 check no once yes

# Temperature
variable T equal ${Temp}
variable T equal 300

# Deformation
reset_timestep 0
variable tmp equal "lx"
variable L0 equal ${tmp}
variable L0 equal 772.066356677099
variable strain equal "(lx - v_L0)/v_L0"
variable stp equal "step"
variable tmpe equal "temp"
variable p1 equal "v_strain"
variable p2 equal "-pxx*1.01325/10000"
variable p3 equal "-pyy*1.01325/10000"
variable p4 equal "-pzz*1.01325/10000"
variable p5 equal "lx"
variable p6 equal "ly"
variable p7 equal "lz"
variable p8 equal "press"
variable p9 equal "epair"
variable p10 equal "etotal"

# Thermo
thermo_style custom step temp v_p1 v_p2 v_p3 v_p4 press lx ly lz vol density epair pe ke etotal pxx pyy pzz pxy pxz pyz spcpu
thermo ${ts_save}
thermo 1000

# Dump
# dump 1 all custom 2000 ./${N20}${N100}/tensile/trajectory/trajectory_${usic}_${trial}_*.tensile.custom id type x y z ix iy iz
# dump_modify 1 sort id
dump 2 all cfg 50000 ./trial${trial}/${N20}${N100}/tensile/trajectory/dumpten.tens_${usic}_${trial}_*.cfg mass type xs ys zs fx fy fz
dump 2 all cfg 50000 ./trial10/${N20}${N100}/tensile/trajectory/dumpten.tens_${usic}_${trial}_*.cfg mass type xs ys zs fx fy fz
dump 2 all cfg 50000 ./trial10/0${N100}/tensile/trajectory/dumpten.tens_${usic}_${trial}_*.cfg mass type xs ys zs fx fy fz
dump 2 all cfg 50000 ./trial10/0100/tensile/trajectory/dumpten.tens_${usic}_${trial}_*.cfg mass type xs ys zs fx fy fz
dump 2 all cfg 50000 ./trial10/0100/tensile/trajectory/dumpten.tens_1_${trial}_*.cfg mass type xs ys zs fx fy fz
dump 2 all cfg 50000 ./trial10/0100/tensile/trajectory/dumpten.tens_1_10_*.cfg mass type xs ys zs fx fy fz
dump_modify 2 element N20 N100

fix 1 all nvt temp ${T} ${T} 100
fix 1 all nvt temp 300 ${T} 100
fix 1 all nvt temp 300 300 100
fix 2 all deform 1 x erate ${strain_rate} y erate ${strain_rate} z erate ${strain_rate} units box
fix 2 all deform 1 x erate 5e-6 y erate ${strain_rate} z erate ${strain_rate} units box
fix 2 all deform 1 x erate 5e-6 y erate 5e-6 z erate ${strain_rate} units box
fix 2 all deform 1 x erate 5e-6 y erate 5e-6 z erate 5e-6 units box
fix             def1 all print ${ts_save} "${p1} ${p2} ${p3} ${p4}" file ./tensile/${trial}/tensile${N20}${N100}_${usic}_${trial}.txt screen no
fix             def1 all print 1000 "${p1} ${p2} ${p3} ${p4}" file ./tensile/${trial}/tensile${N20}${N100}_${usic}_${trial}.txt screen no
fix             def1 all print 1000 "${p1} ${p2} ${p3} ${p4}" file ./tensile/10/tensile${N20}${N100}_${usic}_${trial}.txt screen no
fix             def1 all print 1000 "${p1} ${p2} ${p3} ${p4}" file ./tensile/10/tensile0${N100}_${usic}_${trial}.txt screen no
fix             def1 all print 1000 "${p1} ${p2} ${p3} ${p4}" file ./tensile/10/tensile0100_${usic}_${trial}.txt screen no
fix             def1 all print 1000 "${p1} ${p2} ${p3} ${p4}" file ./tensile/10/tensile0100_1_${trial}.txt screen no
fix             def1 all print 1000 "${p1} ${p2} ${p3} ${p4}" file ./tensile/10/tensile0100_1_10.txt screen no

timestep       		${ts}
timestep       		0.1
run				${steps_tensile}
run				6000000
Generated 0 of 1 mixed pair_coeff terms from geometric mixing rule
Unused restart file global fix info:
  fix style: npt, fix ID: 5
Neighbor list info ...
  update every 1 steps, delay 0 steps, check no
  max neighbors/atom: 2000, page size: 100000
  master list distance cutoff = 113.78
  ghost atom cutoff = 113.78
  binsize = 56.89, bins = 14 14 14
  1 neighbor lists, perpetual/occasional/extra = 1 0 0
  (1) pair table/pgn, perpetual
      attributes: half, newton on
      pair build: half/bin/atomonly/newton
      stencil: half/bin/3d
      bin: standard
Per MPI rank memory allocation (min/avg/max) = 3.84 | 3.84 | 3.84 Mbytes
   Step          Temp           v_p1           v_p2           v_p3           v_p4          Press            Lx             Ly             Lz           Volume        Density         E_pair         PotEng         KinEng         TotEng          Pxx            Pyy            Pzz            Pxy            Pxz            Pyz           S/CPU     
         0   306.20952     -4.4175026e-16 -0.0017496524  -0.002015244   -0.0085677378   40.571212      772.06636      772.06636      772.06636      4.602183e+08   1.5228254     -59215056      -59215056       911.83967     -59214144       17.267727      19.888912      84.556998      62.524013      69.022368      62.172204      0            
      1000   340.20407      0.0005         0.0064271766   0.0061147257  -0.0002451188  -40.453272      772.45239      772.45239      772.45239      4.6090897e+08  1.5205434     -59215219      -59215219       1013.0696     -59214206      -63.431301     -60.347651      2.4191345      61.325754      68.132804      61.91242       13329.449    
      2000   357.35426      0.001          0.014306759    0.013939831    0.0076937097  -118.23439      772.83842      772.83842      772.83842      4.6160034e+08  1.518266      -59214596      -59214596       1064.14       -59213531      -141.19673     -137.57543     -75.931011      59.948796      66.690595      61.096997      13439.21     
      3000   358.69004      0.0015         0.021911604    0.021516763    0.015288086   -193.16211      773.22446      773.22446      773.22446      4.6229239e+08  1.5159932     -59213209      -59213209       1068.1177     -59212141      -216.25072     -212.35394     -150.88167      58.654308      65.006288      59.992702      13449.523    
      4000   354.57871      0.002          0.029417864    0.02905794     0.022876805   -267.62927      773.61049      773.61049      773.61049      4.6298514e+08  1.5137249     -59211064      -59211064       1055.8749     -59210008      -290.33174     -286.77957     -225.77651      57.595777      63.693812      59.00979       13899.996    
      5000   349.44376      0.0025         0.036896533    0.036575653    0.030488837   -342.00517      773.99652      773.99652      773.99652      4.6367857e+08  1.5114611     -59208161      -59208161       1040.5838     -59207120      -364.14047     -360.97363     -300.90142      56.657767      62.830894      58.015469      14058.851    
      6000   345.37881      0.003          0.044251995    0.043929913    0.037894533   -414.75924      774.38256      774.38256      774.38256      4.643727e+08   1.5092018     -59204512      -59204512       1028.4791     -59203483      -436.73323     -433.55453     -373.98997      55.532743      62.027465      57.166648      14049.837    
      7000   343.11951      0.0035         0.051455638    0.051115779    0.04511095    -485.83721      774.76859      774.76859      774.76859      4.6506753e+08  1.506947      -59200138      -59200138       1021.7513     -59199117      -507.82766     -504.47351     -445.21047      54.437526      61.096243      56.400756      14029.01     
      8000   342.5136       0.004          0.058511012    0.05816798     0.052233764   -555.67976      775.15462      775.15462      775.15462      4.6576304e+08  1.5046967     -59195057      -59195057       1019.947      -59194037      -577.45879     -574.07332     -515.50717      53.365182      59.985992      55.464603      14037.91     
      9000   343.1136       0.0045         0.065372158    0.06504641     0.059168979   -623.69454      775.54066      775.54066      775.54066      4.6645925e+08  1.5024509     -59189276      -59189276       1021.7337     -59188254      -645.17304     -641.95815     -583.95242      52.287428      58.430188      54.480182      15087.54     
     10000   344.59777      0.005          0.0721028      0.07175338     0.065959207   -690.23895      775.92669      775.92669      775.92669      4.6715615e+08  1.5002095     -59182806      -59182806       1026.1533     -59181780      -711.59931     -708.1508      -650.96676      51.361476      56.71699       53.507494      15887.923    
     11000   346.70905      0.0055         0.078803609    0.078425016    0.072741396   -756.54255      776.31272      776.31272      776.31272      4.6785374e+08  1.4979726     -59175660      -59175660       1032.4404     -59174627      -777.73116     -773.99473     -717.90176      50.306665      55.667543      52.446713      15878.113    
     12000   349.1745       0.006          0.085410996    0.085083863    0.079470282   -822.32138      776.69875      776.69875      776.69875      4.6855203e+08  1.4957402     -59167848      -59167848       1039.782      -59166808      -842.941       -839.71244     -784.31071      48.884065      55.185073      51.331922      15689.472    
     13000   351.89081      0.0065         0.091775551    0.091496444    0.085993324   -885.81403      777.08479      777.08479      777.08479      4.6925102e+08  1.4935122     -59159386      -59159386       1047.8707     -59158338      -905.75427     -902.9997      -848.68812      47.384784      54.72932       50.023072      15754.164    
     14000   354.80021      0.007          0.09795109     0.097658773    0.092265999   -947.03795      777.47082      777.47082      777.47082      4.699507e+08   1.4912886     -59150290      -59150290       1056.5344     -59149233      -966.7021      -963.81715     -910.59461      46.151576      54.113154      48.884228      15869.354    
     15000   357.74923      0.0075         0.10405032     0.1037927      0.098391698   -1007.4339      777.85685      777.85685      777.85685      4.7065107e+08  1.4890694     -59140573      -59140573       1065.3161     -59139508      -1026.8968     -1024.3543     -971.05056      45.108165      52.983152      48.511317      15876.164    
     16000   360.68699      0.008          0.11013349     0.10987806     0.10450472    -1067.5755      778.24289      778.24289      778.24289      4.7135214e+08  1.4868546     -59130237      -59130237       1074.0643     -59129163      -1086.9331     -1084.4121     -1031.3814      44.29824       51.613781      48.205801      15875.395    
     17000   363.49824      0.0085         0.11620505     0.11584184     0.11063237    -1127.3271      778.62892      778.62892      778.62892      4.720539e+08   1.4846443     -59119287      -59119287       1082.4357     -59118205      -1146.8546     -1143.2701     -1091.8566      43.750872      50.572438      47.147365      15883.226    
     18000   366.0717       0.009          0.12212521     0.12164806     0.11658508    -1185.4868      779.01495      779.01495      779.01495      4.7275636e+08  1.4824382     -59107737      -59107737       1090.099      -59106647      -1205.2821     -1200.573      -1150.6053      43.036805      49.757559      45.882651      15856.416    
     19000   368.68817      0.0095         0.12779903     0.12728131     0.12229765    -1241.4771      779.40099      779.40099      779.40099      4.7345952e+08  1.4802366     -59095595      -59095595       1097.8904     -59094497      -1261.2784     -1256.1688     -1206.984       41.849606      48.95857       45.317201      15863.234    
     20000   371.41403      0.01           0.13331322     0.13285063     0.12789898    -1296.3659      779.78702      779.78702      779.78702      4.7416338e+08  1.4780393     -59082875      -59082875       1106.0075     -59081769      -1315.6992     -1311.1338     -1262.2648      40.294568      47.905386      44.995641      15883.868    
     21000   373.93785      0.0105         0.13873487     0.13833991     0.13340484    -1350.373       780.17305      780.17305      780.17305      4.7486793e+08  1.4758464     -59069600      -59069600       1113.5231     -59068486      -1369.2067     -1365.3088     -1316.6034      38.515695      46.652752      44.180503      15882.723    
     22000   376.24114      0.011          0.14407201     0.143627       0.13877445    -1402.9886      780.55909      780.55909      780.55909      4.7557318e+08  1.4736578     -59055780      -59055780       1120.3819     -59054660      -1421.8802     -1417.4883     -1369.5973      36.830842      45.737267      43.072989      15870.653    
     23000   378.47599      0.0115         0.14936704     0.14882931     0.14406021    -1454.911       780.94512      780.94512      780.94512      4.7627912e+08  1.4714735     -59041417      -59041417       1127.0369     -59040290      -1474.1381     -1468.8311     -1421.7638      36.108735      45.151312      42.206139      15853.512    
     24000   380.45582      0.012          0.15461092     0.15405671     0.14932561    -1506.6806      781.33115      781.33115      781.33115      4.7698577e+08  1.4692935     -59026511      -59026511       1132.9325     -59025378      -1525.8911     -1520.4216     -1473.7292      36.085         44.353771      41.700132      15868.459    
     25000   382.01705      0.0125         0.15963245     0.15912983     0.15447554    -1556.8314      781.71719      781.71719      781.71719      4.7769311e+08  1.4671179     -59011072      -59011072       1137.5815     -59009934      -1575.4498     -1570.4893     -1524.555       35.461566      43.185981      41.271612      15854.171    
     26000   383.49277      0.013          0.1644121      0.16398399     0.15947391    -1604.9675      782.10322      782.10322      782.10322      4.7840116e+08  1.4649465     -58995118      -58995118       1141.976      -58993976      -1622.6213     -1618.3961     -1573.8851      34.248925      42.053602      40.530815      15873.168    
     27000   385.23359      0.0135         0.16917262     0.16870997     0.16436838    -1652.2772      782.48925      782.48925      782.48925      4.791099e+08   1.4627794     -58978666      -58978666       1147.1598     -58977519      -1669.6039     -1665.0379     -1622.1898      33.037318      41.308907      39.731326      15871.557    
     28000   387.11586      0.014          0.17399365     0.17343498     0.16914916    -1699.4088      782.87529      782.87529      782.87529      4.7981934e+08  1.4606166     -58961718      -58961718       1152.7649     -58960565      -1717.1838     -1711.6702     -1669.3724      31.741653      40.489956      39.192309      15879.538    
     29000   388.82863      0.0145         0.17872571     0.17817158     0.17385491    -1746.039       783.26132      783.26132      783.26132      4.8052948e+08  1.4584581     -58944277      -58944277       1157.8653     -58943119      -1763.8857     -1758.4168     -1715.8145      30.406337      39.289596      38.734134      15886.979    
     30000   390.32412      0.015          0.18331233     0.18272233     0.17843709    -1791.1728      783.64735      783.64735      783.64735      4.8124032e+08  1.4563038     -58926357      -58926357       1162.3186     -58925194      -1809.152      -1803.3292     -1761.0372      29.435859      38.306538      38.319202      15872.464    
     31000   391.63105      0.0155         0.18774355     0.18699741     0.18286283    -1834.3738      784.03339      784.03339      784.03339      4.8195187e+08  1.4541537     -58907970      -58907970       1166.2104     -58906804      -1852.8848     -1845.5209     -1804.7158      28.458324      37.813478      37.511285      15892.593    
     32000   392.68266      0.016          0.19195878     0.19108461     0.1871407     -1875.7598      784.41942      784.41942      784.41942      4.8266411e+08  1.4520079     -58889126      -58889126       1169.3419     -58887957      -1894.4858     -1885.8585     -1846.9351      26.972898      37.101745      36.070977      15848.479    
     33000   393.59096      0.0165         0.19596432     0.19516657     0.19131106    -1916.085       784.80545      784.80545      784.80545      4.8337706e+08  1.4498663     -58869837      -58869837       1172.0467     -58868664      -1934.0175     -1926.1443     -1888.0933      25.855982      35.90614       34.871781      15865.934    
     34000   394.60308      0.017          0.19993964     0.19932954     0.19547776    -1956.5653      785.19148      785.19148      785.19148      4.840907e+08   1.4477289     -58850112      -58850112       1175.0606     -58848937      -1973.2508     -1967.2296     -1929.2155      25.370599      34.507126      34.718231      15862.395    
     35000   395.8873       0.0175         0.20398295     0.20345994     0.19958876    -1996.9789      785.57752      785.57752      785.57752      4.8480505e+08  1.4455957     -58829958      -58829958       1178.8848     -58828779      -2013.1552     -2007.9935     -1969.7879      24.79977       33.653244      35.203383      15869.776    
     36000   397.37423      0.018          0.20806032     0.20738253     0.20358196    -2036.4333      785.96355      785.96355      785.96355      4.8552011e+08  1.4434667     -58809374      -58809374       1183.3126     -58808191      -2053.3957     -2046.7065     -2009.1977      23.726028      33.621185      34.960195      15893.88     
     37000   398.8176       0.0185         0.21199781     0.21110405     0.20743432    -2074.3027      786.34958      786.34958      786.34958      4.8623586e+08  1.4413419     -58788379      -58788379       1187.6107     -58787191      -2092.2557     -2083.435      -2047.2175      22.334441      33.722494      33.809707      15897.639    
     38000   400.05216      0.019          0.21565353     0.21470332     0.21109397    -2110.2091      786.73562      786.73562      786.73562      4.8695232e+08  1.4392212     -58766995      -58766995       1191.287      -58765804      -2128.3348     -2118.9571     -2083.3355      21.173506      33.460729      32.67244       15894.278    
     39000   401.20618      0.0195         0.219123       0.21820731     0.21462543    -2144.7676      787.12165      787.12165      787.12165      4.8766948e+08  1.4371047     -58745226      -58745226       1194.7235     -58744032      -2162.5759     -2153.5387     -2118.1883      20.391428      32.675151      31.850719      15889.819    
     40000   402.35017      0.02           0.22262574     0.22167605     0.2181931     -2179.4387      787.50768      787.50768      787.50768      4.8838734e+08  1.4349924     -58723070      -58723070       1198.1301     -58721872      -2197.1452     -2187.7725     -2153.3985      19.631913      31.61202       31.268544      15885.775    
     41000   403.37189      0.0205         0.22612146     0.22509976     0.22171771    -2213.797       787.89372      787.89372      787.89372      4.8910591e+08  1.4328842     -58700536      -58700536       1201.1726     -58699335      -2231.6453     -2221.562      -2188.1837      18.774574      30.648458      30.647161      15891.547    
     42000   404.27182      0.021          0.22945523     0.22841724     0.22506873    -2246.7019      788.27975      788.27975      788.27975      4.8982518e+08  1.4307801     -58677636      -58677636       1203.8525     -58676432      -2264.5471     -2254.3029     -2221.2557      18.071608      29.846402      30.161914      15899.932    
     43000   405.16463      0.0215         0.23263118     0.23163124     0.22833522    -2278.4691      788.66578      788.66578      788.66578      4.9054516e+08  1.4286801     -58654383      -58654383       1206.5111     -58653177      -2295.8913     -2286.0226     -2253.4934      17.367557      29.265634      29.769169      15884.95     
     44000   406.20829      0.022          0.2356951      0.23467582     0.23156457    -2309.1882      789.05182      789.05182      789.05182      4.9126585e+08  1.4265842     -58630785      -58630785       1209.6189     -58629575      -2326.1297     -2316.0702     -2285.3646      16.296812      28.921329      28.968976      15877.441    
     45000   407.34504      0.0225         0.23870821     0.2376501      0.23470723    -2339.2238      789.43785      789.43785      789.43785      4.9198723e+08  1.4244925     -58606843      -58606843       1213.004      -58605630      -2355.8669     -2345.4241     -2316.3802      15.325335      28.532852      28.059473      15897.682    
     46000   408.35116      0.023          0.24168481     0.24063182     0.237743      -2368.812       789.82388      789.82388      789.82388      4.9270933e+08  1.4224048     -58582574      -58582574       1216          -58581358      -2385.2436     -2374.8515     -2346.341       14.690708      27.968013      27.476389      15875.259    
     47000   409.23503      0.0235         0.24455089     0.24350092     0.2405938     -2397.0577      790.20992      790.20992      790.20992      4.9343213e+08  1.4203212     -58557993      -58557993       1218.632      -58556774      -2413.5296     -2403.1673     -2374.4762      14.139686      27.573697      27.442889      15901.653    
     48000   410.18624      0.024          0.24730557     0.24616552     0.24332501    -2423.8707      790.59595      790.59595      790.59595      4.9415564e+08  1.4182417     -58533098      -58533098       1221.4646     -58531876      -2440.7162     -2429.4648     -2401.4311      13.327598      27.077393      27.348857      15881.316    
     49000   411.12814      0.0245         0.25004456     0.24877355     0.24608101    -2450.5276      790.98198      790.98198      790.98198      4.9487985e+08  1.4161662     -58507890      -58507890       1224.2694     -58506666      -2467.748      -2455.2041     -2428.6307      12.083264      26.028761      26.600368      15885.408    
     50000   411.8788       0.025          0.25269477     0.2514006      0.24879609    -2476.8203      791.36802      791.36802      791.36802      4.9560477e+08  1.4140948     -58482386      -58482386       1226.5047     -58481159      -2493.9035     -2481.131      -2455.4265      10.9659        24.77786       25.934104      15512.884    
     51000   412.52524      0.0255         0.25514494     0.2539456      0.2513661     -2501.7078      791.75405      791.75405      791.75405      4.963304e+08   1.4120274     -58456598      -58456598       1228.4297     -58455370      -2518.0848     -2506.2482     -2480.7905      10.389926      23.845652      25.471701      15853.33     
     52000   413.2771       0.026          0.25746429     0.25634857     0.25384372    -2525.3938      792.14008      792.14008      792.14008      4.9705674e+08  1.409964      -58430536      -58430536       1230.6686     -58429305      -2540.975      -2529.9637     -2505.2427      9.5499956      23.638603      24.804664      15873.78     
     53000   414.09929      0.0265         0.25976753     0.25864495     0.25627611    -2548.5273      792.52612      792.52612      792.52612      4.9778379e+08  1.4079047     -58404201      -58404201       1233.117      -58402967      -2563.7062     -2552.6272     -2529.2485      8.4238869      23.597832      24.125312      15440.507    
     54000   414.75904      0.027          0.26205412     0.26087332     0.2586375     -2571.1487      792.91215      792.91215      792.91215      4.9851154e+08  1.4058493     -58377598      -58377598       1235.0816     -58376363      -2586.2731     -2574.6195     -2552.5537      8.0018247      22.791275      23.507951      15878.534    
     55000   415.27711      0.0275         0.26419625     0.26302324     0.26086423    -2592.5938      793.29818      793.29818      793.29818      4.9924e+08     1.403798      -58350744      -58350744       1236.6243     -58349507      -2607.4143     -2595.8375     -2574.5297      8.3928613      21.407868      22.9052        15862.932    
     56000   415.78738      0.028          0.26620645     0.26507309     0.26291121    -2612.6844      793.68421      793.68421      793.68421      4.9996917e+08  1.4017506     -58323651      -58323651       1238.1438     -58322412      -2627.2534     -2616.068      -2594.7319      8.1509469      20.837937      22.490695      15881.166    
     57000   416.29237      0.0285         0.26816373     0.26701155     0.26482505    -2631.7965      794.07025      794.07025      794.07025      5.0069906e+08  1.3997073     -58296323      -58296323       1239.6476     -58295083      -2646.5702     -2635.1991     -2613.6201      6.7505406      20.95466       22.026579      15838.261    
     58000   416.84825      0.029          0.27009696     0.26892294     0.26680463    -2650.9566      794.45628      794.45628      794.45628      5.0142965e+08  1.3976679     -58268758      -58268758       1241.3029     -58267516      -2665.6497     -2654.0631     -2633.1569      5.60082        20.706251      21.497871      15858.054    
     59000   417.38202      0.0295         0.271981       0.2707903      0.26888313    -2670.1355      794.84231      794.84231      794.84231      5.0216095e+08  1.3956324     -58240968      -58240968       1242.8924     -58239725      -2684.2437     -2672.4925     -2653.6702      4.6204795      19.989909      21.31584       15855.032    
     60000   417.77473      0.03           0.27372252     0.27250878     0.27081508    -2687.8736      795.22835      795.22835      795.22835      5.0289296e+08  1.393601      -58212969      -58212969       1244.0618     -58211725      -2701.4312     -2689.4525     -2672.737       3.3207217      19.152435      21.097297      15876.178    
     61000   418.03047      0.0305         0.27532049     0.27414892     0.27246917    -2703.9677      795.61438      795.61438      795.61438      5.0362569e+08  1.3915734     -58184770      -58184770       1244.8234     -58183525      -2717.202      -2705.6395     -2689.0617      2.4783531      18.586342      20.175816      15896.285    
     62000   418.26988      0.031          0.27679923     0.27572911     0.2739714     -2718.9728      796.00041      796.00041      796.00041      5.0435912e+08  1.3895498     -58156380      -58156380       1245.5363     -58155134      -2731.796      -2721.2347     -2703.8875      2.5840092      18.362008      18.889335      15881.768    
     63000   418.56978      0.0315         0.27825818     0.27719658     0.27555899    -2733.8227      796.38645      796.38645      796.38645      5.0509327e+08  1.3875301     -58127795      -58127795       1246.4293     -58126549      -2746.1948     -2735.7175     -2719.5558      3.275323       18.234877      18.36742       15891.075    
     64000   418.75845      0.032          0.27979131     0.27862111     0.2772113     -2748.9883      796.77248      796.77248      796.77248      5.0582813e+08  1.3855143     -58099015      -58099015       1246.9912     -58097768      -2761.3255     -2749.7765     -2735.8628      3.3683634      17.620439      18.536072      15883.763    
     65000   418.78296      0.0325         0.28125891     0.28002022     0.27870826    -2763.3437      797.15851      797.15851      797.15851      5.065637e+08   1.3835024     -58070054      -58070054       1247.0641     -58068807      -2775.8097     -2763.5847     -2750.6367      2.1931085      16.933932      18.162827      15862.008    
     66000   418.94106      0.033          0.28253433     0.28136001     0.28004257    -2776.3366      797.54455      797.54455      797.54455      5.0729998e+08  1.3814944     -58040931      -58040931       1247.5349     -58039684      -2788.397      -2776.8074     -2763.8052      0.53762053     16.971386      16.996626      15883.552    
     67000   419.23899      0.0335         0.28364864     0.28259216     0.28131436    -2788.2397      797.93058      797.93058      797.93058      5.0803698e+08  1.3794903     -58011657      -58011657       1248.4221     -58010409      -2799.3944     -2788.9677     -2776.3569     -0.32454318     17.015195      16.073619      15888.792    
     68000   419.39437      0.034          0.28465123     0.28364217     0.28255357    -2799.0689      798.31661      798.31661      798.31661      5.0877469e+08  1.3774901     -57982231      -57982231       1248.8848     -57980983      -2809.2892     -2799.3306     -2788.5869     -0.028540512    16.074167      15.664371      15866.634    
     69000   419.33679      0.0345         0.28567673     0.28461161     0.2837116     -2809.4414      798.70265      798.70265      798.70265      5.0951312e+08  1.3754938     -57952657      -57952657       1248.7133     -57951408      -2819.4102     -2808.8982     -2800.0157      0.32515433     14.792619      15.492923      15889.815    
     70000   419.12597      0.035          0.28673976     0.28561567     0.2846865     -2819.4487      799.08868      799.08868      799.08868      5.1025226e+08  1.3735013     -57922947      -57922947       1248.0856     -57921699      -2829.9014     -2818.8075     -2809.6373     -0.26871359     14.389894      15.516313      15888.866    
     71000   418.8984       0.0355         0.28768772     0.28661116     0.28552982    -2828.6165      799.47471      799.47471      799.47471      5.1099211e+08  1.3715126     -57893105      -57893105       1247.4079     -57891857      -2839.2571     -2828.6322     -2817.9602     -1.2190413      14.536408      15.644667      15890.956    
     72000   418.8149       0.036          0.28852262     0.28748607     0.28638885    -2837.0673      799.86075      799.86075      799.86075      5.1173268e+08  1.3695278     -57863133      -57863133       1247.1593     -57861886      -2847.4969     -2837.267      -2826.4382     -1.7685917      13.921887      15.434823      15890.148    
     73000   418.84587      0.0365         0.28930909     0.28822955     0.2873348     -2845.2124      800.24678      800.24678      800.24678      5.1247396e+08  1.3675468     -57833046      -57833046       1247.2515     -57831799      -2855.2588     -2844.6044     -2835.774      -1.9357519      12.798414      14.624425      15885.454    
     74000   418.76399      0.037          0.28994657     0.28888015     0.28821701    -2852.3521      800.63281      800.63281      800.63281      5.1321596e+08  1.3655696     -57802857      -57802857       1247.0076     -57801610      -2861.5502     -2851.0254     -2844.4807     -2.1248998      12.018572      13.937381      15893.578    
     75000   418.63143      0.0375         0.29041971     0.28950334     0.28890535    -2858.2232      801.01885      801.01885      801.01885      5.1395867e+08  1.3635962     -57772574      -57772574       1246.6129     -57771327      -2866.2197     -2857.1758     -2851.2741     -2.5839741      11.534751      14.093784      15745.2      
     76000   418.55064      0.038          0.29088354     0.29010178     0.28941779    -2863.4036      801.40488      801.40488      801.40488      5.1470211e+08  1.3616267     -57742205      -57742205       1246.3723     -57740959      -2870.7973     -2863.0819     -2856.3315     -3.3152812      11.333825      14.041041      15845.743    
     77000   418.44282      0.0385         0.29142124     0.29058782     0.28981472    -2868.0773      801.79091      801.79091      801.79091      5.1544625e+08  1.3596609     -57711749      -57711749       1246.0513     -57710503      -2876.1041     -2867.8788     -2860.2489     -4.0016869      11.482924      12.901455      15899.631    
     78000   418.15745      0.039          0.29193674     0.29094914     0.29024543    -2872.3787      802.17694      802.17694      802.17694      5.1619112e+08  1.3576989     -57681202      -57681202       1245.2015     -57679957      -2881.1916     -2871.4448     -2864.4997     -4.3925873      11.196349      12.007648      15887.542    
     79000   417.63351      0.0395         0.29227771     0.29122906     0.29069732    -2875.9079      802.56298      802.56298      802.56298      5.169367e+08   1.3557407     -57650584      -57650584       1243.6413     -57649340      -2884.5567     -2874.2074     -2868.9595     -4.6742575      9.9730008      12.479415      15900.58     
     80000   417.15594      0.04           0.29247818     0.29150568     0.29102996    -2878.5717      802.94901      802.94901      802.94901      5.17683e+08    1.3537862     -57619912      -57619912       1242.2192     -57618670      -2886.5352     -2876.9374     -2872.2424     -4.8329129      9.007843       13.30394       15897.504    
     81000   416.8333       0.0405         0.29259478     0.29175897     0.29121778    -2880.4064      803.33504      803.33504      803.33504      5.1843002e+08  1.3518355     -57589197      -57589197       1241.2584     -57587956      -2887.686      -2879.4372     -2874.0961     -4.9639705      8.7363563      13.412684      15870.469    
     82000   416.4829       0.041          0.29260811     0.29190727     0.2913265     -2881.2958      803.72108      803.72108      803.72108      5.1917775e+08  1.3498886     -57558435      -57558435       1240.215      -57557195      -2887.8175     -2880.9008     -2875.169      -5.0605572      8.4743713      13.027015      15902.373    
     83000   415.9078       0.0415         0.29256805     0.29192974     0.2914781     -2881.7366      804.10711      804.10711      804.10711      5.1992621e+08  1.3479454     -57527628      -57527628       1238.5024     -57526389      -2887.4222     -2881.1225     -2876.6652     -5.535365       8.0952454      12.384826      15897.342    
     84000   415.22678      0.042          0.29255971     0.29188508     0.29164093    -2882.098       804.49314      804.49314      804.49314      5.2067538e+08  1.3460059     -57496779      -57496779       1236.4745     -57495542      -2887.3399     -2880.6818     -2878.2722     -6.0805754      7.8266369      11.542886      15886.147    
     85000   414.55691      0.0425         0.29261383     0.29188389     0.29170046    -2882.4679      804.87918      804.87918      804.87918      5.2142527e+08  1.3440701     -57465895      -57465895       1234.4797     -57464661      -2887.8739     -2880.67       -2878.8597     -6.3556094      7.523387       11.215023      15899.924    
     86000   413.93313      0.043          0.29253283     0.29187853     0.29154101    -2881.6593      805.26521      805.26521      805.26521      5.2217588e+08  1.342138      -57434990      -57434990       1232.6222     -57433757      -2887.0745     -2880.6172     -2877.2861     -6.5548284      6.8011786      11.655745      15890.671    
     87000   413.34624      0.0435         0.29222754     0.29175        0.29122711    -2879.1994      805.65124      805.65124      805.65124      5.2292722e+08  1.3402097     -57404073      -57404073       1230.8745     -57402842      -2884.0616     -2879.3486     -2874.1881     -6.7257453      5.7587092      12.054293      15898.722    
     88000   412.79544      0.044          0.29179335     0.29140675     0.29096384    -2875.7758      806.03728      806.03728      806.03728      5.2367927e+08  1.338285      -57373156      -57373156       1229.2343     -57371927      -2879.7765     -2875.961      -2871.5898     -6.7489113      5.0335168      11.791877      15859.917    
     89000   412.19782      0.0445         0.29134017     0.29096681     0.2907876     -2872.2578      806.42331      806.42331      806.42331      5.2443204e+08  1.336364      -57342242      -57342242       1227.4547     -57341014      -2875.3039     -2871.6191     -2869.8505     -6.5352201      4.9661038      10.795727      15895.98     
     90000   411.46509      0.045          0.29091706     0.29058315     0.29053401    -2868.7696      806.80934      806.80934      806.80934      5.2518553e+08  1.3344467     -57311332      -57311332       1225.2728     -57310107      -2871.1282     -2867.8327     -2867.3477     -6.3927655      5.2068169      10.074399      15897.553    
     91000   410.68313      0.0455         0.29049635     0.29018906     0.29008319    -2864.606       807.19538      807.19538      807.19538      5.2593975e+08  1.3325331     -57280438      -57280438       1222.9442     -57279215      -2866.976      -2863.9434     -2862.8985     -7.2769836      4.9911037      10.277997      15894.556    
     92000   409.8221       0.046          0.28998242     0.28969689     0.28947996    -2859.3117      807.58141      807.58141      807.58141      5.2669469e+08  1.3306231     -57249572      -57249572       1220.3802     -57248351      -2861.9039     -2859.0861     -2856.945      -8.8425232      3.882432       10.537416      15881.946    
     93000   408.89701      0.0465         0.2893214      0.28912983     0.28889009    -2853.3311      807.96744      807.96744      807.96744      5.2745035e+08  1.3287168     -57218735      -57218735       1217.6255     -57217518      -2855.3802     -2853.4895     -2851.1235     -9.3989895      2.4663151      10.335773      15890.707    
     94000   407.97173      0.047          0.28858445     0.28852158     0.28837116    -2847.1986      808.35348      808.35348      808.35348      5.2820673e+08  1.3268141     -57187924      -57187924       1214.8702     -57186709      -2848.1071     -2847.4866     -2846.0021     -8.3443091      1.6601912      9.694453       15875.264    
     95000   407.04093      0.0475         0.28784758     0.28784782     0.28778849    -2840.6412      808.73951      808.73951      808.73951      5.2896383e+08  1.324915      -57157144      -57157144       1212.0984     -57155932      -2840.8347     -2840.8372     -2840.2516     -7.152781       1.3853269      9.035472       15867.499    
     96000   406.13752      0.048          0.28709277     0.28706869     0.28710619    -2833.3503      809.12554      809.12554      809.12554      5.2972166e+08  1.3230195     -57126416      -57126416       1209.4082     -57125207      -2833.3854     -2833.1477     -2833.5178     -7.5269055      0.89709801     8.5834232      15891.555    
     97000   405.39429      0.0485         0.28617876     0.2862043      0.28629749    -2824.8394      809.51157      809.51157      809.51157      5.3048021e+08  1.3211277     -57095754      -57095754       1207.195      -57094547      -2824.3648     -2824.6168     -2825.5365     -8.5319332      0.19185509     7.7883406      15894.954    
     98000   404.68008      0.049          0.28518815     0.28533987     0.28542622    -2815.8705      809.89761      809.89761      809.89761      5.3123949e+08  1.3192395     -57065154      -57065154       1205.0682     -57063948      -2814.5882     -2816.0855     -2816.9378     -9.0047281     -0.69040526     6.9730673      15891.202    
     99000   403.58643      0.0495         0.28427729     0.28443355     0.28451691    -2806.9011      810.28364      810.28364      810.28364      5.3199949e+08  1.3173549     -57034614      -57034614       1201.8115     -57033412      -2805.5987     -2807.1409     -2807.9636     -9.233874      -1.7679909      6.8936893      15865.078    
    100000   402.25016      0.05           0.28336014     0.28344705     0.28357106    -2797.5269      810.66967      810.66967      810.66967      5.3276021e+08  1.3154738     -57004139      -57004139       1197.8323     -57002941      -2796.5472     -2797.4049     -2798.6288     -9.4839666     -2.3260267      7.2806089      15494.949    
    101000   401.07345      0.0505         0.28233278     0.28245356     0.28263585    -2787.8023      811.05571      811.05571      811.05571      5.3352166e+08  1.3135964     -56973741      -56973741       1194.3282     -56972547      -2786.4079     -2787.5999     -2789.399      -9.8810071     -2.1750709      7.1128012      15905.306    
    102000   400.17901      0.051          0.28110864     0.2814451      0.28163559    -2777.167       811.44174      811.44174      811.44174      5.3428383e+08  1.3117225     -56943433      -56943433       1191.6648     -56942242      -2774.3266     -2777.6471     -2779.5271     -10.458962     -2.3286327      6.2665744      15902.684    
    103000   399.3561       0.0515         0.27980767     0.28037766     0.28054766    -2765.7965      811.82777      811.82777      811.82777      5.3504673e+08  1.3098522     -56913214      -56913214       1189.2143     -56912024      -2761.487      -2767.1123     -2768.7901     -10.924391     -3.0922988      5.6169731      15891.723    
    104000   398.31349      0.052          0.27856917     0.27916599     0.27936732    -2753.853       812.21381      812.21381      812.21381      5.3581036e+08  1.3079854     -56883085      -56883085       1186.1096     -56881899      -2749.264      -2755.1541     -2757.141      -11.115343     -3.5392594      5.3238022      15860.243    
    105000   397.27827      0.0525         0.27733419     0.27785435     0.27810661    -2741.3279      812.59984      812.59984      812.59984      5.3657471e+08  1.3061222     -56853055      -56853055       1183.0269     -56851872      -2737.0757     -2742.2092     -2744.6988     -11.238889     -3.6502767      4.8027354      15895.769    
    106000   396.55283      0.053          0.27605061     0.27658648     0.27685215    -2728.8074      812.98587      812.98587      812.98587      5.3733979e+08  1.3042625     -56823136      -56823136       1180.8666     -56821955      -2724.4077     -2729.6963     -2732.3182     -11.256237     -4.0740727      4.0486974      15897.146    
    107000   395.91488      0.0535         0.27471689     0.27534891     0.27564125    -2716.365       813.37191      813.37191      813.37191      5.3810559e+08  1.3024063     -56793333      -56793333       1178.9669     -56792154      -2711.2449     -2717.4825     -2720.3676     -11.357907     -4.8336078      3.4267404      15885.421    
    108000   395.02478      0.054          0.27334144     0.27403016     0.27436539    -2703.3045      813.75794      813.75794      813.75794      5.3887212e+08  1.3005537     -56763646      -56763646       1176.3163     -56762470      -2697.6703     -2704.4674     -2707.7758     -11.924327     -5.5092184      3.0797506      15873.197    
    109000   393.89582      0.0545         0.27190384     0.27259258     0.27289975    -2689.0243      814.14397      814.14397      814.14397      5.3963938e+08  1.2987045     -56734080      -56734080       1172.9545     -56732907      -2683.4823     -2690.2796     -2693.3111     -12.402765     -5.8893158      3.0684353      15920.728    
    110000   392.6785       0.055          0.2703737      0.2711481      0.2713669     -2674.1959      814.53001      814.53001      814.53001      5.4040737e+08  1.2968589     -56704639      -56704639       1169.3295     -56703470      -2668.381      -2676.0237     -2678.1831     -12.105904     -6.0149676      2.9694837      15875.3      
    111000   391.44789      0.0555         0.26880833     0.26974078     0.26995996    -2659.7881      814.91604      814.91604      814.91604      5.4117609e+08  1.2950168     -56675323      -56675323       1165.665      -56674158      -2652.932      -2662.1346     -2664.2977     -11.404744     -6.3104436      2.4492332      15909.377    
    112000   390.43236      0.056          0.26725113     0.26828333     0.26864566    -2645.5469      815.30207      815.30207      815.30207      5.4194553e+08  1.2931781     -56646135      -56646135       1162.6409     -56644972      -2637.5635     -2647.7506     -2651.3266     -11.149954     -7.0848358      1.6983138      15912.281    
    113000   389.80477      0.0565         0.26571221     0.26672913     0.26722311    -2630.6915      815.68811      815.68811      815.68811      5.427157e+08   1.291343      -56617082      -56617082       1160.7721     -56615921      -2622.3756     -2632.4118     -2637.287      -11.409404     -7.8469565      0.89065986     15905.328    
    114000   389.35955      0.057          0.26417083     0.26519011     0.26563219    -2615.3241      816.07414      816.07414      816.07414      5.4348661e+08  1.2895113     -56588176      -56588176       1159.4462     -56587017      -2607.1634     -2617.2229     -2621.5859     -11.934677     -7.957214       0.24350822     15918.075    
    115000   388.59936      0.0575         0.26261319     0.26368131     0.26400006    -2599.8669      816.46017      816.46017      816.46017      5.4425824e+08  1.2876831     -56559420      -56559420       1157.1825     -56558263      -2591.7906     -2602.3322     -2605.478      -12.315507     -7.6406205     -0.0078741097   15886.795    
    116000   387.34506      0.058          0.26098143     0.26209948     0.26234688    -2583.8565      816.84621      816.84621      816.84621      5.450306e+08   1.2858583     -56530808      -56530808       1153.4474     -56529655      -2575.6865     -2586.7207     -2589.1624     -12.348413     -7.8382311     -0.15112485     15905.849    
    117000   385.8598       0.0585         0.25924548     0.26046098     0.26066553    -2567.2243      817.23224      817.23224      817.23224      5.458037e+08   1.284037      -56502339      -56502339       1149.0246     -56501190      -2558.554      -2570.55       -2572.5688     -11.998167     -8.2745874     -0.80109616     15911.447    
    118000   384.60267      0.059          0.25747889     0.25881986     0.25902698    -2550.6234      817.61827      817.61827      817.61827      5.4657752e+08  1.2822191     -56474019      -56474019       1145.2811     -56472873      -2541.1191     -2554.3535     -2556.3976     -11.536487     -8.550016      -1.3974598      15924.668    
    119000   383.86003      0.0595         0.25571209     0.25711031     0.25739207    -2533.8086      818.0043       818.0043       818.0043       5.4735207e+08  1.2804046     -56445860      -56445860       1143.0696     -56444717      -2523.6821     -2537.4814     -2540.2622     -11.523035     -8.8300882     -1.3439921      15917.336    
    120000   383.44603      0.06           0.25401423     0.2553111      0.25568111    -2516.6755      818.39034      818.39034      818.39034      5.4812736e+08  1.2785936     -56417869      -56417869       1141.8368     -56416727      -2506.9255     -2519.7246     -2523.3763     -11.815331     -8.6878004     -1.01515        15910.713    
    121000   382.89061      0.0605         0.25242467     0.25360339     0.25397401    -2500.2124      818.77637      818.77637      818.77637      5.4890338e+08  1.2767859     -56390044      -56390044       1140.1829     -56388904      -2491.2378     -2502.8708     -2506.5286     -11.705628     -8.1752761     -1.2389309      15889.156    
    122000   381.93797      0.061          0.25081449     0.25205972     0.25229527    -2484.3144      819.1624       819.1624       819.1624       5.4968013e+08  1.2749817     -56362378      -56362378       1137.3461     -56361240      -2475.3465     -2487.636      -2489.9607     -11.266166     -7.5560685     -1.8037731      15910.818    
    123000   380.79266      0.0615         0.24904399     0.25041784     0.25053867    -2467.3098      819.54844      819.54844      819.54844      5.5045761e+08  1.2731809     -56334866      -56334866       1133.9355     -56333732      -2457.8731     -2471.4319     -2472.6244     -10.904013     -7.4175847     -2.1043836      15923.118    
    124000   379.74182      0.062          0.24714309     0.24849947     0.24865563    -2448.5507      819.93447      819.93447      819.93447      5.5123583e+08  1.2713835     -56307522      -56307522       1130.8063     -56306391      -2439.1126     -2452.4991     -2454.0403     -10.696758     -7.5532135     -2.1022704      15908.038    
    125000   378.82784      0.0625         0.24531243     0.24649446     0.2467868     -2429.7843      820.3205       820.3205       820.3205       5.5201477e+08  1.2695894     -56280356      -56280356       1128.0846     -56279228      -2421.0454     -2432.7112     -2435.5963     -10.30469      -7.2234004     -2.153085       15913.671    
    126000   377.9226       0.063          0.24365714     0.24474133     0.24505788    -2412.8838      820.70654      820.70654      820.70654      5.5279446e+08  1.2677987     -56253365      -56253365       1125.389      -56252240      -2404.709      -2415.4092     -2418.5333     -9.6460401     -6.9593172     -2.6020095      15799.412    
    127000   377.02961      0.0635         0.24199585     0.2431734      0.24338607    -2396.7606      821.09257      821.09257      821.09257      5.5357487e+08  1.2660114     -56226538      -56226538       1122.7298     -56225415      -2388.3133     -2399.9348     -2402.0338     -9.0141274     -7.0757626     -2.9895324      15842.821    
    128000   376.29893      0.064          0.2402213      0.24152708     0.24165381    -2379.8082      821.4786       821.4786       821.4786       5.5435602e+08  1.2642275     -56199874      -56199874       1120.5539     -56198753      -2370.7999     -2383.6869     -2384.9377     -8.6600173     -6.9765925     -2.7210111      15894.77     
    129000   375.58157      0.0645         0.23838174     0.23975409     0.23982331    -2361.9019      821.86464      821.86464      821.86464      5.551379e+08   1.2624469     -56173380      -56173380       1118.4178     -56172262      -2352.6448     -2366.1889     -2366.872      -8.4127356     -6.5541139     -2.355727       15857.579    
    130000   374.5411       0.065          0.23660818     0.23796028     0.23799317    -2344.1455      822.25067      822.25067      822.25067      5.5592052e+08  1.2606696     -56147058      -56147058       1115.3194     -56145943      -2335.1412     -2348.4854     -2348.81       -8.4373403     -6.2062364     -2.8249123      15840.364    
    131000   373.3292       0.0655         0.23491821     0.2361531      0.23621688    -2326.7972      822.6367       822.6367       822.6367       5.5670388e+08  1.2588957     -56120907      -56120907       1111.7106     -56119795      -2318.4625     -2330.6499     -2331.2793     -8.6892359     -6.0903596     -3.5820098      15859.713    
    132000   372.38246      0.066          0.23322154     0.2343589      0.23445683    -2309.523       823.02274      823.02274      823.02274      5.5748797e+08  1.2571251     -56094921      -56094921       1108.8914     -56093812      -2301.7176     -2312.9425     -2313.909      -8.909575      -5.851686      -3.4060012      15874.375    
    133000   371.63763      0.0665         0.23149584     0.23262011     0.23272351    -2292.4236      823.40877      823.40877      823.40877      5.5827279e+08  1.2553578     -56069102      -56069102       1106.6734     -56067995      -2284.6863     -2295.782      -2296.8025     -8.6261518     -5.5776779     -2.2539992      15876.173    
    134000   370.7247       0.067          0.22973589     0.23091587     0.23099388    -2275.3372      823.7948       823.7948       823.7948       5.5905836e+08  1.2535938     -56043452      -56043452       1103.9548     -56042348      -2267.317      -2278.9624     -2279.7323     -7.6508248     -5.7350984     -1.0949718      15884.956    
    135000   369.57603      0.0675         0.22796899     0.22920559     0.22928518    -2258.277       824.18084      824.18084      824.18084      5.5984465e+08  1.2518332     -56017972      -56017972       1100.5343     -56016872      -2249.879      -2262.0833     -2262.8688     -6.8995373     -5.7673071     -1.3483728      15888.311    
    136000   368.42095      0.068          0.22632104     0.22749514     0.22760795    -2241.7111      824.56687      824.56687      824.56687      5.6063169e+08  1.2500758     -55992663      -55992663       1097.0947     -55991566      -2233.615      -2245.2025     -2246.3158     -7.1125362     -5.189381      -2.8653266      15890.712    
    137000   367.41537      0.0685         0.22475633     0.22581914     0.22588215    -2225.3725      824.9529       824.9529       824.9529       5.6141946e+08  1.2483217     -55967514      -55967514       1094.1002     -55966420      -2218.1725     -2228.6616     -2229.2835     -7.7784759     -4.3767228     -3.5280284      15896.729    
    138000   366.56076      0.069          0.22313242     0.22412435     0.22415631    -2208.7773      825.33894      825.33894      825.33894      5.6220797e+08  1.2465709     -55942519      -55942519       1091.5554     -55941427      -2202.1458     -2211.9353     -2212.2508     -8.1829116     -3.8419802     -2.787339       15881.816    
    139000   365.69952      0.0695         0.22141336     0.22241249     0.22248323    -2191.9864      825.72497      825.72497      825.72497      5.6299722e+08  1.2448234     -55917684      -55917684       1088.9907     -55916595      -2185.1799     -2195.0407     -2195.7387     -8.0837655     -3.9425076     -1.9402779      15912.639    
    140000   364.57518      0.07           0.21970947     0.22074269     0.2208566     -2175.5367      826.111        826.111        826.111        5.6378721e+08  1.2430791     -55893019      -55893019       1085.6426     -55891933      -2168.3639     -2178.5609     -2179.6852     -7.5521624     -4.3125459     -1.6887921      15833.713    
    141000   363.24854      0.0705         0.21809042     0.2191332      0.21927688    -2159.7187      826.49703      826.49703      826.49703      5.6457793e+08  1.2413381     -55868519      -55868519       1081.6921     -55867437      -2152.3851     -2162.6765     -2164.0946     -6.9500081     -4.1618771     -2.035383       15875.942    
    142000   361.9601       0.071          0.21653523     0.21753911     0.21773108    -2144.2731      826.88307      826.88307      826.88307      5.653694e+08   1.2396004     -55844168      -55844168       1077.8554     -55843090      -2137.0365     -2146.9441     -2148.8387     -6.6091732     -3.4683855     -2.2539965      15911.728    
    143000   360.75709      0.0715         0.21501848     0.21601724     0.21620905    -2129.2697      827.2691       827.2691       827.2691       5.661616e+08   1.2378659     -55819961      -55819961       1074.273      -55818886      -2122.0674     -2131.9244     -2133.8174     -6.9088766     -2.7308329     -1.8986232      15886.403    
    144000   359.51868      0.072          0.21353456     0.21458696     0.21462712    -2114.4786      827.65513      827.65513      827.65513      5.6695454e+08  1.2361346     -55795899      -55795899       1070.5852     -55794829      -2107.4223     -2117.8086     -2118.205      -7.2516791     -2.6194934     -1.4709519      15895.639    
    145000   358.3007       0.0725         0.21210489     0.21314491     0.2130276     -2099.7694      828.04117      828.04117      828.04117      5.6774823e+08  1.2344065     -55771984      -55771984       1066.9583     -55770917      -2093.3125     -2103.5768     -2102.4189     -6.8771162     -3.268075      -1.3300521      15883.192    
    146000   357.31161      0.073          0.21066565     0.21158821     0.2115403     -2085.0207      828.4272       828.4272       828.4272       5.6854265e+08  1.2326817     -55748213      -55748213       1064.013      -55747149      -2079.1083     -2088.2133     -2087.7404     -6.1746205     -3.9643244     -1.7246033      15886.903    
    147000   356.41907      0.0735         0.20911224     0.21000431     0.21015305    -2070.136       828.81323      828.81323      828.81323      5.6933782e+08  1.2309601     -55724585      -55724585       1061.3551     -55723523      -2063.7773     -2072.5814     -2074.0493     -5.8842477     -3.9587665     -2.1540599      15913.832    
    148000   355.27947      0.074          0.20750653     0.20859571     0.20875628    -2055.6247      829.19927      829.19927      829.19927      5.7013372e+08  1.2292416     -55701096      -55701096       1057.9616     -55700038      -2047.9303     -2058.6796     -2060.2643     -5.8135821     -3.5562672     -2.2679019      15903.598    
    149000   353.87977      0.0745         0.20606566     0.20734892     0.20735903    -2042.1864      829.5853       829.5853       829.5853       5.7093037e+08  1.2275264     -55677740      -55677740       1053.7935     -55676686      -2033.7099     -2046.3747     -2046.4745     -5.2923038     -3.0395276     -1.9790921      15880.936    
    150000   352.50479      0.075          0.20483028     0.20605813     0.20597904    -2029.3361      829.97133      829.97133      829.97133      5.7172776e+08  1.2258144     -55654516      -55654516       1049.6991     -55653467      -2021.5177     -2033.6356     -2032.855      -4.5636863     -2.3287814     -1.2581052      15527.177    
    151000   351.31625      0.0755         0.20360819     0.20460592     0.20462802    -2016.0939      830.35737      830.35737      830.35737      5.7252589e+08  1.2241055     -55631419      -55631419       1046.1598     -55630373      -2009.4566     -2019.3034     -2019.5215     -4.0708333     -2.0085086     -0.63791935     15860.849    
    152000   350.24068      0.076          0.20230333     0.20317047     0.20334866    -2002.8702      830.7434       830.7434       830.7434       5.7332476e+08  1.2223999     -55608442      -55608442       1042.9569     -55607399      -1996.5786     -2005.1366     -2006.8953     -4.0427957     -2.6136749     -0.62603127     15878.344    
    153000   349.14946      0.0765         0.20094569     0.20188276     0.20213489    -1990.1746      831.12943      831.12943      831.12943      5.7412438e+08  1.2206974     -55585590      -55585590       1039.7075     -55584550      -1983.1797     -1992.428      -1994.9163     -4.4857088     -3.1924362     -1.5311478      15880.236    
    154000   347.99828      0.077          0.1996275      0.20070156     0.20089852    -1977.8849      831.51547      831.51547      831.51547      5.7492474e+08  1.218998      -55562859      -55562859       1036.2794     -55561822      -1970.1702     -1980.7704     -1982.7142     -4.8266778     -2.7014938     -2.1863244      15868.801    
    155000   346.7433       0.0775         0.19845099     0.19957362     0.19963033    -1966.1319      831.9015       831.9015       831.9015       5.7572584e+08  1.2173018     -55540240      -55540240       1032.5423     -55539208      -1958.559      -1969.6385     -1970.1982     -4.6274227     -1.6146627     -1.4780512      15905.504    
    156000   345.45338      0.078          0.19732652     0.19837914     0.19836901    -1954.3537      832.28753      832.28753      832.28753      5.7652769e+08  1.2156088     -55517732      -55517732       1028.7012     -55516703      -1947.4613     -1957.8499     -1957.7499     -4.0643109     -0.96229778    -0.19283627     15868.679    
    157000   344.28647      0.0785         0.19616142     0.19711656     0.19719229    -1942.4962      832.67357      832.67357      832.67357      5.7733028e+08  1.2139189     -55495337      -55495337       1025.2263     -55494312      -1935.9627     -1945.3892     -1946.1366     -3.5053424     -1.1472346      0.10932558     15837.777    
    158000   343.31248      0.079          0.1949538      0.19591046     0.19610235    -1930.97        833.0596       833.0596       833.0596       5.7813361e+08  1.2122321     -55473057      -55473057       1022.3259     -55472034      -1924.0444     -1933.4859     -1935.3797     -3.2281919     -1.6355678     -0.86496758     15887.117    
    159000   342.37013      0.0795         0.19380157     0.19488903     0.19507633    -1920.4439      833.44563      833.44563      833.44563      5.7893769e+08  1.2105484     -55450879      -55450879       1019.5198     -55449859      -1912.6728     -1923.4051     -1925.2537     -3.0415788     -1.9514921     -1.8631536      15861.856    
    160000   341.28916      0.08           0.19274832     0.19394262     0.19403266    -1910.4321      833.83167      833.83167      833.83167      5.7974252e+08  1.2088679     -55428794      -55428794       1016.3008     -55427777      -1902.278      -1914.0649     -1914.9534     -2.9814696     -1.6453645     -1.8212076      15873.397    
    161000   340.11761      0.0805         0.19176967     0.1929043      0.19291507    -1900.1202      834.2177       834.2177       834.2177       5.8054809e+08  1.2071905     -55406803      -55406803       1012.8122     -55405790      -1892.6195     -1903.8174     -1903.9237     -3.225714      -1.1046521     -1.0205513      15841.351    
    162000   338.95042      0.081          0.19078938     0.19179155     0.19183519    -1889.6821      834.60373      834.60373      834.60373      5.813544e+08   1.2055161     -55384910      -55384910       1009.3365     -55383901      -1882.9448     -1892.8354     -1893.2661     -3.221742      -0.80425549    -0.14531843     15857.826    
    163000   337.77959      0.0815         0.1897581      0.19071328     0.1908544     -1879.5157      834.98976      834.98976      834.98976      5.8216147e+08  1.2038449     -55363112      -55363112       1005.8499     -55362106      -1872.7668     -1882.1938     -1883.5865     -2.7779135     -0.85004404     0.73300288     15882.244    
    164000   336.70443      0.082          0.18872253     0.1897226      0.18991496    -1869.7593      835.3758       835.3758       835.3758       5.8296928e+08  1.2021768     -55341399      -55341399       1002.6483     -55340396      -1862.5466     -1872.4165     -1874.315      -2.3596024     -1.0243763      1.2197394      15846.503    
    165000   335.84601      0.0825         0.187808       0.18885303     0.18897841    -1860.8091      835.76183      835.76183      835.76183      5.8377783e+08  1.2005117     -55319767      -55319767       1000.0921     -55318767      -1853.5208     -1863.8345     -1865.0719     -2.1716388     -0.98158368     1.0118848      15841.479    
    166000   335.09596      0.083          0.18700516     0.18804606     0.18805246    -1852.4671      836.14786      836.14786      836.14786      5.8458714e+08  1.1988497     -55298221      -55298221       997.85856     -55297223      -1845.5974     -1855.8703     -1855.9335     -2.0305981     -0.62853634     0.48669567     15878.409    
    167000   334.28613      0.0835         0.18618629     0.18717097     0.18713625    -1843.8803      836.5339       836.5339       836.5339       5.8539719e+08  1.1971908     -55276761      -55276761       995.447       -55275765      -1837.5158     -1847.2338     -1846.8912     -1.6566447     -0.30858053    -0.055950867    15871.997    
    168000   333.35506      0.084          0.18526653     0.18621614     0.18621005    -1834.6664      836.91993      836.91993      836.91993      5.8620799e+08  1.1955349     -55255379      -55255379       992.67446     -55254387      -1828.4385     -1837.8104     -1837.7503     -1.4094398     -0.29056993    -0.14234513     15833.904    
    169000   332.3596       0.0845         0.18430625     0.18527544     0.18529859    -1825.4142      837.30596      837.30596      837.30596      5.8701953e+08  1.1938821     -55234072      -55234072       989.71014     -55233082      -1818.9612     -1828.5264     -1828.7549     -1.7210322     -0.46101565     0.61717729     15869.874    
    170000   331.47461      0.085          0.18343357     0.18447448     0.18448915    -1817.2455      837.692        837.692        837.692        5.8783183e+08  1.1922323     -55212838      -55212838       987.07479     -55211851      -1810.3486     -1820.6216     -1820.7664     -2.1369785     -0.47964859     1.8429998      15875.221    
    171000   330.76217      0.0855         0.18273126     0.18376995     0.18376461    -1810.2338      838.07803      838.07803      838.07803      5.8864488e+08  1.1905856     -55191673      -55191673       984.95327     -55190688      -1803.4173     -1813.6684     -1813.6157     -1.9846045     -0.014624915    2.3212455      15861.98     
    172000   330.15041      0.086          0.18214436     0.18303568     0.18302288    -1803.4474      838.46406      838.46406      838.46406      5.8945867e+08  1.1889419     -55170571      -55170571       983.13155     -55169588      -1797.625      -1806.4217     -1806.2953     -1.810642       0.52834123     1.4273143      15861.415    
    173000   329.55932      0.0865         0.18144867     0.18222052     0.18219491    -1795.7533      838.8501       838.8501       838.8501       5.9027321e+08  1.1873012     -55149537      -55149537       981.37136     -55148555      -1790.7592     -1798.3767     -1798.124      -2.0069638      0.70660445     0.22480281     15833.732    
    174000   328.92405      0.087          0.18058245     0.18138826     0.18135543    -1787.404       839.23613      839.23613      839.23613      5.9108851e+08  1.1856636     -55128575      -55128575       979.47966     -55127596      -1782.2102     -1790.163      -1789.8389     -1.8944118      0.63017671     0.18945773     15864.101    
    175000   328.14036      0.0875         0.17967577     0.18061904     0.18061293    -1779.4481      839.62216      839.62216      839.62216      5.9190455e+08  1.1840289     -55107685      -55107685       977.14596     -55106707      -1773.262      -1782.5714     -1782.511      -1.5101523      0.97968779     1.3622291      15876.681    
    176000   327.23661      0.088          0.17890933     0.1799494      0.17997194    -1772.6151      840.0082       840.0082       840.0082       5.9272135e+08  1.1823973     -55086853      -55086853       974.45474     -55085879      -1765.6978     -1775.9624     -1776.1849     -1.2667167      1.5230134      2.4065228      15859.651    
    177000   326.59827      0.0885         0.1783351      0.17930197     0.17930814    -1766.4124      840.39423      840.39423      840.39423      5.935389e+08   1.1807686     -55066076      -55066076       972.55387     -55065103      -1760.0306     -1769.5729     -1769.6337     -1.5834029      1.5494953      2.399169       15872.814    
    178000   326.40306      0.089          0.1777782      0.1786287      0.17852187    -1759.7789      840.78026      840.78026      840.78026      5.9435719e+08  1.179143      -55045354      -55045354       971.97259     -55044382      -1754.5344     -1762.9282     -1761.8739     -2.2028914      0.98527185     1.9090386      15839.256    
    179000   326.30714      0.0895         0.1771354      0.17798465     0.17777174    -1753.0777      841.1663       841.1663       841.1663       5.9517624e+08  1.1775203     -55024691      -55024691       971.68694     -55023719      -1748.1904     -1756.5719     -1754.4707     -2.1879337      0.48910329     1.5738797      15879.64     
    180000   325.86414      0.09           0.17646146     0.17738569     0.17721001    -1747.0422      841.55233      841.55233      841.55233      5.9599605e+08  1.1759006     -55004087      -55004087       970.36777     -55003117      -1741.5392     -1750.6606     -1748.9268     -1.6402524      0.64502261     1.8242305      15857.238    
    181000   325.12238      0.0905         0.17580189     0.17680966     0.1766962     -1741.2871      841.93836      841.93836      841.93836      5.968166e+08   1.1742839     -54983530      -54983530       968.15892     -54982561      -1735.0298     -1744.9757     -1743.8559     -1.4325607      1.5744245      2.4252319      15862.724    
    182000   324.55905      0.091          0.17517702     0.17619118     0.17607017    -1735.1373      842.3244       842.3244       842.3244       5.9763791e+08  1.1726701     -54963016      -54963016       966.48143     -54962050      -1728.8627     -1738.8717     -1737.6775     -1.7982579      2.3059725      3.0946051      15843.305    
    183000   324.42809      0.0915         0.17455531     0.17549142     0.17537172    -1728.4923      842.71043      842.71043      842.71043      5.9845997e+08  1.1710593     -54942560      -54942560       966.09145     -54941594      -1722.727      -1731.9656     -1730.7843     -2.3088829      2.2159968      3.4643455      15875.17     
    184000   324.37331      0.092          0.17395444     0.17482171     0.17473799    -1722.2276      843.09646      843.09646      843.09646      5.9928278e+08  1.1694514     -54922163      -54922163       965.92832     -54921197      -1716.7968     -1725.3561     -1724.5298     -2.0853917      1.6780279      2.8526574      15865.579    
    185000   323.95365      0.0925         0.17339221     0.17424316     0.17424487    -1716.8525      843.48249      843.48249      843.48249      6.0010635e+08  1.1678465     -54901816      -54901816       964.67865     -54900852      -1711.2481     -1719.6463     -1719.6631     -1.0288868      1.4167609      1.6924598      15886.563    
    186000   323.25326      0.093          0.17283024     0.17372334     0.17372096    -1711.5702      843.86853      843.86853      843.86853      6.0093067e+08  1.1662445     -54881516      -54881516       962.593       -54880554      -1705.7019     -1714.516      -1714.4926     -0.21588283     1.9425533      1.3001479      15873.342    
    187000   322.79009      0.0935         0.17223962     0.17319072     0.17306133    -1705.705       844.25456      844.25456      844.25456      6.0175575e+08  1.1646455     -54861260      -54861260       961.21377     -54860298      -1699.8729     -1709.2595     -1707.9826     -0.52471189     2.6471901      2.4809854      15869.713    
    188000   322.7388       0.094          0.17173369     0.17262031     0.17241978    -1700.0536      844.64059      844.64059      844.64059      6.0258158e+08  1.1630493     -54841044      -54841044       961.06103     -54840083      -1694.8798     -1703.63       -1701.6509     -1.4142927      2.6544259      4.0137335      15883.374    
    189000   322.67618      0.0945         0.1713076      0.17205533     0.17188436    -1695.0318      845.02663      845.02663      845.02663      6.0340816e+08  1.1614561     -54820870      -54820870       960.87456     -54819909      -1690.6746     -1698.054      -1696.3667     -1.900266       1.9347021      4.1549746      15832.607    
    190000   322.28814      0.095          0.17078498     0.17153241     0.17138442    -1689.9476      845.41266      845.41266      845.41266      6.0423551e+08  1.1598658     -54800738      -54800738       959.71904     -54799779      -1685.5167     -1692.8932     -1691.4327     -1.8544289      1.2062979      3.1269063      15865.474    
    191000   321.88104      0.0955         0.17013203     0.17101376     0.1708786     -1684.4293      845.79869      845.79869      845.79869      6.050636e+08   1.1582784     -54780656      -54780656       958.50678     -54779697      -1679.0726     -1687.7746     -1686.4407     -1.6883378      1.1924126      2.3760657      15878.536    
    192000   321.79131      0.096          0.16950983     0.17044041     0.17040332    -1678.9327      846.18473      846.18473      846.18473      6.0589246e+08  1.1566939     -54760623      -54760623       958.23957     -54759665      -1672.932      -1682.116      -1681.7501     -1.555397       1.8807813      2.3067807      15875.734    
    193000   321.89056      0.0965         0.16903931     0.1698698      0.16992651    -1673.939       846.57076      846.57076      846.57076      6.0672207e+08  1.1551123     -54740630      -54740630       958.53511     -54739671      -1668.2883     -1676.4846     -1677.0442     -1.5202683      2.6939114      2.5816699      15885.271    
    194000   321.93835      0.097          0.16864263     0.16937047     0.16936532    -1669.1452      846.95679      846.95679      846.95679      6.0755244e+08  1.1535335     -54720673      -54720673       958.67743     -54719714      -1664.3734     -1671.5566     -1671.5057     -1.4346158      2.9357662      3.1599816      15860.873    
    195000   321.82233      0.0975         0.16816526     0.16895526     0.16877309    -1664.2606      847.34283      847.34283      847.34283      6.0838356e+08  1.1519577     -54700757      -54700757       958.33195     -54699799      -1659.6621     -1667.4588     -1665.6609     -1.4827573      2.7113016      3.6733102      15836.799    
    196000   321.53033      0.098          0.16761531     0.16856343     0.16828581    -1659.5594      847.72886      847.72886      847.72886      6.0921544e+08  1.1503847     -54680886      -54680886       957.46241     -54679929      -1654.2345     -1663.5917     -1660.8518     -1.5871445      2.5726223      3.6378461      15843.861    
    197000   321.23205      0.0985         0.16710753     0.16806685     0.16786713    -1654.8779      848.11489      848.11489      848.11489      6.1004809e+08  1.1488145     -54661053      -54661053       956.57418     -54660096      -1649.223      -1658.6909     -1656.7198     -1.467537       2.6600788      3.1717875      15849.53     
    198000   321.04278      0.099          0.16669502     0.16750506     0.1674411     -1650.2712      848.50093      848.50093      848.50093      6.1088148e+08  1.1472473     -54641249      -54641249       956.01058     -54640293      -1645.1519     -1653.1464     -1652.5152     -1.1632147      2.689579       2.8076379      15866.205    
    199000   320.86643      0.0995         0.16627719     0.16700172     0.16694341    -1645.6035      848.88696      848.88696      848.88696      6.1171564e+08  1.1456828     -54621478      -54621478       955.48545     -54620522      -1641.0283     -1648.1788     -1647.6033     -1.0814819      2.6248779      3.4715644      15864.263    
    200000   320.71853      0.1            0.16572872     0.1665515      0.16640677    -1640.5526      849.27299      849.27299      849.27299      6.1255056e+08  1.1441213     -54601743      -54601743       955.04502     -54600788      -1635.6153     -1643.7355     -1642.3071     -1.2836895      2.5869204      4.4225698      15483.134    
    201000   320.7709       0.1005         0.16516236     0.166119       0.16592471    -1635.6808      849.65903      849.65903      849.65903      6.1338623e+08  1.1425625     -54582055      -54582055       955.20097     -54581100      -1630.0257     -1639.4671     -1637.5496     -1.4747694      2.6656205      4.3724037      15868.909    
    202000   320.95583      0.101          0.16473655     0.16568503     0.16550861    -1631.4834      850.04506      850.04506      850.04506      6.1422267e+08  1.1410066     -54562416      -54562416       955.75167     -54561461      -1625.8233     -1635.1841     -1633.4429     -1.6970724      2.6393945      3.4102025      15860.291    
    203000   320.98054      0.1015         0.16439075     0.16523788     0.16514726    -1627.6861      850.43109      850.43109      850.43109      6.1505987e+08  1.1394535     -54542809      -54542809       955.82523     -54541853      -1622.4106     -1630.771      -1629.8767     -1.7667101      2.6208844      2.9156155      15819.002    
    204000   320.74069      0.102          0.16397758     0.16473208     0.16473786    -1623.3161      850.81713      850.81713      850.81713      6.1589782e+08  1.1379032     -54523222      -54523222       955.11099     -54522267      -1618.3329     -1625.7793     -1625.8363     -1.4461626      2.7382321      3.4570454      15844.842    
    205000   320.46519      0.1025         0.16347495     0.1641724      0.16420664    -1618.0738      851.20316      851.20316      851.20316      6.1673654e+08  1.1363558     -54503664      -54503664       954.29061     -54502709      -1613.3723     -1620.2556     -1620.5935     -0.98945544     2.8637628      4.2089145      15860.485    
    206000   320.36804      0.103          0.16301752     0.16373038     0.16367174    -1613.3552      851.58919      851.58919      851.58919      6.1757602e+08  1.1348111     -54484146      -54484146       954.00132     -54483192      -1608.8579     -1615.8932     -1615.3145     -0.70916447     3.1570934      4.3252182      15853.421    
    207000   320.43521      0.1035         0.16263198     0.16343513     0.16325917    -1609.7583      851.97522      851.97522      851.97522      6.1841626e+08  1.1332692     -54464673      -54464673       954.20133     -54463719      -1605.0528     -1612.9793     -1611.2427     -0.98383582     3.3093772      4.0094818      15762.059    
    208000   320.54228      0.104          0.16218301     0.16309004     0.1629055     -1605.9825      852.36126      852.36126      852.36126      6.1925726e+08  1.1317302     -54445234      -54445234       954.52017     -54444280      -1600.6219     -1609.5735     -1607.7522     -1.7462975      3.0119716      3.8975255      15852.499    
    209000   320.52877      0.1045         0.16167147     0.16262082     0.16253271    -1601.5297      852.74729      852.74729      852.74729      6.2009902e+08  1.1301939     -54425825      -54425825       954.47993     -54424870      -1595.5733     -1604.9427     -1604.0731     -2.0978478      2.6755811      3.890838       15834.53     
    210000   320.38494      0.105          0.16122058     0.16211982     0.16209146    -1596.9467      853.13332      853.13332      853.13332      6.2094155e+08  1.1286604     -54406448      -54406448       954.05163     -54405494      -1591.1234     -1599.9982     -1599.7183     -1.6368881      2.7201576      3.719203       15852.935    
    211000   320.28553      0.1055         0.16084771     0.1616983      0.16160731    -1592.7406      853.51936      853.51936      853.51936      6.2178483e+08  1.1271296     -54387104      -54387104       953.75562     -54386150      -1587.4434     -1595.8381     -1594.9402     -0.82934577     2.9217394      3.6117988      15884.646    
    212000   320.27918      0.106          0.1605125      0.16132281     0.1611758     -1588.983       853.90539      853.90539      853.90539      6.2262889e+08  1.1256017     -54367789      -54367789       953.73672     -54366835      -1584.1352     -1592.1323     -1590.6815     -0.53189246     3.1346836      3.6669046      15882.43     
    213000   320.28841      0.1065         0.16011206     0.16088328     0.16076153    -1584.8569      854.29142      854.29142      854.29142      6.234737e+08   1.1240765     -54348508      -54348508       953.76419     -54347554      -1580.1832     -1587.7945     -1586.593      -0.83771448     3.5282348      3.9275761      15833.241    
    214000   320.31883      0.107          0.15962884     0.16039138     0.16027689    -1580.0546      854.67746      854.67746      854.67746      6.2431928e+08  1.122554      -54329266      -54329266       953.85478     -54328312      -1575.4142     -1582.9398     -1581.8099     -1.0814269      3.8070003      4.1463892      15853.506    
    215000   320.32169      0.1075         0.15919819     0.15994976     0.15982954    -1575.7134      855.06349      855.06349      855.06349      6.2516562e+08  1.1210343     -54310059      -54310059       953.86328     -54309105      -1571.164      -1578.5814     -1577.3949     -0.82874599     3.5026768      4.0705909      15877.528    
    216000   320.24541      0.108          0.1588795      0.15959042     0.15953231    -1572.505       855.44952      855.44952      855.44952      6.2601273e+08  1.1195173     -54290878      -54290878       953.63616     -54289925      -1568.0187     -1575.035      -1574.4614     -0.6115169      2.7400489      3.9689801      15846.974    
    217000   320.13257      0.1085         0.15853717     0.15924787     0.15927924    -1569.4195      855.83556      855.83556      855.83556      6.268606e+08   1.1180031     -54271716      -54271716       953.30013     -54270763      -1564.6403     -1571.6543     -1571.9639     -0.98398587     2.3047911      4.1710864      15876.365    
[...]
   4825000   328.64587      2.4125         0.0039235063   0.0039395313   0.0039266693  -38.78512       2634.6764      2634.6764      2634.6764      1.8288659e+10  0.038320585   -5356541.3     -5356541.3      978.65127     -5355562.6     -38.721996     -38.880151     -38.753213      0.084447782   -0.12507494     0.032034754    15380.172    
   4826000   328.62191      2.413          0.0039204909   0.0039367154   0.0039231699  -38.754425      2635.0625      2635.0625      2635.0625      1.8296699e+10  0.038303746   -5352181.4     -5352181.4      978.57993     -5351202.9     -38.692237     -38.852361     -38.718677      0.090148378   -0.12785803     0.03107692     15267.391    
   4827000   328.60282      2.4135         0.0039174218   0.003934066    0.0039200581  -38.725375      2635.4485      2635.4485      2635.4485      1.8304742e+10  0.038286916   -5347823.6     -5347823.6      978.52309     -5346845.1     -38.661947     -38.826212     -38.687966      0.095668221   -0.1295847      0.03461848     15385.958    
   4828000   328.6056       2.414          0.0039139447   0.0039308959   0.0039165089  -38.691832      2635.8345      2635.8345      2635.8345      1.8312787e+10  0.038270097   -5343468.1     -5343468.1      978.53137     -5342489.5     -38.627631     -38.794927     -38.652938      0.099164228   -0.12909582     0.040040258    15431.535    
   4829000   328.63047      2.4145         0.0039102938   0.0039271412   0.0039126959  -38.654925      2636.2206      2636.2206      2636.2206      1.8320834e+10  0.038253287   -5339115.4     -5339115.4      978.60541     -5338136.8     -38.591599     -38.75787      -38.615306      0.097732361   -0.12780889     0.045578484    15425.224    
   4830000   328.66037      2.415          0.003906807    0.0039233635   0.003909071   -38.619102      2636.6066      2636.6066      2636.6066      1.8328883e+10  0.038236487   -5334766       -5334766        978.69445     -5333787.3     -38.557188     -38.720587     -38.579532      0.092807911   -0.12735212     0.047597053    15377.153    
   4831000   328.67415      2.4155         0.0039032726   0.0039194419   0.0039055189  -38.582888      2636.9926      2636.9926      2636.9926      1.8336935e+10  0.038219697   -5330419.2     -5330419.2      978.7355      -5329440.5     -38.522306     -38.681884     -38.544474      0.090491801   -0.12765019     0.046530432    15401.617    
   4832000   328.66968      2.416          0.0038995198   0.0039152592   0.0039019427  -38.545018      2637.3787      2637.3787      2637.3787      1.834499e+10   0.038202917   -5326075.6     -5326075.6      978.72219     -5325096.9     -38.485268     -38.640604     -38.50918       0.092510229   -0.12737466     0.046972369    15392.105    
   4833000   328.65737      2.4165         0.0038961074   0.0039115753   0.0038984444  -38.510164      2637.7647      2637.7647      2637.7647      1.8353046e+10  0.038186146   -5321735.2     -5321735.2      978.68551     -5320756.5     -38.451591     -38.604247     -38.474655      0.097190778   -0.12608463     0.048180171    15414.705    
   4834000   328.64459      2.417          0.0038931431   0.0039084785   0.0038948199  -38.478301      2638.1507      2638.1507      2638.1507      1.8361105e+10  0.038169386   -5317397.1     -5317397.1      978.64747     -5316418.4     -38.422335     -38.573683     -38.438884      0.10195739    -0.12757949     0.04873809     15426.248    
   4835000   328.63366      2.4175         0.0038904686   0.0039054437   0.00389102    -38.447018      2638.5368      2638.5368      2638.5368      1.8369167e+10  0.038152635   -5313061.4     -5313061.4      978.61493     -5312082.8     -38.395939     -38.543733     -38.401381      0.1051866     -0.12983483     0.050955189    15413.743    
   4836000   328.62665      2.418          0.0038874875   0.003902241    0.0038874772  -38.41502       2638.9228      2638.9228      2638.9228      1.837723e+10   0.038135894   -5308728       -5308728        978.59405     -5307749.4     -38.366519     -38.512125     -38.366417      0.10623595    -0.13086706     0.055045567    15356.591    
   4837000   328.62507      2.4185         0.0038835831   0.0038983976   0.0038834327  -38.376226      2639.3088      2639.3088      2639.3088      1.8385296e+10  0.038119163   -5304397.3     -5304397.3      978.58935     -5303418.7     -38.327985     -38.474193     -38.326501      0.10470215    -0.13184133     0.060793533    15399.895    
   4838000   328.62908      2.419          0.0038789236   0.003894328    0.0038790621  -38.333131      2639.6949      2639.6949      2639.6949      1.8393365e+10  0.038102442   -5300070.3     -5300070.3      978.60127     -5299091.7     -38.281999     -38.434029     -38.283366      0.10099942    -0.13088476     0.066545139    15435.79     
   4839000   328.63303      2.4195         0.0038745319   0.0038905934   0.0038753388  -38.29415       2640.0809      2640.0809      2640.0809      1.8401436e+10  0.03808573    -5295747.1     -5295747.1      978.61303     -5294768.5     -38.238657     -38.397172     -38.246621      0.09779113    -0.12592156     0.069602899    15419.653    
   4840000   328.64287      2.42           0.003870986    0.0038870937   0.0038718311  -38.259432      2640.4669      2640.4669      2640.4669      1.8409509e+10  0.038069028   -5291426.9     -5291426.9      978.64234     -5290448.3     -38.203661     -38.362632     -38.212002      0.095228609   -0.12046522     0.071683244    15426.204    
   4841000   328.6643       2.4205         0.0038681501   0.0038839015   0.0038686529  -38.229146      2640.853       2640.853       2640.853       1.8417584e+10  0.038052336   -5287109.1     -5287109.1      978.70616     -5286130.4     -38.175674     -38.331127     -38.180636      0.094667218   -0.11761198     0.071150161    15376.721    
   4842000   328.68409      2.421          0.0038653358   0.0038806896   0.003865887   -38.200222      2641.239       2641.239       2641.239       1.8425662e+10  0.038035654   -5282793.6     -5282793.6      978.7651      -5281814.8     -38.147899     -38.299429     -38.153338      0.096484231   -0.11876813     0.067786835    15422.325    
   4843000   328.69578      2.4215         0.0038617569   0.0038768666   0.0038626736  -38.1653        2641.625       2641.625       2641.625       1.8433743e+10  0.038018981   -5278480.2     -5278480.2      978.79989     -5277501.4     -38.112577     -38.261698     -38.121625      0.10016873    -0.12409385     0.062308689    15420.945    
   4844000   328.70612      2.422          0.0038573969   0.003872699    0.0038591335  -38.1256        2642.0111      2642.0111      2642.0111      1.8441825e+10  0.038002318   -5274170.2     -5274170.2      978.8307      -5273191.4     -38.069548     -38.220567     -38.086686      0.10505117    -0.13036708     0.057325413    15406.001    
   4845000   328.71417      2.4225         0.0038530665   0.0038684163   0.0038558412  -38.086435      2642.3971      2642.3971      2642.3971      1.844991e+10   0.037985665   -5269863.6     -5269863.6      978.85467     -5268884.8     -38.026809     -38.178301     -38.054194      0.10892444    -0.13482684     0.055177594    15329.547    
   4846000   328.72766      2.423          0.0038491016   0.0038644503   0.0038525342  -38.049465      2642.7831      2642.7831      2642.7831      1.8457997e+10  0.037969022   -5265560.4     -5265560.4      978.89485     -5264581.5     -37.987679     -38.139159     -38.021557      0.11207577    -0.13639023     0.054773681    15384.002    
   4847000   328.75602      2.4235         0.0038458983   0.0038618376   0.0038490666  -38.018924      2643.1692      2643.1692      2643.1692      1.8466087e+10  0.037952388   -5261260.1     -5261260.1      978.97929     -5260281.1     -37.956065     -38.113374     -37.987334      0.1139821     -0.1330683      0.05348346     15395.898    
   4848000   328.79827      2.424          0.0038431953   0.0038601982   0.00384575    -37.993728      2643.5552      2643.5552      2643.5552      1.8474179e+10  0.037935764   -5256961.8     -5256961.8      979.1051      -5255982.7     -37.929388     -38.097194     -37.954602      0.11410755    -0.12834391     0.0519309      15376.128    
   4849000   328.84294      2.4245         0.0038406707   0.0038586131   0.0038424148  -37.969237      2643.9412      2643.9412      2643.9412      1.8482274e+10  0.03791915    -5252664.9     -5252664.9      979.23813     -5251685.7     -37.904473     -38.081551     -37.921686      0.11564042    -0.12556294     0.050206968    15400.396    
   4850000   328.88733      2.425          0.0038378676   0.0038560698   0.003838379   -37.938371      2644.3273      2644.3273      2644.3273      1.849037e+10   0.037902546   -5248370.1     -5248370.1      979.37032     -5247390.7     -37.876808     -38.05645      -37.881855      0.12104596    -0.12351957     0.048974985    15062.464    
   4851000   328.91453      2.4255         0.0038344898   0.003852739    0.0038344409  -37.903346      2644.7133      2644.7133      2644.7133      1.849847e+10   0.037885951   -5244078       -5244078        979.45131     -5243098.6     -37.843472     -38.023578     -37.842989      0.12673901    -0.12023885     0.051526751    15315.333    
   4852000   328.91423      2.426          0.0038299974   0.0038488589   0.0038304256  -37.862594      2645.0993      2645.0993      2645.0993      1.8506571e+10  0.037869366   -5239789.1     -5239789.1      979.45041     -5238809.6     -37.799135     -37.985284     -37.803362      0.12830383    -0.11905284     0.055680699    15353.607    
   4853000   328.90108      2.4265         0.0038254858   0.0038446611   0.0038262609  -37.820241      2645.4854      2645.4854      2645.4854      1.8514675e+10  0.03785279    -5235503.9     -5235503.9      979.41125     -5234524.5     -37.754609     -37.943855     -37.762259      0.12691294    -0.12106661     0.055216363    15366.656    
   4854000   328.87885      2.427          0.0038209605   0.0038404013   0.0038222415  -37.778118      2645.8714      2645.8714      2645.8714      1.8522781e+10  0.037836225   -5231222.4     -5231222.4      979.34505     -5230243.1     -37.709948     -37.901814     -37.722591      0.12572678    -0.12312143     0.049470168    15384.821    
   4855000   328.85214      2.4275         0.0038158644   0.0038364275   0.0038182517  -37.735154      2646.2574      2646.2574      2646.2574      1.853089e+10   0.037819669   -5226944.6     -5226944.6      979.26552     -5225965.3     -37.659653     -37.862595     -37.683214      0.12414974    -0.12243606     0.042548007    15343.396    
   4856000   328.83071      2.428          0.0038111299   0.0038332414   0.0038143755  -37.696346      2646.6435      2646.6435      2646.6435      1.8539001e+10  0.037803122   -5222670.5     -5222670.5      979.2017      -5221691.3     -37.612928     -37.831151     -37.644959      0.12484351    -0.1181094      0.03786723     15355.619    
   4857000   328.80723      2.4285         0.0038077251   0.0038306203   0.0038108285  -37.664854      2647.0295      2647.0295      2647.0295      1.8547114e+10  0.037786585   -5218399       -5218399        979.13179     -5217419.9     -37.579325     -37.805283     -37.609953      0.12550082    -0.11476556     0.037759345    15426.986    
   4858000   328.79199      2.429          0.0038044389   0.0038274567   0.0038072094  -37.631729      2647.4155      2647.4155      2647.4155      1.855523e+10   0.037770058   -5214129.9     -5214129.9      979.08641     -5213150.8     -37.546892     -37.77406      -37.574235      0.12382937    -0.11600831     0.041117897    15399.039    
   4859000   328.7936       2.4295         0.0038012497   0.0038241272   0.003803827   -37.599157      2647.8016      2647.8016      2647.8016      1.8563348e+10  0.037753541   -5209863.7     -5209863.7      979.0912      -5208884.6     -37.515418     -37.741201     -37.540854      0.12242136    -0.11848856     0.044315228    15335.339    
   4860000   328.79479      2.43           0.003798345    0.0038213872   0.0038006301  -37.570071      2648.1876      2648.1876      2648.1876      1.8571468e+10  0.037737033   -5205599.6     -5205599.6      979.09475     -5204620.5     -37.48675      -37.71416      -37.509303      0.12110231    -0.12025279     0.045742643    15409.679    
   4861000   328.79009      2.4305         0.0037952442   0.00381875     0.003796834   -37.538706      2648.5736      2648.5736      2648.5736      1.8579591e+10  0.037720534   -5201337.8     -5201337.8      979.08074     -5200358.7     -37.456148     -37.688133     -37.471838      0.11767447    -0.12100562     0.04593456     15375.951    
   4862000   328.78131      2.431          0.0037917126   0.0038155693   0.0037926321  -37.502801      2648.9597      2648.9597      2648.9597      1.8587716e+10  0.037704046   -5197078.6     -5197078.6      979.05461     -5196099.5     -37.421294     -37.656741     -37.430369      0.11511048    -0.1204673      0.044707424    15357.281    
   4863000   328.77701      2.4315         0.0037876888   0.0038116535   0.0037891361  -37.465181      2649.3457      2649.3457      2649.3457      1.8595844e+10  0.037687567   -5192822.6     -5192822.6      979.04179     -5191843.6     -37.381582     -37.618095     -37.395866      0.11512458    -0.11971661     0.0441316      15363.473    
   4864000   328.78034      2.432          0.0037837586   0.0038078512   0.0037868178  -37.432116      2649.7317      2649.7317      2649.7317      1.8603974e+10  0.037671097   -5188569.8     -5188569.8      979.0517      -5187590.7     -37.342794     -37.580569     -37.372986      0.11602323    -0.11877591     0.044116551    15323.966    
   4865000   328.78823      2.4325         0.0037799661   0.003804755    0.0037844349  -37.401615      2650.1178      2650.1178      2650.1178      1.8612106e+10  0.037654637   -5184319.1     -5184319.1      979.07522     -5183340.1     -37.305365     -37.550012     -37.349469      0.11821345    -0.11733805     0.045277842    15375.769    
   4866000   328.80813      2.433          0.003776124    0.0038020428   0.0037811244  -37.369163      2650.5038      2650.5038      2650.5038      1.8620241e+10  0.037638187   -5180071.1     -5180071.1      979.13448     -5179092       -37.267447     -37.523245     -37.316797      0.12067619    -0.11956625     0.048039978    15397.8      
   4867000   328.83082      2.4335         0.0037728034   0.0037995473   0.0037779203  -37.339488      2650.8898      2650.8898      2650.8898      1.8628378e+10  0.037621747   -5175825.6     -5175825.6      979.20203     -5174846.4     -37.234675     -37.498616     -37.285174      0.11937912    -0.12484409     0.050750235    15360.055    
   4868000   328.84254      2.434          0.0037702882   0.003796515    0.0037745355  -37.310103      2651.2759      2651.2759      2651.2759      1.8636517e+10  0.037605315   -5171582.2     -5171582.2      979.23692     -5170603       -37.209852     -37.468689     -37.251769      0.11780561    -0.12631451     0.053212105    15356.871    
   4869000   328.84868      2.4345         0.0037676926   0.0037928581   0.0037712023  -37.278569      2651.6619      2651.6619      2651.6619      1.8644659e+10  0.037588894   -5167341.2     -5167341.2      979.25522     -5166362       -37.184235     -37.432599     -37.218873      0.11848967    -0.12425613     0.055043525    15319.67     
   4870000   328.85259      2.435          0.0037643806   0.0037891651   0.0037677946  -37.244314      2652.0479      2652.0479      2652.0479      1.8652803e+10  0.037572482   -5163102.8     -5163102.8      979.26686     -5162123.5     -37.151548     -37.396152     -37.185241      0.12158535    -0.12255658     0.056732383    15268.093    
   4871000   328.85853      2.4355         0.0037608276   0.0037858424   0.0037641762  -37.209791      2652.434       2652.434       2652.434       1.866095e+10   0.03755608    -5158867.3     -5158867.3      979.28453     -5157888.1     -37.116483     -37.36336      -37.149531      0.12462753    -0.12222748     0.057190921    15389.316    
   4872000   328.86314      2.436          0.0037572169   0.00378313     0.0037608363  -37.178002      2652.82        2652.82        2652.82        1.8669099e+10  0.037539687   -5154634.6     -5154634.6      979.29827     -5153655.3     -37.080848     -37.33659      -37.116568      0.12661893    -0.12315531     0.053491228    15381.18     
   4873000   328.85834      2.4365         0.0037536758   0.0037806343   0.0037578629  -37.148361      2653.206       2653.206       2653.206       1.867725e+10   0.037523303   -5150404.2     -5150404.2      979.28397     -5149424.9     -37.0459       -37.311959     -37.087223      0.1289608     -0.12499883     0.049704387    15405.5      
   4874000   328.84682      2.437          0.0037500969   0.0037777815   0.0037549368  -37.117576      2653.5921      2653.5921      2653.5921      1.8685404e+10  0.037506929   -5146175.9     -5146175.9      979.24967     -5145196.6     -37.010579     -37.283805     -37.058345      0.13201328    -0.12593723     0.048648314    15404.411    
   4875000   328.83995      2.4375         0.003746131    0.0037746729   0.0037514129  -37.08271       2653.9781      2653.9781      2653.9781      1.869356e+10   0.037490565   -5141950.3     -5141950.3      979.22922     -5140971       -36.971439     -37.253125     -37.023566      0.13548768    -0.12845828     0.048638479    15375.887    
   4876000   328.8359       2.438          0.003742695    0.0037714516   0.0037475555  -37.048119      2654.3641      2654.3641      2654.3641      1.8701718e+10  0.03747421    -5137727.6     -5137727.6      979.21715     -5136748.4     -36.937528     -37.221333     -36.985497      0.13642583    -0.13331841     0.048252548    15357.566    
   4877000   328.82441      2.4385         0.0037394801   0.0037680499   0.0037439393  -37.014456      2654.7502      2654.7502      2654.7502      1.8709879e+10  0.037457865   -5133507.7     -5133507.7      979.18293     -5132528.5     -36.905799     -37.187761     -36.949808      0.13460263    -0.13951643     0.045978142    15402.492    
   4878000   328.80507      2.439          0.0037361785   0.0037643542   0.0037407135  -36.980825      2655.1362      2655.1362      2655.1362      1.8718042e+10  0.037441529   -5129290.4     -5129290.4      979.12535     -5128311.3     -36.873215     -37.151288     -36.917972      0.13169576    -0.14370234     0.040441583    15397.508    
   4879000   328.7855       2.4395         0.003732905    0.0037605262   0.0037379405  -36.94834       2655.5222      2655.5222      2655.5222      1.8726207e+10  0.037425203   -5125075.8     -5125075.8      979.06708     -5124096.8     -36.840908     -37.113508     -36.890604      0.12834949    -0.14137324     0.033960521    15333.403    
   4880000   328.76536      2.44           0.0037298179   0.0037570492   0.0037351746  -36.917647      2655.9083      2655.9083      2655.9083      1.8734375e+10  0.037408886   -5120863.7     -5120863.7      979.00712     -5119884.6     -36.810441     -37.079193     -36.863307      0.12633186    -0.13614902     0.029370178    15391.249    
   4881000   328.74421      2.4405         0.0037266771   0.0037540123   0.0037317823  -36.886164      2656.2943      2656.2943      2656.2943      1.8742545e+10  0.037392579   -5116653.7     -5116653.7      978.94411     -5115674.7     -36.779443     -37.049221     -36.829827      0.12695962    -0.13294095     0.028464736    15387.713    
   4882000   328.72555      2.441          0.0037231119   0.0037506353   0.0037278714  -36.85046       2656.6803      2656.6803      2656.6803      1.8750718e+10  0.037376281   -5112446.4     -5112446.4      978.88857     -5111467.5     -36.744258     -37.015892     -36.79123       0.12629724    -0.13385904     0.030943996    15322.753    
ERROR on proc 0: Pair distance > table outer cutoff: ijtype 2 2 dist 473.9000733244492 (src/pair_table_pgn.cpp:138)
Last command: run				${steps_tensile}
