LAMMPS (23 Jun 2022 - Update 1)
OMP_NUM_THREADS environment is not set. Defaulting to 1 thread. (src/comm.cpp:98)
  using 1 OpenMP thread(s) per MPI task
###

# Read restart info
read_restart ${read_res}
read_restart ./trial10/1000/equpmf70.res
Reading restart file ...
  restart file = 23 Jun 2022, LAMMPS = 23 Jun 2022
  restoring atom style atomic from restart
  orthogonal box = (1747.3097 1747.3097 1747.3097) to (2252.6903 2252.6903 2252.6903)
  1 by 2 by 2 MPI processor grid
  restoring pair style table from restart
  1000 atoms
  read_restart CPU = 0.042 seconds

# Settings
pair_style table/pgn spline 10941
pair_coeff 1 1 N20e.txt DE_GNP 308 72.9   # 1.35 * r
pair_coeff 2 2 N100e.txt DE_GNP 473.9 111.78
WARNING: 20 of 10941 force values in table DE_GNP are inconsistent with -dE/dr.
WARNING:  Should only be flagged at inflection points (src/pair_table_pgn.cpp:478)
pair_coeff 1 2 mixed_potentiale.txt DE_GNP 391.2 92.95
WARNING: 1564 of 10941 force values in table DE_GNP are inconsistent with -dE/dr.
WARNING:  Should only be flagged at inflection points (src/pair_table_pgn.cpp:478)

# Neighbor list
neighbor 2.0 bin
neigh_modify delay 0 every 1 check no once yes

# Temperature
variable T equal ${Temp}
variable T equal 300

# Deformation
reset_timestep 0
variable tmp equal "lx"
variable L0 equal ${tmp}
variable L0 equal 505.380692828222
variable strain equal "(lx - v_L0)/v_L0"
variable stp equal "step"
variable tmpe equal "temp"
variable p1 equal "v_strain"
variable p2 equal "-pxx*1.01325/10000"
variable p3 equal "-pyy*1.01325/10000"
variable p4 equal "-pzz*1.01325/10000"
variable p5 equal "lx"
variable p6 equal "ly"
variable p7 equal "lz"
variable p8 equal "press"
variable p9 equal "epair"
variable p10 equal "etotal"

# Thermo
thermo_style custom step temp v_p1 v_p2 v_p3 v_p4 press lx ly lz vol density epair pe ke etotal pxx pyy pzz pxy pxz pyz spcpu
thermo ${ts_save}
thermo 1000

# Dump
# dump 1 all custom 2000 ./${N20}${N100}/tensile/trajectory/trajectory_${usic}_${trial}_*.tensile.custom id type x y z ix iy iz
# dump_modify 1 sort id
dump 2 all cfg 50000 ./trial${trial}/${N20}${N100}/tensile/trajectory/dumpten.tens_${usic}_${trial}_*.cfg mass type xs ys zs fx fy fz
dump 2 all cfg 50000 ./trial10/${N20}${N100}/tensile/trajectory/dumpten.tens_${usic}_${trial}_*.cfg mass type xs ys zs fx fy fz
dump 2 all cfg 50000 ./trial10/100${N100}/tensile/trajectory/dumpten.tens_${usic}_${trial}_*.cfg mass type xs ys zs fx fy fz
dump 2 all cfg 50000 ./trial10/1000/tensile/trajectory/dumpten.tens_${usic}_${trial}_*.cfg mass type xs ys zs fx fy fz
dump 2 all cfg 50000 ./trial10/1000/tensile/trajectory/dumpten.tens_1_${trial}_*.cfg mass type xs ys zs fx fy fz
dump 2 all cfg 50000 ./trial10/1000/tensile/trajectory/dumpten.tens_1_10_*.cfg mass type xs ys zs fx fy fz
dump_modify 2 element N20 N100

fix 1 all nvt temp ${T} ${T} 100
fix 1 all nvt temp 300 ${T} 100
fix 1 all nvt temp 300 300 100
fix 2 all deform 1 x erate ${strain_rate} y erate ${strain_rate} z erate ${strain_rate} units box
fix 2 all deform 1 x erate 5e-6 y erate ${strain_rate} z erate ${strain_rate} units box
fix 2 all deform 1 x erate 5e-6 y erate 5e-6 z erate ${strain_rate} units box
fix 2 all deform 1 x erate 5e-6 y erate 5e-6 z erate 5e-6 units box
fix             def1 all print ${ts_save} "${p1} ${p2} ${p3} ${p4}" file ./tensile/${trial}/tensile${N20}${N100}_${usic}_${trial}.txt screen no
fix             def1 all print 1000 "${p1} ${p2} ${p3} ${p4}" file ./tensile/${trial}/tensile${N20}${N100}_${usic}_${trial}.txt screen no
fix             def1 all print 1000 "${p1} ${p2} ${p3} ${p4}" file ./tensile/10/tensile${N20}${N100}_${usic}_${trial}.txt screen no
fix             def1 all print 1000 "${p1} ${p2} ${p3} ${p4}" file ./tensile/10/tensile100${N100}_${usic}_${trial}.txt screen no
fix             def1 all print 1000 "${p1} ${p2} ${p3} ${p4}" file ./tensile/10/tensile1000_${usic}_${trial}.txt screen no
fix             def1 all print 1000 "${p1} ${p2} ${p3} ${p4}" file ./tensile/10/tensile1000_1_${trial}.txt screen no
fix             def1 all print 1000 "${p1} ${p2} ${p3} ${p4}" file ./tensile/10/tensile1000_1_10.txt screen no

timestep       		${ts}
timestep       		0.1
run				${steps_tensile}
run				6000000
Generated 0 of 1 mixed pair_coeff terms from geometric mixing rule
Unused restart file global fix info:
  fix style: npt, fix ID: 5
Neighbor list info ...
  update every 1 steps, delay 0 steps, check no
  max neighbors/atom: 2000, page size: 100000
  master list distance cutoff = 113.78
  ghost atom cutoff = 113.78
  binsize = 56.89, bins = 9 9 9
  1 neighbor lists, perpetual/occasional/extra = 1 0 0
  (1) pair table/pgn, perpetual
      attributes: half, newton on
      pair build: half/bin/atomonly/newton
      stencil: half/bin/3d
      bin: standard
Per MPI rank memory allocation (min/avg/max) = 3.864 | 3.864 | 3.864 Mbytes
   Step          Temp           v_p1           v_p2           v_p3           v_p4          Press            Lx             Ly             Lz           Volume        Density         E_pair         PotEng         KinEng         TotEng          Pxx            Pyy            Pzz            Pxy            Pxz            Pyz           S/CPU     
         0   293.09324     -4.4990574e-16 -0.0013738114  -0.0067815453   0.00061873778  24.793549      505.38069      505.38069      505.38069      1.290791e+08   2.8540036     -5243887.5     -5243887.5      872.78162     -5243014.7      13.558465      66.928648     -6.1064671     -30.462833      12.99765       107.0934       0            
      1000   312.83769      0.0005         0.013939072    0.0081997928   0.015215874   -122.88754      505.63338      505.63338      505.63338      1.2927282e+08  2.8497268     -5243747.9     -5243747.9      931.57722     -5242816.3     -137.56795     -80.925663     -150.169       -28.907026      16.029656      109.63085      11863.699    
      2000   308.34807      0.001          0.025598483    0.01981623     0.026047447   -235.09223      505.88607      505.88607      505.88607      1.2946673e+08  2.8454586     -5243271.7     -5243271.7      918.2079      -5242353.5     -252.63739     -195.57098     -257.06831     -29.542287      12.889076      107.59703      12316.934    
      3000   314.43944      0.0015         0.032434456    0.026728448    0.03257756    -301.80266      506.13876      506.13876      506.13876      1.2966083e+08  2.841199      -5242580.8     -5242580.8      936.34694     -5241644.5     -320.10319     -263.78927     -321.51552     -27.949127      7.5092542      102.07338      12464.459    
      4000   314.66927      0.002          0.037604436    0.031485822    0.037449614   -350.48893      506.39145      506.39145      506.39145      1.2985513e+08  2.8369478     -5241741.7     -5241741.7      937.03136     -5240804.7     -371.12693     -310.7409      -369.59896     -25.439493      6.1622363      97.795615      12623.721    
      5000   315.05412      0.0025         0.044094174    0.037489412    0.043847784   -412.63713      506.64414      506.64414      506.64414      1.3004962e+08  2.8327051     -5240729.1     -5240729.1      938.17738     -5239791       -435.17566     -369.99173     -432.74398     -25.104079      8.7715754      97.039442      12697.779    
      6000   313.79395      0.003          0.052376401    0.045885456    0.052642555   -496.43692      506.89683      506.89683      506.89683      1.302443e+08   2.8284709     -5239490.3     -5239490.3      934.42479     -5238555.9     -516.91488     -452.85424     -519.54162     -26.00874       10.039837      100.04551      12720.26     
      7000   312.01098      0.0035         0.061242315    0.055399072    0.062513287   -589.37305      507.14953      507.14953      507.14953      1.3043918e+08  2.8242451     -5237994.2     -5237994.2      929.11542     -5237065.1     -604.41466     -546.74633     -616.95817     -24.459785      9.0907275      103.25523      12702.311    
      8000   311.47889      0.004          0.069972529    0.064749868    0.072022125   -680.1366       507.40222      507.40222      507.40222      1.3063426e+08  2.8200277     -5236231.7     -5236231.7      927.53095     -5235304.2     -690.57516     -639.03151     -710.80311     -22.289187      7.5659682      101.66796      13929.649    
      9000   313.30518      0.0045         0.078733937    0.073588335    0.08053689    -766.04708      507.65491      507.65491      507.65491      1.3082952e+08  2.8158187     -5234215.9     -5234215.9      932.96934     -5233282.9     -777.04354     -726.2604      -794.83731     -23.272661      6.0209047      97.309259      14364.394    
     10000   316.41852      0.005          0.087409022    0.081887808    0.08815488    -846.95028      507.9076       507.9076       507.9076       1.3102499e+08  2.8116181     -5231975       -5231975        942.24032     -5231032.8     -862.65998     -808.16983     -870.02102     -23.547528      6.0455371      92.583784      14103.023    
     11000   319.62185      0.0055         0.095359109    0.089186719    0.095117887   -920.02209      508.16029      508.16029      508.16029      1.3122064e+08  2.8074258     -5229535.9     -5229535.9      951.7793      -5228584.1     -941.12123     -880.20448     -938.74056     -23.049998      7.95879        89.160965      14379.616    
     12000   322.58867      0.006          0.10235303     0.095740504    0.1017405     -986.37729      508.41298      508.41298      508.41298      1.314165e+08   2.8032419     -5226906.3     -5226906.3      960.61399     -5225945.7     -1010.1459     -944.88531     -1004.1007     -21.805144      10.003436      88.894992      14303.859    
     13000   325.04667      0.0065         0.10849215     0.10228553     0.10834488    -1049.8316      508.66567      508.66567      508.66567      1.3161254e+08  2.7990662     -5224089.3     -5224089.3      967.93348     -5223121.4     -1070.7342     -1009.4797     -1069.2808     -17.85675       11.178433      90.369519      14406.548    
     14000   326.43852      0.007          0.11442842     0.10930161     0.11509651    -1114.6527      508.91836      508.91836      508.91836      1.3180878e+08  2.7948989     -5221086       -5221086        972.07816     -5220113.9     -1129.3207     -1078.723      -1135.9143     -13.353083      11.155808      88.564437      14382.391    
     15000   326.68065      0.0075         0.12130196     0.11654624     0.1220498     -1183.9724      509.17105      509.17105      509.17105      1.3200522e+08  2.7907398     -5217894.7     -5217894.7      972.79919     -5216921.9     -1197.1573     -1150.2219     -1204.5379     -8.9816798      9.5344953      86.609234      14396.165    
     16000   327.25075      0.008          0.12891894     0.12349015     0.12925296    -1255.5705      509.42374      509.42374      509.42374      1.3220185e+08  2.786589      -5214505.7     -5214505.7      974.49684     -5213531.2     -1272.331      -1218.753      -1275.6275     -8.3970212      4.479224       87.017474      14418.814    
     17000   329.42495      0.0085         0.13592419     0.12993399     0.13654591    -1323.8066      509.67643      509.67643      509.67643      1.3239868e+08  2.7824464     -5210918.8     -5210918.8      980.97126     -5209937.8     -1341.4675     -1282.3488     -1347.6034     -12.231625      1.3702443      88.236378      14403.745    
     18000   332.78767      0.009          0.14203718     0.13601806     0.14336679    -1386.3707      509.92912      509.92912      509.92912      1.325957e+08   2.778312      -5207157.7     -5207157.7      990.98484     -5206166.7     -1401.798      -1342.3939     -1414.9202     -15.061137      3.8146137      87.444782      14377.581    
     19000   335.8626       0.0095         0.14803035     0.14217459     0.14923333    -1445.6395      510.18181      510.18181      510.18181      1.3279292e+08  2.7741858     -5203235.3     -5203235.3      1000.1415     -5202235.2     -1460.9459     -1403.1541     -1472.8185     -15.834543      7.4532872      84.119601      14435.061    
     20000   338.03945      0.01           0.15397691     0.14865737     0.15451608    -1503.9078      510.4345       510.4345       510.4345       1.3299033e+08  2.7700677     -5199142.8     -5199142.8      1006.6238     -5198136.2     -1519.634      -1467.1342     -1524.9552     -13.781743      9.3904811      81.172926      14386.03     
     21000   339.62306      0.0105         0.15963494     0.15493251     0.15996124    -1561.078       510.68719      510.68719      510.68719      1.3318794e+08  2.7659578     -5194876.7     -5194876.7      1011.3395     -5193865.3     -1575.4743     -1529.065      -1578.6947     -10.525433      9.7744898      79.520907      14406.851    
     22000   340.73531      0.011          0.16497        0.16049962     0.16593656    -1616.6007      510.93988      510.93988      510.93988      1.3338574e+08  2.7618561     -5190445.8     -5190445.8      1014.6516     -5189431.2     -1628.1273     -1584.0081     -1637.6665     -8.140939       10.013584      79.333744      14388.645    
     23000   341.46081      0.0115         0.17058604     0.16568088     0.17175329    -1671.2566      511.19257      511.19257      511.19257      1.3358374e+08  2.7577624     -5185862.1     -5185862.1      1016.812      -5184845.3     -1683.5533     -1635.1432     -1695.0732     -6.2515432      8.9755804      79.146628      14427.079    
     24000   342.15578      0.012          0.17686806     0.17088216     0.17692473    -1726.0464      511.44526      511.44526      511.44526      1.3378194e+08  2.7536768     -5181129.3     -5181129.3      1018.8815     -5180110.4     -1745.5521     -1686.4758     -1746.1113     -3.8945313      6.9705547      76.778927      14414.746    
     25000   343.48073      0.0125         0.18288503     0.17611948     0.18181454    -1779.1564      511.69795      511.69795      511.69795      1.3398033e+08  2.7495993     -5176248.3     -5176248.3      1022.827      -5175225.5     -1804.9349     -1738.1642     -1794.37       -1.1821256      6.5036845      72.439405      14343.485    
     26000   345.72558      0.013          0.18777681     0.18130767     0.18697017    -1829.2776      511.95064      511.95064      511.95064      1.3417891e+08  2.7455299     -5171219.1     -5171219.1      1029.5118     -5170189.6     -1853.2131     -1789.3676     -1845.2521     -1.5679099      6.7229574      70.189857      14424.573    
     27000   347.88602      0.0135         0.19215279     0.18656322     0.19254462    -1879.3013      512.20333      512.20333      512.20333      1.343777e+08   2.7414684     -5166039.7     -5166039.7      1035.9452     -5165003.7     -1896.4006     -1841.2358     -1900.2676     -5.7276085      5.5323666      71.67423       14418.114    
     28000   348.7538       0.014          0.19668041     0.19165478     0.19804416    -1929.0381      512.45602      512.45602      512.45602      1.3457668e+08  2.737415      -5160715.6     -5160715.6      1038.5293     -5159677.1     -1941.0847     -1891.4857     -1954.5439     -9.3516569      5.4813778      73.627675      14475.905    
     29000   348.8007       0.0145         0.201341       0.19636473     0.20279626    -1975.498       512.70871      512.70871      512.70871      1.3477585e+08  2.7333696     -5155257.6     -5155257.6      1038.6689     -5154219       -1987.0812     -1937.9692     -2001.4435     -10.399897      8.1334191      73.320711      14445.766    
     30000   349.24324      0.015          0.20588959     0.20073661     0.20666865    -2017.5832      512.9614       512.9614       512.9614       1.3497523e+08  2.7293321     -5149670.4     -5149670.4      1039.9867     -5148630.4     -2031.9723     -1981.1163     -2039.661      -7.2705747      9.0991877      72.051652      14447.721    
     31000   350.37812      0.0155         0.21043759     0.20490336     0.21026149    -2058.072       513.21409      513.21409      513.21409      1.351748e+08   2.7253026     -5143955.7     -5143955.7      1043.3662     -5142912.4     -2076.8575     -2022.239      -2075.1196     -1.8487017      5.140522       69.915396      14449.761    
     32000   351.32276      0.016          0.21503357     0.20926652     0.2144417     -2101.2971      513.46678      513.46678      513.46678      1.3537456e+08  2.721281      -5138116.6     -5138116.6      1046.1792     -5137070.4     -2122.2163     -2065.3        -2116.375       1.4363492      3.2022494      67.238898      14448.252    
     33000   351.44563      0.0165         0.21926666     0.21402486     0.21922136    -2146.6005      513.71947      513.71947      513.71947      1.3557452e+08  2.7172673     -5132156       -5132156        1046.5451     -5131109.4     -2163.9936     -2112.2612     -2163.5466      0.37423562     8.3790483      65.327699      14467.112    
     34000   351.48977      0.017          0.22321283     0.21864654     0.2235385     -2188.9888      513.97216      513.97216      513.97216      1.3577468e+08  2.7132615     -5126070.1     -5126070.1      1046.6765     -5125023.5     -2202.9394     -2157.8735     -2206.1535     -3.0227229      13.316525      65.385757      14452.579    
     35000   352.19549      0.0175         0.22713695     0.22276929     0.2269979     -2226.8415      514.22485      514.22485      514.22485      1.3597504e+08  2.7092636     -5119858.4     -5119858.4      1048.778      -5118809.6     -2241.6674     -2198.562      -2240.2951     -4.0462094      12.46666       64.976359      14466.361    
     36000   353.30551      0.018          0.23066248     0.22642925     0.23055843    -2262.1931      514.47755      514.47755      514.47755      1.3617559e+08  2.7052735     -5113539       -5113539        1052.0835     -5112486.9     -2276.4616     -2234.6829     -2275.4348     -0.15396389     9.0000835      62.472         14449.914    
     37000   354.52449      0.0185         0.23376976     0.22962753     0.23462665    -2296.3202      514.73024      514.73024      514.73024      1.3637634e+08  2.7012912     -5107123.7     -5107123.7      1055.7134     -5106068       -2307.1281     -2266.2476     -2315.585       4.9840453      3.3345856      58.62364       14485.802    
     38000   355.58434      0.019          0.2371306      0.23266325     0.23855543    -2330.288       514.98293      514.98293      514.98293      1.3657729e+08  2.6973168     -5100605.8     -5100605.8      1058.8694     -5099546.9     -2340.2971     -2296.2078     -2354.359       6.8273524     -2.3764244      56.506026      14416.966    
     39000   356.30387      0.0195         0.24119111     0.23604297     0.24190879    -2365.7961      515.23562      515.23562      515.23562      1.3677843e+08  2.6933502     -5093974.1     -5093974.1      1061.0121     -5092913.1     -2380.3712     -2329.563      -2387.4541      5.7543537     -2.5780905      59.765574      14454.581    
     40000   356.46357      0.02           0.24540769     0.24005329     0.24537608    -2404.267       515.48831      515.48831      515.48831      1.3697978e+08  2.6893913     -5087231.4     -5087231.4      1061.4877     -5086169.9     -2421.9856     -2369.1418     -2421.6736      4.1474561      2.2014144      64.194785      14455.411    
     41000   356.3507       0.0205         0.24854221     0.24397763     0.24864731    -2438.2504      515.741        515.741        515.741        1.3718132e+08  2.6854402     -5080389.5     -5080389.5      1061.1515     -5079328.4     -2452.9209     -2407.872      -2453.9582      2.4006648      8.3147034      61.097573      14452.713    
     42000   357.22433      0.021          0.25095544     0.24715431     0.25137633    -2465.6175      515.99369      515.99369      515.99369      1.3738305e+08  2.6814968     -5073459.3     -5073459.3      1063.753      -5072395.5     -2476.7376     -2439.2234     -2480.8915      0.12289786     11.006302      51.28328       14447.513    
     43000   358.92296      0.0215         0.25379045     0.25001813     0.25399839    -2492.9911      516.24638      516.24638      516.24638      1.3758499e+08  2.6775611     -5066446.8     -5066446.8      1068.8113     -5065378       -2504.717      -2467.4871     -2506.7692     -0.45502349     8.5425108      43.275255      14459.937    
     44000   359.96494      0.022          0.25706901     0.25299448     0.25706488    -2523.6561      516.49907      516.49907      516.49907      1.3778712e+08  2.6736332     -5059341.6     -5059341.6      1071.9141     -5058269.7     -2537.0738     -2496.8614     -2537.0331      2.1749754      4.9114735      43.539369      14450.04     
     45000   359.62072      0.0225         0.25994959     0.25579759     0.26031308    -2553.0397      516.75176      516.75176      516.75176      1.3798945e+08  2.6697129     -5052140.3     -5052140.3      1070.8891     -5051069.4     -2565.503      -2524.5259     -2569.0903      6.9313703      4.4038357      49.991985      14445.806    
     46000   358.90827      0.023          0.26214682     0.25802933     0.26290537    -2576.1379      517.00445      517.00445      517.00445      1.3819198e+08  2.6658003     -5044854.2     -5044854.2      1068.7676     -5043785.5     -2587.188      -2546.5515     -2594.6742      9.2786596      5.4243392      52.399152      14447.264    
     47000   359.02198      0.0235         0.26414523     0.26022614     0.26512731    -2597.2487      517.25714      517.25714      517.25714      1.3839471e+08  2.6618953     -5037499       -5037499        1069.1062     -5036429.9     -2606.9107     -2568.2323     -2616.6031      9.0900781      6.2828141      48.599705      14464.352    
     48000   359.98224      0.024          0.26634199     0.2626324      0.26748802    -2620.1576      517.50983      517.50983      517.50983      1.3859763e+08  2.6579979     -5030073.2     -5030073.2      1071.9656     -5029001.2     -2628.591      -2591.9802     -2639.9015      7.075049       5.9728654      44.934972      14438.187    
     49000   361.21953      0.0245         0.26904404     0.26529875     0.27004621    -2646.2341      517.76252      517.76252      517.76252      1.3880075e+08  2.6541082     -5022571.1     -5022571.1      1075.6501     -5021495.4     -2655.2582     -2618.2951     -2665.1489      6.4560802      3.3837733      44.696369      14436.873    
     50000   362.14092      0.025          0.2717774      0.26784702     0.27243351    -2671.4629      518.01521      518.01521      518.01521      1.3900408e+08  2.650226      -5015003.1     -5015003.1      1078.3938     -5013924.7     -2682.2344     -2643.4446     -2688.7097      7.1588658      0.048252338    44.409308      11773.304    
     51000   362.83703      0.0255         0.27426353     0.27019468     0.2746618     -2694.6953      518.2679       518.2679       518.2679       1.392076e+08   2.6463514     -5007362.4     -5007362.4      1080.4667     -5006281.9     -2706.7706     -2666.6141     -2710.7012      7.3518749     -0.83186703     42.628776      14390.542    
     52000   363.22882      0.026          0.27618406     0.27244101     0.27661316    -2714.8227      518.52059      518.52059      518.52059      1.3941131e+08  2.6424844     -4999650.1     -4999650.1      1081.6334     -4998568.4     -2725.7247     -2688.7837     -2729.9597      6.9188934      1.6588657      40.630999      14429.685    
     53000   363.69889      0.0265         0.27734507     0.27416006     0.27782862    -2728.2959      518.77328      518.77328      518.77328      1.3961523e+08  2.6386249     -4991881.7     -4991881.7      1083.0332     -4990798.7     -2737.183      -2705.7495     -2741.9553      6.8222818      5.065474       37.657227      14084.817    
     54000   364.36804      0.027          0.27841969     0.27545442     0.27875289    -2739.1299      519.02597      519.02597      519.02597      1.3981935e+08  2.6347729     -4984068.7     -4984068.7      1085.0258     -4982983.6     -2747.7887     -2718.5238     -2751.0771      6.2673807      6.0865324      35.898355      14464.597    
     55000   364.83015      0.0275         0.2797621      0.27674093     0.28008916    -2752.1743      519.27866      519.27866      519.27866      1.4002366e+08  2.6309283     -4976211.3     -4976211.3      1086.4019     -4975124.9     -2761.0372     -2731.2206     -2764.2651      6.7264929      2.3415965      36.365046      14431.529    
     56000   365.0643       0.028          0.28124737     0.27838269     0.28203603    -2768.8661      519.53135      519.53135      519.53135      1.4022818e+08  2.6270913     -4968301.4     -4968301.4      1087.0991     -4967214.3     -2775.6957     -2747.4235     -2783.4792      10.644174     -1.4229845      36.643113      14459.536    
     57000   365.35431      0.0285         0.28302621     0.28032266     0.28434967    -2788.7114      519.78404      519.78404      519.78404      1.4043289e+08  2.6232617     -4960336       -4960336        1087.9628     -4959248       -2793.2515     -2766.5696     -2806.313       14.115264     -2.4029659      35.926269      14447.191    
     58000   365.58137      0.029          0.2850047      0.28238948     0.28637971    -2808.6977      520.03673      520.03673      520.03673      1.406378e+08   2.6194396     -4952309.5     -4952309.5      1088.6389     -4951220.8     -2812.7777     -2786.9675     -2826.348       12.821087     -1.7228452      33.640762      14438.878    
     59000   365.77952      0.0295         0.2865176      0.28394947     0.287345      -2821.9823      520.28942      520.28942      520.28942      1.4084291e+08  2.6156249     -4944227.7     -4944227.7      1089.229      -4943138.5     -2827.7089     -2802.3633     -2835.8747      7.6949477     -1.2513807      31.222876      14436.622    
     60000   366.65936      0.03           0.28744092     0.28457497     0.28760081    -2827.9191      520.54211      520.54211      520.54211      1.4104822e+08  2.6118176     -4936112.2     -4936112.2      1091.849      -4935020.4     -2836.8213     -2808.5366     -2838.3993      3.8995569     -0.40237391     30.321324      14446.449    
     61000   368.0428       0.0305         0.28832368     0.28496962     0.28803876    -2833.5622      520.7948       520.7948       520.7948       1.4125373e+08  2.6080176     -4927974.8     -4927974.8      1095.9686     -4926878.8     -2845.5335     -2812.4315     -2842.7216      6.0419158      0.18351521     29.116846      14458.337    
     62000   368.93447      0.031          0.28930701     0.28581165     0.28881452    -2842.1192      521.04749      521.04749      521.04749      1.4145944e+08  2.6042251     -4919811.7     -4919811.7      1098.6239     -4918713.1     -2855.2382     -2820.7417     -2850.3777      10.40107       0.046130351    26.612408      14430.437    
     63000   369.3386       0.0315         0.29006226     0.28697967     0.28962403    -2851.1093      521.30018      521.30018      521.30018      1.4166535e+08  2.6004399     -4911613.5     -4911613.5      1099.8273     -4910513.7     -2862.6919     -2832.2691     -2858.3669      12.538591      0.4900409      24.029223      14443.13     
     64000   369.42281      0.032          0.29074893     0.28822878     0.29081405    -2861.3924      521.55287      521.55287      521.55287      1.4187146e+08  2.596662      -4903382.2     -4903382.2      1100.078      -4902282.1     -2869.4689     -2844.5969     -2870.1115      14.312814     -0.088873278    22.740268      14408.834    
     65000   369.76034      0.0325         0.29108484     0.28923005     0.29213577    -2870.1395      521.80557      521.80557      521.80557      1.4207777e+08  2.5928914     -4895129.7     -4895129.7      1101.0831     -4894028.6     -2872.784      -2854.4787     -2883.1558      15.176309     -2.6145123      22.687825      14465.145    
     66000   370.78029      0.033          0.29129935     0.28971575     0.2930008     -2875.2887      522.05826      522.05826      522.05826      1.4228427e+08  2.5891281     -4886853.5     -4886853.5      1104.1204     -4885749.4     -2874.9011     -2859.2721     -2891.6931      13.201256     -7.4292192      24.049649      14471.689    
     67000   371.53846      0.0335         0.29208143     0.28986622     0.29338202    -2879.6107      522.31095      522.31095      522.31095      1.4249098e+08  2.5853722     -4878551.3     -4878551.3      1106.3781     -4877444.9     -2882.6196     -2860.7572     -2895.4554      8.9589727     -9.9486518      24.901019      14469.324    
     68000   371.2437       0.034          0.29293804     0.28995908     0.29307457    -2881.7228      522.56364      522.56364      522.56364      1.4269789e+08  2.5816234     -4870226.9     -4870226.9      1105.5004     -4869121.4     -2891.0737     -2861.6737     -2892.4211      6.3688235     -7.0936959      24.666261      14315.74     
     69000   371.1731       0.0345         0.29301921     0.29018359     0.29248805    -2880.7989      522.81633      522.81633      522.81633      1.42905e+08    2.577882      -4861884.8     -4861884.8      1105.2901     -4860779.5     -2891.8748     -2863.8894     -2886.6326      5.3484353     -0.44958716     20.645755      14439.209    
     70000   371.87811      0.035          0.29301014     0.29086304     0.29264251    -2883.5124      523.06902      523.06902      523.06902      1.4311231e+08  2.5741477     -4853536.1     -4853536.1      1107.3895     -4852428.7     -2891.7852     -2870.595      -2888.1571      5.2263838      4.4640796      13.965689      14425.418    
     71000   372.1168       0.0355         0.29346032     0.29173649     0.29367562    -2891.2655      523.32171      523.32171      523.32171      1.4331982e+08  2.5704206     -4845177.8     -4845177.8      1108.1003     -4844069.7     -2896.2281     -2879.2153     -2898.353       6.6743129      1.5966268      11.56041       14440.846    
     72000   371.39894      0.036          0.29394695     0.29200628     0.29456554    -2896.6815      523.5744       523.5744       523.5744       1.4352753e+08  2.5667008     -4836791.3     -4836791.3      1105.9626     -4835685.3     -2901.0308     -2881.8779     -2907.1358      10.356825     -5.4544185      14.469402      14448.373    
     73000   371.0316       0.0365         0.29403691     0.29144512     0.29439763    -2894.579       523.82709      523.82709      523.82709      1.4373544e+08  2.5629881     -4828388.8     -4828388.8      1104.8687     -4827283.9     -2901.9186     -2876.3397     -2905.4787      12.380975     -9.2218068      15.973663      14447.834    
     74000   372.33775      0.037          0.29376609     0.29073952     0.29345808    -2888.276       524.07978      524.07978      524.07978      1.4394355e+08  2.5592826     -4819995.9     -4819995.9      1108.7582     -4818887.1     -2899.2459     -2869.376      -2896.206       11.858459     -7.7149865      11.019594      14442.633    
     75000   374.04976      0.0375         0.29358022     0.29068333     0.29301892    -2886.0349      524.33247      524.33247      524.33247      1.4415186e+08  2.5555842     -4811610.8     -4811610.8      1113.8563     -4810497       -2897.4115     -2868.8214     -2891.8719      10.435921     -5.1126074      5.8713337      14465.891    
     76000   374.80468      0.038          0.29332441     0.29080594     0.29278521    -2884.8279      524.58516      524.58516      524.58516      1.4436037e+08  2.5518929     -4803223.3     -4803223.3      1116.1043     -4802107.2     -2894.8869     -2870.0315     -2889.5654      8.7279618     -3.4394479      8.8982898      14453.943    
     77000   375.1141       0.0385         0.29251215     0.29030109     0.29246854    -2879.4532      524.83785      524.83785      524.83785      1.4456909e+08  2.5482088     -4794847       -4794847        1117.0257     -4793729.9     -2886.8704     -2865.049      -2886.4401      7.2559542     -2.2346288      15.279797      14419.288    
     78000   375.71656      0.039          0.29144921     0.28947698     0.2922115     -2872.3997      525.09054      525.09054      525.09054      1.44778e+08    2.5445317     -4786493.5     -4786493.5      1118.8198     -4785374.7     -2876.38       -2856.9157     -2883.9033      8.1027081     -4.7534842      16.219454      14443.336    
     79000   376.33934      0.0395         0.29079172     0.28891492     0.29195239    -2867.5353      525.34323      525.34323      525.34323      1.4498712e+08  2.5408617     -4778151.2     -4778151.2      1120.6743     -4777030.5     -2869.8911     -2851.3686     -2881.3461      10.137313     -7.3931643      9.2467539      14452.531    
     80000   376.31317      0.04           0.29077877     0.28880068     0.29144023    -2865.4319      525.59592      525.59592      525.59592      1.4519644e+08  2.5371988     -4769801.7     -4769801.7      1120.5964     -4768681.1     -2869.7633     -2850.2411     -2876.2914      9.8037104     -8.4610345      0.015263665    14466.817    
     81000   375.77285      0.0405         0.29073932     0.28863249     0.29056196    -2861.8596      525.84861      525.84861      525.84861      1.4540595e+08  2.5335429     -4761444.9     -4761444.9      1118.9874     -4760325.9     -2869.374      -2848.5812     -2867.6236      8.5391076     -9.0650465     -3.0647542      14440.59     
     82000   375.88315      0.041          0.29003876     0.28802651     0.28941909    -2853.8017      526.1013       526.1013       526.1013       1.4561568e+08  2.529894      -4753097.4     -4753097.4      1119.3158     -4751978.1     -2862.46       -2842.6006     -2856.3444      8.0610141     -8.5010129      0.59494968     14437.749    
     83000   377.14578      0.0415         0.28868704     0.28691713     0.28803943    -2841.1665      526.35399      526.35399      526.35399      1.458256e+08   2.5262521     -4744784.7     -4744784.7      1123.0757     -4743661.6     -2849.1196     -2831.6519     -2842.7281      7.0428324     -6.0710912      3.3407537      14454.792    
     84000   379.0134       0.042          0.28733011     0.28588828     0.28680517    -2829.2575      526.60668      526.60668      526.60668      1.4603572e+08  2.5226172     -4736505.6     -4736505.6      1128.6372     -4735377       -2835.7277     -2821.498      -2830.5469      4.8039778     -2.9592496      2.7020669      14460.841    
     85000   380.07768      0.0425         0.28666136     0.28552476     0.28595111    -2823.052       526.85937      526.85937      526.85937      1.4624605e+08  2.5189893     -4728254.3     -4728254.3      1131.8064     -4727122.5     -2829.1276     -2817.9103     -2822.118       3.3156726     -1.7008625      0.99936746     14433.176    
     86000   379.84428      0.043          0.28606764     0.28530722     0.2849714     -2817.1601      527.11206      527.11206      527.11206      1.4645657e+08  2.5153683     -4720028.6     -4720028.6      1131.1114     -4718897.4     -2823.268      -2815.7633     -2812.449       5.7722725     -4.7315476      1.7904816      14445.448    
     87000   379.08525      0.0435         0.28498051     0.28417916     0.28402248    -2806.751       527.36475      527.36475      527.36475      1.466673e+08   2.5117543     -4711823.5     -4711823.5      1128.8511     -4710694.7     -2812.5389     -2804.6303     -2803.0839      9.9790596     -9.5346322      6.0810311      14463.75     
     88000   378.35748      0.044          0.28379886     0.28217834     0.28305079    -2793.0849      527.61744      527.61744      527.61744      1.4687823e+08  2.5081472     -4703631.3     -4703631.3      1126.684      -4702504.6     -2800.877      -2784.8837     -2793.4941      11.196787     -10.797422      8.3993143      14443.437    
     89000   377.79534      0.0445         0.28277748     0.28025395     0.28181624    -2779.3327      527.87013      527.87013      527.87013      1.4708936e+08  2.504547      -4695455.5     -4695455.5      1125.01       -4694330.5     -2790.7967     -2765.8914     -2781.31        8.6631023     -9.1464612      3.4308394      14448.124    
     90000   377.78273      0.045          0.28142217     0.27882455     0.28035611    -2765.3683      528.12282      528.12282      528.12282      1.473007e+08   2.5009536     -4687312.1     -4687312.1      1124.9725     -4686187.2     -2777.4209     -2751.7843     -2766.8997      6.7097648     -6.5417073     -5.5699537      14397.843    
     91000   378.51413      0.0455         0.28003229     0.2777438      0.27881264    -2752.1629      528.37551      528.37551      528.37551      1.4751224e+08  2.4973672     -4679217.3     -4679217.3      1127.1504     -4678090.2     -2763.7038     -2741.1182     -2751.6668      6.4436747     -3.0285172     -10.772188      14463.26     
     92000   379.23123      0.046          0.27891028     0.27704813     0.27763459    -2742.3078      528.6282       528.6282       528.6282       1.4772398e+08  2.4937876     -4671164.3     -4671164.3      1129.2859     -4670035       -2752.6304     -2734.2525     -2740.0404      5.3236681     -1.0070402     -9.4205205      14447.477    
     93000   379.02855      0.0465         0.27767319     0.27627861     0.27675677    -2732.8187      528.8809       528.8809       528.8809       1.4793592e+08  2.4902148     -4663138.1     -4663138.1      1128.6823     -4662009.4     -2740.4213     -2726.6579     -2731.377       4.0990278     -2.3140945     -4.6103272      14450.518    
     94000   378.51431      0.047          0.27598732     0.27498722     0.27543162    -2718.6649      529.13359      529.13359      529.13359      1.4814807e+08  2.4866489     -4655140.6     -4655140.6      1127.151      -4654013.4     -2723.7831     -2713.9129     -2718.2987      6.1087208     -6.1606932     -0.94263244     14442.401    
     95000   378.61931      0.0475         0.27431772     0.27302743     0.27365025    -2700.8649      529.38628      529.38628      529.38628      1.4836041e+08  2.4830897     -4647182.6     -4647182.6      1127.4637     -4646055.1     -2707.3054     -2694.5713     -2700.7179      10.678747     -10.66014       0.18551872     14467.868    
     96000   379.25346      0.048          0.27292331     0.27098018     0.27193191    -2683.8898      529.63897      529.63897      529.63897      1.4857296e+08  2.4795374     -4639265.6     -4639265.6      1129.3521     -4638136.3     -2693.5436     -2674.3665     -2683.7593      13.559386     -11.799218     -1.2038973      14459.266    
     97000   379.77214      0.0485         0.27134421     0.26933494     0.2703575     -2668.1031      529.89166      529.89166      529.89166      1.4878572e+08  2.4759918     -4631379       -4631379        1130.8966     -4630248.1     -2677.9591     -2658.1292     -2668.2211      11.742082     -8.8531811     -5.0119422      14466.303    
     98000   379.87443      0.049          0.26975255     0.26801102     0.26896755    -2653.939       530.14435      530.14435      530.14435      1.4899867e+08  2.472453      -4623531.3     -4623531.3      1131.2012     -4622400.1     -2662.2506     -2645.0631     -2654.5033      6.6720433     -4.3397302     -8.9367384      14439.022    
     99000   379.44892      0.0495         0.26820085     0.26659398     0.26732978    -2638.7848      530.39704      530.39704      530.39704      1.4921183e+08  2.4689209     -4615740       -4615740        1129.9341     -4614610.1     -2646.9366     -2631.0781     -2638.3398      4.3580115     -2.3131205     -9.5122989      14461.686    
    100000   379.20228      0.05           0.26668562     0.26496502     0.26538247    -2622.0351      530.64973      530.64973      530.64973      1.494252e+08   2.4653956     -4608003.4     -4608003.4      1129.1997     -4606874.2     -2631.9825     -2615.0015     -2619.1213      6.6776102     -3.1992793     -6.0696055      14051.142    
    101000   379.55109      0.0505         0.26525873     0.26340483     0.26333806    -2605.4827      530.90242      530.90242      530.90242      1.4963876e+08  2.4618769     -4600310.7     -4600310.7      1130.2383     -4599180.5     -2617.9001     -2599.6035     -2598.9446      9.6800237     -5.8972779     -1.8920753      14417.376    
    102000   380.04987      0.051          0.26415818     0.26239648     0.26200249    -2594.1513      531.15511      531.15511      531.15511      1.4985253e+08  2.458365      -4592641.5     -4592641.5      1131.7236     -4591509.8     -2607.0385     -2589.652      -2585.7635      9.5766365     -7.1771969     -2.3251085      14458.006    
    103000   380.10943      0.0515         0.2632208      0.26141989     0.26147114    -2586.1068      531.4078       531.4078       531.4078       1.5006651e+08  2.4548597     -4584990.9     -4584990.9      1131.901      -4583859       -2597.7873     -2580.0138     -2580.5195      7.4935859     -5.210205      -6.1030993      14395.725    
    104000   379.9439       0.052          0.26151041     0.25985628     0.2605406     -2572.275       531.66049      531.66049      531.66049      1.5028068e+08  2.4513611     -4577376.4     -4577376.4      1131.4081     -4576245       -2580.9071     -2564.5821     -2571.3358      6.1511351     -3.2283918     -7.9985087      14430.19     
    105000   379.70265      0.0525         0.25896462     0.2578699      0.25841749    -2550.3808      531.91318      531.91318      531.91318      1.5049506e+08  2.4478691     -4569815.1     -4569815.1      1130.6896     -4568684.4     -2555.782      -2544.978      -2550.3824      5.8237222     -3.6898259     -8.455243       14450.22     
    106000   378.97448      0.053          0.25639411     0.25560017     0.25530655    -2524.2235      532.16587      532.16587      532.16587      1.5070965e+08  2.4443838     -4562312.6     -4562312.6      1128.5213     -4561184.1     -2530.4131     -2522.5776     -2519.6798      5.8890664     -4.0144564     -7.0119965      14440.22     
    107000   377.87925      0.0535         0.25420857     0.25325947     0.25281691    -2501.143       532.41856      532.41856      532.41856      1.5092444e+08  2.4409051     -4554871.1     -4554871.1      1125.2599     -4553745.9     -2508.8435     -2499.4767     -2495.1089      7.8792066     -0.62411023    -4.9834088      14432.544    
    108000   376.89753      0.054          0.25261883     0.25120849     0.251743      -2485.6331      532.67125      532.67125      532.67125      1.5113943e+08  2.437433      -4547489.8     -4547489.8      1122.3365     -4546367.4     -2493.154      -2479.235      -2484.5102      11.090232      2.5869251     -3.2428018      14461.669    
    109000   375.93442      0.0545         0.2517125      0.24963916     0.25111168    -2475.4119      532.92394      532.92394      532.92394      1.5135462e+08  2.4339674     -4540143.9     -4540143.9      1119.4685     -4539024.5     -2484.2093     -2463.7469     -2478.2796      12.74129       0.82417491    -3.4774699      14448.867    
    110000   375.16734      0.055          0.25056991     0.24831022     0.2495964     -2462.2963      533.17663      533.17663      533.17663      1.5157002e+08  2.4305084     -4532821.6     -4532821.6      1117.1843     -4531704.5     -2472.9327     -2450.6314     -2463.325       10.352124     -4.4485946     -6.3089399      14434.683    
    111000   375.53648      0.0555         0.24849278     0.24702747     0.24710215    -2443.0377      533.42932      533.42932      533.42932      1.5178563e+08  2.427056      -4525533.2     -4525533.2      1118.2835     -4524414.9     -2452.433      -2437.9716     -2438.7086      6.2764624     -10.024802     -10.685839      14457.208    
    112000   376.01246      0.056          0.24639835     0.24576162     0.24515731    -2425.5853      533.68201      533.68201      533.68201      1.5200144e+08  2.4236101     -4518297.4     -4518297.4      1119.7009     -4517177.7     -2431.7627     -2425.4786     -2419.5145      2.546135      -11.874235     -14.268912      14468.445    
    113000   375.38966      0.0565         0.24481541     0.24417494     0.24367469    -2410.2806      533.9347       533.9347       533.9347       1.5221745e+08  2.4201707     -4511123.1     -4511123.1      1117.8463     -4510005.3     -2416.1403     -2409.8193     -2404.8822      1.4574987     -10.176046     -14.836279      14457.343    
    114000   374.43551      0.057          0.2430719      0.24208704     0.24170034    -2391.1811      534.18739      534.18739      534.18739      1.5243367e+08  2.4167379     -4504003       -4504003        1115.005      -4502888       -2398.9332     -2389.2133     -2385.3969      5.3409357     -7.5174704     -12.437485      14392.57     
    115000   374.12765      0.0575         0.24135489     0.24013695     0.23957197    -2372.1155      534.44008      534.44008      534.44008      1.5265009e+08  2.4133115     -4496920       -4496920        1114.0883     -4495805.9     -2381.9875     -2369.9674     -2364.3915      9.7634284     -4.0552721     -8.7927485      14459.818    
    116000   373.71378      0.058          0.239827       0.23851477     0.23815581    -2357.0938      534.69277      534.69277      534.69277      1.5286672e+08  2.4098916     -4489871.8     -4489871.8      1112.8558     -4488759       -2366.9084     -2353.9577     -2350.4151      9.7446913     -0.70266154    -6.7417946      14403.813    
    117000   372.53754      0.0585         0.23808253     0.23715907     0.23710703    -2343.4448      534.94546      534.94546      534.94546      1.5308355e+08  2.4064782     -4482856.7     -4482856.7      1109.3532     -4481747.4     -2349.6919     -2340.578      -2340.0644      7.3089488      0.71768422    -6.8654415      14384.679    
    118000   370.97776      0.059          0.2360766      0.23547569     0.23547283    -2325.9318      535.19815      535.19815      535.19815      1.5330059e+08  2.4030712     -4475888       -4475888        1104.7084     -4474783.3     -2329.8948     -2323.9644     -2323.9362      6.965129       0.35959535    -7.1977675      14462.479    
    119000   369.71899      0.0595         0.23408842     0.23347331     0.23314455    -2305.1444      535.45084      535.45084      535.45084      1.5351783e+08  2.3996706     -4468981.6     -4468981.6      1100.96       -4467880.7     -2310.2731     -2304.2024     -2300.9578      8.3475732     -0.050824722   -5.70853        14409.562    
    120000   368.66953      0.06           0.23248692     0.23148668     0.230861      -2285.8281      535.70353      535.70353      535.70353      1.5373528e+08  2.3962764     -4462132.3     -4462132.3      1097.8349     -4461034.5     -2294.4675     -2284.5959     -2278.421       8.2496706     -1.4947708     -3.5954056      14444.11     
    121000   367.79806      0.0605         0.23111472     0.22943437     0.22925417    -2269.2763      535.95622      535.95622      535.95622      1.5395293e+08  2.3928887     -4455322.7     -4455322.7      1095.2398     -4454227.5     -2280.925      -2264.3412     -2262.5628      7.0352469     -3.7813378     -3.5769528      14443.461    
    122000   367.25901      0.061          0.22966443     0.22760017     0.22839208    -2255.6351      536.20892      536.20892      536.20892      1.5417079e+08  2.3895073     -4448545.5     -4448545.5      1093.6346     -4447451.8     -2266.6117     -2246.239      -2254.0545      6.6576549     -4.4220419     -5.8081194      14474.003    
    123000   366.9458       0.0615         0.22814435     0.22630063     0.22762455    -2243.8343      536.46161      536.46161      536.46161      1.5438885e+08  2.3861323     -4441802.1     -4441802.1      1092.7019     -4440709.4     -2251.6097     -2233.4135     -2246.4796      6.1788082     -2.0772595     -7.969392       14438.863    
    124000   366.64155      0.062          0.22657117     0.22512206     0.22627494    -2230.3419      536.7143       536.7143       536.7143       1.5460712e+08  2.3827636     -4435100.4     -4435100.4      1091.7959     -4434008.6     -2236.0836     -2221.782      -2233.1601      5.2513753      1.5506206     -8.7623252      14442.835    
    125000   366.62495      0.0625         0.22481555     0.22383203     0.22410923    -2213.1978      536.96699      536.96699      536.96699      1.5482559e+08  2.3794013     -4428442.7     -4428442.7      1091.7465     -4427351       -2218.757      -2209.0504     -2211.7861      4.9366803      1.6585074     -9.706637       14452.15     
    126000   366.31624      0.063          0.22339668     0.22259952     0.22207828    -2197.7942      537.21968      537.21968      537.21968      1.5504427e+08  2.3760453     -4421824.6     -4421824.6      1090.8272     -4420733.8     -2204.7538     -2196.8864     -2191.7422      5.9595782     -2.2178245     -10.034847      14439.223    
    127000   364.62581      0.0635         0.22239573     0.22133706     0.22108378    -2187.0765      537.47237      537.47237      537.47237      1.5526316e+08  2.3726956     -4415237.7     -4415237.7      1085.7934     -4414151.9     -2194.8752     -2184.427      -2181.9273      7.1319969     -4.7743317     -8.6535539      14458.526    
    128000   362.48038      0.064          0.22099744     0.21960471     0.22020607    -2173.89        537.72506      537.72506      537.72506      1.5548225e+08  2.3693522     -4408676.1     -4408676.1      1079.4047     -4407596.7     -2181.0751     -2167.33       -2173.265       6.7673655     -6.0840429     -6.4803589      14446.166    
    129000   361.40952      0.0645         0.21882416     0.21729259     0.21864135    -2153.9867      537.97775      537.97775      537.97775      1.5570155e+08  2.3660151     -4402150.2     -4402150.2      1076.2158     -4401074       -2159.6266     -2144.5111     -2157.8223      4.0344472     -7.454429      -5.096936       14396.919    
    130000   361.2457       0.065          0.21658626     0.2151076      0.21695999    -2133.9053      538.23044      538.23044      538.23044      1.5592105e+08  2.3626843     -4395680.9     -4395680.9      1075.728      -4394605.1     -2137.5402     -2122.947      -2141.2286      1.3813576     -5.9410115     -5.2026563      14455.153    
    131000   360.81244      0.0655         0.21514741     0.21380295     0.21513453    -2118.8745      538.48313      538.48313      538.48313      1.5614076e+08  2.3593597     -4389276       -4389276        1074.4378     -4388201.6     -2123.3398     -2110.0711     -2123.2127      1.7671075     -0.67342247    -6.1124519      14431.273    
    132000   359.81397      0.066          0.21429422     0.21310065     0.21334328    -2107.8646      538.73582      538.73582      538.73582      1.5636068e+08  2.3560413     -4382913.4     -4382913.4      1071.4646     -4381841.9     -2114.9195     -2103.1399     -2105.5345      7.017155       3.2611471     -6.5599829      14436.258    
    133000   358.67252      0.0665         0.21340216     0.21237947     0.21211582    -2098.5195      538.98851      538.98851      538.98851      1.565808e+08   2.3527291     -4376559.1     -4376559.1      1068.0655     -4375491       -2106.1156     -2096.0224     -2093.4204      12.95372       3.3434011     -8.4164528      14457.575    
    134000   357.5576       0.067          0.21257456     0.21148724     0.21127563    -2090.0976      539.2412       539.2412       539.2412       1.5680113e+08  2.3494232     -4370204.3     -4370204.3      1064.7455     -4369139.6     -2097.9478     -2087.2168     -2085.1283      12.568871      0.1942829     -9.3187127      14428.158    
    135000   356.66709      0.0675         0.21150201     0.21007764     0.21017685    -2078.3173      539.49389      539.49389      539.49389      1.5702167e+08  2.3461234     -4363883.8     -4363883.8      1062.0937     -4362821.7     -2087.3626     -2073.3051     -2074.2842      5.1348756     -4.7101854     -7.6520238      14441.885    
    136000   356.46289      0.068          0.20957916     0.20808348     0.20856478    -2060.128       539.74658      539.74658      539.74658      1.5724241e+08  2.3428299     -4357617.6     -4357617.6      1061.4856     -4356556.2     -2068.3855     -2053.6243     -2058.3743     -2.5178715     -7.5456928     -4.7082693      14455.273    
    137000   355.99904      0.0685         0.20730572     0.20641268     0.20707748    -2042.2597      539.99927      539.99927      539.99927      1.5746336e+08  2.3395425     -4351397       -4351397        1060.1043     -4350336.9     -2045.9484     -2037.1348     -2043.6958     -5.0502783     -3.7911652     -3.1385169      14436.886    
    138000   353.93183      0.069          0.20562331     0.20530033     0.20584055    -2028.9964      540.25196      540.25196      540.25196      1.5768452e+08  2.3362612     -4345205.2     -4345205.2      1053.9486     -4344151.3     -2029.3443     -2026.1567     -2031.4882     -2.6954376      3.3993369     -4.3244403      14437.914    
    139000   351.20304      0.0695         0.20451469     0.204064       0.20463977    -2017.3319      540.50465      540.50465      540.50465      1.5790588e+08  2.3329861     -4339045       -4339045        1045.8227     -4337999.2     -2018.4031     -2013.9551     -2019.6375      3.1241038      5.8516283     -4.5743273      14459.111    
    140000   349.65667      0.07           0.20343493     0.20252378     0.20326928    -2004.2042      540.75734      540.75734      540.75734      1.5812745e+08  2.329717      -4332919.6     -4332919.6      1041.2179     -4331878.4     -2007.7467     -1998.7543     -2006.1118      8.408041       3.0985788     -2.4399023      14449.813    
    141000   349.35776      0.0705         0.20210957     0.20127209     0.20194133    -1991.3578      541.01003      541.01003      541.01003      1.5834923e+08  2.3264541     -4326828.9     -4326828.9      1040.3278     -4325788.5     -1994.6664     -1986.4011     -1993.006       9.1643324     -0.46774566    -1.9736729      14432.795    
    142000   349.55866      0.071          0.20074913     0.20044639     0.20093227    -1980.8464      541.26272      541.26272      541.26272      1.5857121e+08  2.3231973     -4320762.7     -4320762.7      1040.926      -4319721.8     -1981.2399     -1978.2521     -1983.0473      7.0539878     -2.4957279     -3.4833844      14419.726    
    143000   349.48815      0.0715         0.20001281     0.19976997     0.2003057     -1974.1376      541.51541      541.51541      541.51541      1.5879341e+08  2.3199466     -4314717.3     -4314717.3      1040.716      -4313676.6     -1973.973      -1971.5763     -1976.8636      3.9766501     -3.0446165     -4.7114216      14424.253    
    144000   348.77295      0.072          0.19975068     0.19906255     0.19964723    -1968.7818      541.7681       541.7681       541.7681       1.5901581e+08  2.3167019     -4308687.3     -4308687.3      1038.5863     -4307648.7     -1971.3859     -1964.5947     -1970.365       1.2102844     -2.929602      -3.8317734      14425.888    
    145000   347.93899      0.0725         0.19889434     0.1981115      0.19849651    -1959.0504      542.02079      542.02079      542.02079      1.5923841e+08  2.3134633     -4302674.2     -4302674.2      1036.1029     -4301638.1     -1962.9345     -1955.2084     -1959.0083      1.2570052     -2.0311949     -2.9724375      14461.101    
    146000   347.44542      0.073          0.19718838     0.19660636     0.19717957    -1944.1543      542.27348      542.27348      542.27348      1.5946123e+08  2.3102307     -4296685.6     -4296685.6      1034.6331     -4295651       -1946.098      -1940.3539     -1946.011       2.5899032      0.81132295    -3.5459544      14432.949    
    147000   346.73934      0.0735         0.19559308     0.1948014      0.19598263    -1929.0307      542.52617      542.52617      542.52617      1.5968425e+08  2.3070041     -4290736.1     -4290736.1      1032.5305     -4289703.5     -1930.3536     -1922.5404     -1934.1982      1.9143961      2.9402589     -3.5776908      14448.604    
    148000   345.78895      0.074          0.19442856     0.19320112     0.19486969    -1916.2739      542.77886      542.77886      542.77886      1.5990748e+08  2.3037835     -4284831.1     -4284831.1      1029.7004     -4283801.4     -1918.8607     -1906.7468     -1923.2143     -0.33365206     2.0275816     -3.5527809      14426.923    
    149000   344.7331       0.0745         0.19340532     0.19236711     0.19366152    -1906.1895      543.03155      543.03155      543.03155      1.6013092e+08  2.3005689     -4278958.5     -4278958.5      1026.5563     -4277932       -1908.7621     -1898.5158     -1911.2906     -0.52012243    -0.33360821    -6.9618332      14429.194    
    150000   343.46219      0.075          0.19270991     0.19211713     0.19260332    -1899.5982      543.28424      543.28424      543.28424      1.6035457e+08  2.2973603     -4273101.1     -4273101.1      1022.7718     -4272078.4     -1901.8989     -1896.0486     -1900.847       2.2443675     -2.3329461     -10.423589      13398.52     
    151000   342.42667      0.0755         0.19235021     0.19148621     0.19163533    -1893.1548      543.53694      543.53694      543.53694      1.6057842e+08  2.2941577     -4267251.4     -4267251.4      1019.6881     -4266231.7     -1898.3489     -1889.8219     -1891.2936      4.5719497     -3.5746007     -7.9883194      14415.018    
    152000   341.76639      0.076          0.1917638      0.19033854     0.19064387    -1884.1885      543.78963      543.78963      543.78963      1.6080248e+08  2.290961      -4261411.1     -4261411.1      1017.7219     -4260393.3     -1892.5616     -1878.4953     -1881.5088      4.0536502     -4.5880348     -1.4754264      14441.418    
    153000   341.19273      0.0765         0.19068962     0.18897203     0.18955787    -1872.5866      544.04232      544.04232      544.04232      1.6102676e+08  2.2877703     -4255597.7     -4255597.7      1016.0137     -4254581.6     -1881.9602     -1865.0089     -1870.7907      3.0880673     -4.8473628      2.4907735      14451.34     
    154000   340.69058      0.077          0.18943755     0.18765381     0.18857354    -1860.8928      544.29501      544.29501      544.29501      1.6125123e+08  2.2845854     -4249822.2     -4249822.2      1014.5184     -4248807.7     -1869.6032     -1851.9991     -1861.0762      1.7873719     -2.6020494      2.299221       14456.222    
    155000   340.0973       0.0775         0.18849268     0.18660684     0.18776759    -1851.6888      544.5477       544.5477       544.5477       1.6147592e+08  2.2814065     -4244076.8     -4244076.8      1012.7517     -4243064       -1860.2781     -1841.6663     -1853.1221     -0.53169815     0.64446217    -1.3273534      14408.904    
    156000   339.3442       0.078          0.18731161     0.18591004     0.18695734    -1842.8456      544.80039      544.80039      544.80039      1.6170082e+08  2.2782335     -4238350       -4238350        1010.5091     -4237339.5     -1848.6219     -1834.7895     -1845.1254     -2.3079809      2.4241997     -5.8612054      14414.369    
    157000   338.48971      0.0785         0.18593857     0.18532767     0.18618689    -1833.8782      545.05308      545.05308      545.05308      1.6192593e+08  2.2750663     -4232636.3     -4232636.3      1007.9645     -4231628.3     -1835.071      -1829.0419     -1837.5217     -1.6715989      4.0821102     -7.1225928      14413.772    
    158000   337.53931      0.079          0.18501521     0.18465681     0.1852779     -1825.6433      545.30577      545.30577      545.30577      1.6215124e+08  2.271905      -4226943.4     -4226943.4      1005.1344     -4225938.3     -1825.9581     -1822.4211     -1828.5507      0.68706291     4.3694048     -5.216444       14421.532    
    159000   336.5649       0.0795         0.18439938     0.18374828     0.18402711    -1816.5138      545.55846      545.55846      545.55846      1.6237676e+08  2.2687496     -4221273.8     -4221273.8      1002.2328     -4220271.6     -1819.8803     -1813.4546     -1816.2064      4.3292299      2.1108836     -2.4722992      14436.689    
    160000   335.43734      0.08           0.18365907     0.18270237     0.1826994     -1806.2697      545.81115      545.81115      545.81115      1.626025e+08   2.2656        -4215623.5     -4215623.5      998.87511     -4214624.6     -1812.574      -1803.1322     -1803.1029      7.4498027     -0.8461211     -0.63883421     14407.588    
    161000   334.64827      0.0805         0.18269809     0.18153852     0.18187337    -1796.5622      546.06384      546.06384      546.06384      1.6282844e+08  2.2624563     -4209993       -4209993        996.52541     -4208996.5     -1803.09       -1791.6459     -1794.9506      7.8429467     -2.5286194     -0.49180551     14424.531    
    162000   334.56412      0.081          0.18201383     0.18050334     0.18175397    -1790.5128      546.31653      546.31653      546.31653      1.6305459e+08  2.2593183     -4204381.9     -4204381.9      996.27483     -4203385.6     -1796.3369     -1781.4294     -1793.7723      5.0566976     -3.6392842     -2.2558088      14409.046    
    163000   334.43735      0.0815         0.18140422     0.17984729     0.18181615    -1786.5537      546.56922      546.56922      546.56922      1.6328095e+08  2.2561862     -4198786.2     -4198786.2      995.89733     -4197790.3     -1790.3205     -1774.9548     -1794.3859      1.2092345     -4.2054136     -4.5298057      14438.601    
    164000   334.00811      0.082          0.18038965     0.17923873     0.18114507    -1779.0063      546.82191      546.82191      546.82191      1.6350752e+08  2.2530598     -4193204.8     -4193204.8      994.61913     -4192210.2     -1780.3074     -1768.9487     -1787.7629     -1.9939855     -3.5008334     -4.4829026      14421.224    
    165000   334.09106      0.0825         0.17926901     0.17835304     0.17974807    -1767.8102      547.0746       547.0746       547.0746       1.637343e+08   2.2499393     -4187649.3     -4187649.3      994.86614     -4186654.5     -1769.2476     -1760.2076     -1773.9755     -2.973727      -1.5331782     -0.60636119     14416.185    
    166000   334.51861      0.083          0.1786416      0.17753438     0.17839676    -1758.6076      547.32729      547.32729      547.32729      1.6396128e+08  2.2468244     -4182115.2     -4182115.2      996.1393      -4181119       -1763.0555     -1752.1281     -1760.6391     -0.9683469      0.93062396     3.1783073      14417.16     
    167000   334.4875       0.0835         0.178547       0.17734053     0.17751099    -1754.7447      547.57998      547.57998      547.57998      1.6418848e+08  2.2437154     -4176592.3     -4176592.3      996.04665     -4175596.2     -1762.1219     -1750.215      -1751.8973      1.1801422      2.0280895      2.7337579      14445.281    
    168000   334.16364      0.084          0.17824813     0.1772527      0.17682742    -1751.2238      547.83267      547.83267      547.83267      1.6441589e+08  2.240612      -4171080.4     -4171080.4      995.08227     -4170085.3     -1759.1723     -1749.3481     -1745.1509      1.8941574      1.0585066     -0.3190728      14387.838    
    169000   333.7375       0.0845         0.17749409     0.17656009     0.17629473    -1744.7123      548.08536      548.08536      548.08536      1.6464351e+08  2.2375144     -4165585.9     -4165585.9      993.81327     -4164592.1     -1751.7305     -1742.5126     -1739.8937      2.0252443     -1.2546174     -2.1216892      14423.771    
    170000   332.85935      0.085          0.17623772     0.17523427     0.17576982    -1734.4907      548.33805      548.33805      548.33805      1.6487133e+08  2.2344225     -4160117.7     -4160117.7      991.1983      -4159126.5     -1739.3311     -1729.4278     -1734.7133      2.3259481     -0.50083006    -0.16819886     14444.985    
    171000   331.69256      0.0855         0.1747437      0.1735856      0.17513263    -1722.0559      548.59074      548.59074      548.59074      1.6509937e+08  2.2313363     -4154671       -4154671        987.72381     -4153683.3     -1724.5862     -1713.1567     -1728.4247      2.9088383      3.2045766      2.4866556      14429.066    
    172000   330.48801      0.086          0.17380813     0.17218442     0.1744288     -1712.0531      548.84343      548.84343      548.84343      1.6532762e+08  2.2282557     -4149234.6     -4149234.6      984.13686     -4148250.5     -1715.3528     -1699.3281     -1721.4784      4.076122       4.7399116      1.9253469      14427.949    
    173000   329.33669      0.0865         0.17340838     0.1716315      0.17376587    -1706.7382      549.09612      549.09612      549.09612      1.6555608e+08  2.2251809     -4143813.1     -4143813.1      980.70841     -4142832.4     -1711.4076     -1693.8712     -1714.9358      3.7144249      0.84597904    -1.7841145      14446.094    
    174000   328.8877       0.087          0.17284651     0.17166859     0.17304109    -1702.6275      549.34881      549.34881      549.34881      1.6578475e+08  2.2221117     -4138411.8     -4138411.8      979.37142     -4137432.5     -1705.8624     -1694.2373     -1707.7828      2.3563187     -5.6696631     -6.1822202      14432.095    
    175000   329.39515      0.0875         0.17211427     0.17185322     0.17242843    -1698.8105      549.6015       549.6015       549.6015       1.6601363e+08  2.2190481     -4133021.5     -4133021.5      980.88251     -4132040.6     -1698.6358     -1696.0594     -1701.7363      0.3227435     -8.3020939     -7.3387175      14422.923    
    176000   329.94543      0.088          0.17178972     0.17170093     0.17184487    -1695.322       549.85419      549.85419      549.85419      1.6624272e+08  2.2159901     -4127634.3     -4127634.3      982.52114     -4126651.8     -1695.4328     -1694.5564     -1695.977      -1.05326       -5.6793241     -3.2724651      14419.168    
    177000   330.28678      0.0885         0.1717114      0.17098582     0.17115268    -1690.4348      550.10688      550.10688      550.10688      1.6647202e+08  2.2129378     -4122257.9     -4122257.9      983.53764     -4121274.4     -1694.6598     -1687.4988     -1689.1457     -0.9132947     -1.3042395      3.3115184      14419.901    
    178000   330.78333      0.089          0.17115072     0.16984631     0.17036965    -1682.2656      550.35957      550.35957      550.35957      1.6670153e+08  2.2098911     -4116903.3     -4116903.3      985.01626     -4115918.3     -1689.1263     -1676.2528     -1681.4177      0.14534276     2.2414772      7.2231731      14441.925    
    179000   331.09123      0.0895         0.17038612     0.16878215     0.16961785    -1673.7762      550.61226      550.61226      550.61226      1.6693125e+08  2.20685       -4111567.7     -4111567.7      985.93313     -4110581.8     -1681.5803     -1665.7503     -1673.998       0.66639201     3.912188       7.1711221      14411.634    
    180000   330.5643       0.09           0.16974452     0.16809048     0.16878649    -1666.6552      550.86496      550.86496      550.86496      1.6716118e+08  2.2038144     -4106249       -4106249        984.36405     -4105264.6     -1675.2482     -1658.9241     -1665.7932     -0.25344604     4.5980081      4.5673018      14424.824    
    181000   329.37855      0.0905         0.16901922     0.16780236     0.16813443    -1661.1761      551.11765      551.11765      551.11765      1.6739133e+08  2.2007844     -4100943.1     -4100943.1      980.83308     -4099962.2     -1668.09       -1656.0805     -1659.3578     -0.55241925     3.6689537      1.2756119      14399.263    
    182000   328.50478      0.091          0.16796508     0.1675024      0.16739523    -1654.2897      551.37034      551.37034      551.37034      1.6762168e+08  2.19776       -4095651       -4095651        978.23113     -4094672.7     -1657.6864     -1653.1201     -1652.0625     -0.047019083    0.31988179    -2.5145268      14413.009    
    183000   328.17926      0.0915         0.16697518     0.16680668     0.16662543    -1646.212       551.62303      551.62303      551.62303      1.6785225e+08  2.1947411     -4090378.4     -4090378.4      977.2618      -4089401.2     -1647.9169     -1646.2539     -1644.4651     -0.3076988     -2.9524487     -5.3186978      14418.299    
    184000   327.75525      0.092          0.1663127      0.16557307     0.16621616    -1638.628       551.87572      551.87572      551.87572      1.6808302e+08  2.1917277     -4085126.3     -4085126.3      975.99916     -4084150.3     -1641.3787     -1634.0792     -1640.426      -0.84474053    -4.0507399     -4.6113667      14449.188    
    185000   327.26662      0.0925         0.16606802     0.16444828     0.16611021    -1633.7742      552.12841      552.12841      552.12841      1.6831401e+08  2.1887198     -4079886.1     -4079886.1      974.54412     -4078911.6     -1638.9639     -1622.9784     -1639.3803     -1.7514854     -2.1130078     -2.6904409      14397.088    
    186000   326.89434      0.093          0.16608551     0.16389873     0.16579001    -1630.9704      552.3811       552.3811       552.3811       1.6854521e+08  2.1857175     -4074650       -4074650        973.43552     -4073676.5     -1639.1365     -1617.5547     -1636.2201     -2.1866684     -0.24441057    -2.2440988      14440.085    
    187000   327.00733      0.0935         0.16562719     0.16355205     0.16509426    -1626.0334      552.63379      552.63379      552.63379      1.6877663e+08  2.1827206     -4069424.5     -4069424.5      973.77199     -4068450.8     -1634.6133     -1614.1333     -1629.3537     -0.30394819    -0.59621005    -3.2733782      14429.776    
    188000   327.65356      0.094          0.16453596     0.16341897     0.16431146    -1619.4305      552.88648      552.88648      552.88648      1.6900825e+08  2.1797292     -4064212.2     -4064212.2      975.69636     -4063236.5     -1623.8437     -1612.8198     -1621.628       2.5056847     -0.71647245    -1.6141327      14352.055    
    189000   327.90173      0.0945         0.16354108     0.1631485      0.16363167    -1613.0315      553.13917      553.13917      553.13917      1.6924009e+08  2.1767433     -4059014.4     -4059014.4      976.43535     -4058037.9     -1614.025      -1610.1505     -1614.919       4.3864504     -0.011683115    3.4729742      14425.242    
    190000   327.95258      0.095          0.16275999     0.16227915     0.163071      -1605.7575      553.39186      553.39186      553.39186      1.6947213e+08  2.1737628     -4053838.8     -4053838.8      976.58679     -4052862.2     -1606.3162     -1601.5707     -1609.3857      3.6438758      1.1649212      8.327334       14420.412    
    191000   328.18723      0.0955         0.16241136     0.16129922     0.16293523    -1600.9403      553.64455      553.64455      553.64455      1.6970439e+08  2.1707878     -4048683.9     -4048683.9      977.28554     -4047706.6     -1602.8755     -1591.8996     -1608.0457      0.83359735     1.1049555      7.6609204      14406.211    
    192000   328.07503      0.096          0.16239024     0.16081746     0.1627076     -1598.537       553.89724      553.89724      553.89724      1.6993686e+08  2.1678182     -4043531.9     -4043531.9      976.9514      -4042554.9     -1602.667      -1587.1449     -1605.7991      0.16029153    -1.1044815      2.1809362      14440.51     
    193000   327.85279      0.0965         0.16219905     0.16050833     0.16164098    -1593.3822      554.14993      554.14993      554.14993      1.7016955e+08  2.164854      -4038378.9     -4038378.9      976.28962     -4037402.7     -1600.7802     -1584.0941     -1595.2725      0.57084713    -3.4020525     -1.8568382      14447.746    
    194000   327.75612      0.097          0.16161604     0.16009316     0.16019279    -1585.3343      554.40262      554.40262      554.40262      1.7040245e+08  2.1618952     -4033238.8     -4033238.8      976.00177     -4032262.8     -1595.0263     -1579.9967     -1580.9799     -0.43871886    -4.7856728     -2.678283       14387.385    
    195000   327.39328      0.0975         0.16071563     0.15943963     0.15924369    -1577.0999      554.65531      554.65531      554.65531      1.7063555e+08  2.1589417     -4028127.7     -4028127.7      974.92128     -4027152.8     -1586.1399     -1573.5468     -1571.613      -1.1370126     -4.170717      -2.4021131      14442.837    
    196000   327.0182       0.098          0.15974243     0.15864186     0.15899964    -1570.471       554.908        554.908        554.908        1.7086887e+08  2.1559937     -4023043.6     -4023043.6      973.80437     -4022069.8     -1576.5353     -1565.6734     -1569.2045     -0.89215956    -1.3177817     -1.6926166      14434.931    
    197000   326.73117      0.0985         0.15906806     0.1579926      0.15914931    -1566.609       555.16069      555.16069      555.16069      1.7110241e+08  2.153051      -4017969.2     -4017969.2      972.94964     -4016996.2     -1569.8797     -1559.2657     -1570.6815     -0.24974854     1.0734997     -0.097911183    14424.209    
    198000   326.13378      0.099          0.15875859     0.15768072     0.15915312    -1564.5775      555.41338      555.41338      555.41338      1.7133616e+08  2.1501137     -4012889.4     -4012889.4      971.17072     -4011918.3     -1566.8255     -1556.1877     -1570.7192      0.53769973     1.275922       1.3645245      14440.949    
    199000   325.51181      0.0995         0.1583649      0.15737361     0.15879318    -1561.0879      555.66607      555.66607      555.66607      1.7157011e+08  2.1471818     -4007809.3     -4007809.3      969.31857     -4006840       -1562.94       -1553.1568     -1567.1668      2.6168298      0.59107163     1.3709766      14417.226    
    200000   325.56273      0.1            0.15801583     0.15692564     0.15824467    -1556.6614      555.91876      555.91876      555.91876      1.7180429e+08  2.1442551     -4002739.6     -4002739.6      969.47021     -4001770.1     -1559.495      -1548.7357     -1561.7535      4.2543254      0.61535571     0.66361572     14146.463    
    201000   326.3743       0.1005         0.1576755      0.15653169     0.15756262    -1552.002       556.17145      556.17145      556.17145      1.7203867e+08  2.1413338     -3997683.3     -3997683.3      971.88693     -3996711.4     -1556.1362     -1544.8477     -1555.0222      3.1910038     -0.015049935   -0.19996902     14432.566    
    202000   327.56625      0.101          0.15732041     0.1561066      0.15678374    -1546.8731      556.42414      556.42414      556.42414      1.7227327e+08  2.1384178     -3992641.5     -3992641.5      975.43635     -3991666       -1552.6317     -1540.6524     -1547.3352     -0.0042828158  -0.8042479     -1.2746826      14369.144    
    203000   328.23422      0.1015         0.15703128     0.1556237      0.15615699    -1542.2715      556.67683      556.67683      556.67683      1.7250808e+08  2.135507      -3987615.2     -3987615.2      977.42545     -3986637.7     -1549.7782     -1535.8865     -1541.1496     -1.5197841     -1.1377175     -0.67783934     14418.935    
    204000   328.02678      0.102          0.15664321     0.15519035     0.15572898    -1538.1612      556.92952      556.92952      556.92952      1.7274311e+08  2.1326016     -3982600       -3982600        976.80773     -3981623.2     -1545.9483     -1531.6097     -1536.9255      0.17862467    -1.0879734      1.7856851      14412.223    
    205000   327.19353      0.1025         0.15583672     0.15463296     0.15528193    -1532.2037      557.18221      557.18221      557.18221      1.7297834e+08  2.1297014     -3977592.8     -3977592.8      974.32646     -3976618.4     -1537.9889     -1526.1087     -1532.5135      0.51268569    -1.8892066      3.8374394      14441.987    
    206000   326.29634      0.103          0.15462662     0.15363536     0.15448608    -1522.3228      557.4349       557.4349       557.4349       1.7321379e+08  2.1268065     -3972603       -3972603        971.65477     -3971631.3     -1526.0461     -1516.2631     -1524.6591     -0.70655768    -2.9060967      3.4804928      14419.263    
    207000   325.55556      0.1035         0.15345443     0.15242457     0.1535472     -1511.3947      557.68759      557.68759      557.68759      1.7344946e+08  2.1239168     -3967640.3     -3967640.3      969.44887     -3966670.9     -1514.4774     -1504.3135     -1515.393      -0.48189961    -2.7826573      0.36319004     14376.594    
    208000   324.82428      0.104          0.15292475     0.1516521      0.15299501    -1505.2944      557.94028      557.94028      557.94028      1.7368534e+08  2.1210323     -3962696.3     -3962696.3      967.27124     -3961729       -1509.25       -1496.6899     -1509.9434      0.14201598    -1.0622997     -3.6944993      14436.948    
    209000   324.21283      0.1045         0.15285564     0.15135344     0.15298795    -1504.0613      558.19298      558.19298      558.19298      1.7392143e+08  2.1181531     -3957757       -3957757        965.45045     -3956791.6     -1508.5679     -1493.7423     -1509.8736     -0.045384183    0.078363534   -4.6674478      14411.918    
    210000   324.35911      0.105          0.15272082     0.15116415     0.15293162    -1502.8098      558.44567      558.44567      558.44567      1.7415774e+08  2.1152791     -3952822.7     -3952822.7      965.88604     -3951856.9     -1507.2373     -1491.8742     -1509.3178     -0.093639101   -0.0024945937  -2.2635077      14446.464    
    211000   325.28916      0.1055         0.15242655     0.150966       0.1522084     -1498.8106      558.69836      558.69836      558.69836      1.7439426e+08  2.1124103     -3947898.7     -3947898.7      968.65558     -3946930       -1504.3331     -1489.9186     -1502.1801      0.68778839    -0.10952158     0.4922303      14431.827    
    212000   326.57047      0.106          0.1519358      0.15091517     0.15117129    -1493.6171      558.95105      558.95105      558.95105      1.7463099e+08  2.1095466     -3942986.1     -3942986.1      972.4711      -3942013.6     -1499.4898     -1489.4169     -1491.9446      0.79582019     0.75517927     1.8646451      14419.02     
    213000   327.33077      0.1065         0.15149674     0.15112727     0.15052422    -1490.7418      559.20374      559.20374      559.20374      1.7486794e+08  2.1066882     -3938080.4     -3938080.4      974.73514     -3937105.7     -1495.1565     -1491.5102     -1485.5585     -0.61556055     0.80828576     3.8631429      14451.471    
    214000   327.21749      0.107          0.15109532     0.1509525      0.15021634    -1487.8334      559.45643      559.45643      559.45643      1.751051e+08   2.1038349     -3933174.9     -3933174.9      974.39782     -3932200.5     -1491.1948     -1489.7854     -1482.52       -1.5250406     -0.64944849     5.0651397      14420.987    
    215000   327.09557      0.1075         0.15048956     0.14991363     0.14986546    -1481.2687      559.70912      559.70912      559.70912      1.7534248e+08  2.1009867     -3928282       -3928282        974.03476     -3927308       -1485.2165     -1479.5325     -1479.0571     -0.38893642    -3.5428911      2.6931667      14421.417    
    216000   326.96487      0.108          0.14985809     0.14858686     0.14954048    -1473.7575      559.96181      559.96181      559.96181      1.7558007e+08  2.0981437     -3923415.6     -3923415.6      973.64556     -3922442       -1478.9844     -1466.4383     -1475.8498      0.2599045     -4.9312125     -1.0218344      14426.882    
    217000   326.26246      0.1085         0.14918563     0.14752003     0.14924587    -1467.0665      560.2145       560.2145       560.2145       1.7581788e+08  2.0953058     -3918568.7     -3918568.7      971.55388     -3917597.1     -1472.3477     -1455.9095     -1472.9423      0.3124759     -2.7884235     -1.8402895      14434.405    
[...]
   3544000   313.01033      1.772          0.00067592066  0.00066793847  0.00063483064 -6.5093832      1400.9153      1400.9153      1400.9153      2.7493854e+09  0.13399075    -222826.84     -222826.84      932.09132     -221894.75     -6.6708183     -6.5920402     -6.2652912     -0.0093109968   0.1248438     -0.05421391     12390.497    
   3545000   312.84034      1.7725         0.00067554845  0.00066493941  0.00063607758 -6.5023948      1401.168       1401.168       1401.168       2.7508734e+09  0.13391827    -222764.86     -222764.86      931.58511     -221833.28     -6.6671449     -6.5624417     -6.2775976      0.028902265    0.11329745    -0.036999757    12409.913    
   3546000   312.78211      1.773          0.00067578213  0.00066189016  0.00063659564 -6.4948365      1401.4207      1401.4207      1401.4207      2.752362e+09   0.13384585    -222703.53     -222703.53      931.41171     -221772.12     -6.6694511     -6.532348      -6.2827105      0.053072489    0.09504149    -0.037549306    12412.713    
   3547000   312.782        1.7735         0.00067695851  0.0006603729   0.00063708795 -6.4953347      1401.6734      1401.6734      1401.6734      2.7538511e+09  0.13377347    -222642.01     -222642.01      931.41138     -221710.6      -6.6810611     -6.5173738     -6.2875692      0.054648183    0.078758064   -0.055485479    12453.577    
   3548000   312.89824      1.774          0.0006788374   0.00066147567  0.00063753605 -6.5066177      1401.926       1401.926       1401.926       2.7553407e+09  0.13370115    -222579.98     -222579.98      931.75754     -221648.22     -6.6996042     -6.5282573     -6.2919917      0.042452271    0.068000031   -0.081329744    12480.252    
   3549000   312.94823      1.7745         0.00068040519  0.00066536622  0.00063648623 -6.5211206      1402.1787      1402.1787      1402.1787      2.7568309e+09  0.13362888    -222517.91     -222517.91      931.90638     -221586.01     -6.7150771     -6.566654      -6.2816307      0.0277666      0.060528715   -0.10446821     12472.828    
   3550000   312.90025      1.775          0.00068128722  0.00067246499  0.00063485182 -6.5419987      1402.4314      1402.4314      1402.4314      2.7583216e+09  0.13355666    -222455.88     -222455.88      931.76352     -221524.12     -6.7237821     -6.6367135     -6.2655003      0.024450631    0.057562533   -0.11857195     12255.595    
   3551000   313.05065      1.7755         0.00068171788  0.00068175891  0.00063352725 -6.5696325      1402.6841      1402.6841      1402.6841      2.7598129e+09  0.13348449    -222393.84     -222393.84      932.21139     -221461.63     -6.7280324     -6.7284373     -6.2524278      0.043011565    0.064537874   -0.12291965     12412.708    
   3552000   313.48759      1.776          0.00068205645  0.00068972734  0.00063274942 -6.5944016      1402.9368      1402.9368      1402.9368      2.7613047e+09  0.13341238    -222332        -222332         933.5125      -221398.49     -6.7313738     -6.8070796     -6.2447512      0.07707615     0.080710677   -0.12139257     12380.207    
   3553000   313.9386       1.7765         0.00068143052  0.00069199969  0.00063258997 -6.5992933      1403.1895      1403.1895      1403.1895      2.762797e+09   0.13334032    -222271.06     -222271.06      934.85556     -221336.2      -6.7251963     -6.8295059     -6.2431776      0.11120187     0.089951764   -0.12323122     12372.119    
   3554000   314.05113      1.777          0.00067943429  0.00068799075  0.00063310687 -6.5812383      1403.4422      1403.4422      1403.4422      2.7642898e+09  0.1332683     -222210.91     -222210.91      935.19064     -221275.72     -6.7054951     -6.7899408     -6.248279       0.13881514     0.076790435   -0.13233717     12389.589    
   3555000   313.74         1.7775         0.00067664098  0.00068112423  0.0006339959  -6.5523846      1403.6949      1403.6949      1403.6949      2.7657833e+09  0.13319635    -222150.13     -222150.13      934.26415     -221215.87     -6.6779272     -6.7221735     -6.257053       0.16560756     0.048194331   -0.1346417      12409.699    
   3556000   313.34516      1.778          0.000674676    0.0006749927   0.0006357563  -6.5315404      1403.9476      1403.9476      1403.9476      2.7672772e+09  0.13312444    -222088.71     -222088.71      933.08839     -221155.63     -6.6585344     -6.66166       -6.2744268      0.19063865     0.031036019   -0.12463228     12447.944    
   3557000   313.27113      1.7785         0.00067472276  0.00067159774  0.00063863565 -6.529998       1404.2003      1404.2003      1404.2003      2.7687717e+09  0.13305258    -222027.99     -222027.99      932.86794     -221095.12     -6.6589959     -6.6281543     -6.3028438      0.20599522     0.043471615   -0.10993416     12402.952    
   3558000   313.51107      1.779          0.00067604233  0.00067148131  0.00064115323 -6.5422382      1404.4529      1404.4529      1404.4529      2.7702667e+09  0.13298078    -221968.38     -221968.38      933.58244     -221034.8      -6.672019      -6.6270053     -6.3276904      0.20725971     0.073797641   -0.10017382     12417.442    
   3559000   313.79688      1.7795         0.0006770469   0.0006734579   0.00064229972 -6.5558172      1404.7056      1404.7056      1404.7056      2.7717622e+09  0.13290903    -221909.42     -221909.42      934.43353     -220974.99     -6.6819334     -6.6465128     -6.3390053      0.19847517     0.098150634   -0.097078289    12429.826    
   3560000   313.82976      1.78           0.00067673571  0.00067499056  0.00064166402 -6.5577442      1404.9583      1404.9583      1404.9583      2.7732583e+09  0.13283733    -221849.87     -221849.87      934.53142     -220915.34     -6.6788622     -6.6616389     -6.3327315      0.18562387     0.099031986   -0.098792154    12471.043    
   3561000   313.64777      1.7805         0.00067480371  0.00067438983  0.00064013813 -6.5443924      1405.211       1405.211       1405.211       2.774755e+09   0.13276568    -221789.48     -221789.48      933.98951     -220855.49     -6.6597948     -6.6557102     -6.3176721      0.17320732     0.076215645   -0.11117668     12471.407    
   3562000   313.4632       1.781          0.0006714454   0.00067301678  0.00063632458 -6.5162818      1405.4637      1405.4637      1405.4637      2.7762521e+09  0.13269408    -221729.28     -221729.28      933.43987     -220795.85     -6.6266509     -6.6421592     -6.2800353      0.16233737     0.034424881   -0.11756446     12502.641    
   3563000   313.14552      1.7815         0.00066709136  0.00067228822  0.00062963945 -6.477569       1405.7164      1405.7164      1405.7164      2.7777498e+09  0.13262253    -221669.87     -221669.87      932.49388     -220737.38     -6.5836798     -6.6349688     -6.2140582      0.14847697    -0.0073161054  -0.10019899     12527.472    
   3564000   312.91206      1.782          0.00066244127  0.0006712997   0.00062511425 -6.4441327      1405.9691      1405.9691      1405.9691      2.7792481e+09  0.13255104    -221610.93     -221610.93      931.79869     -220679.13     -6.5377871     -6.625213      -6.1693979      0.12591198    -0.023656647   -0.081582117    12534.327    
   3565000   313.04453      1.7825         0.00065845955  0.00066905349  0.00062221521 -6.4141072      1406.2218      1406.2218      1406.2218      2.7807469e+09  0.13247959    -221552.3      -221552.3       932.19314     -220620.1      -6.4984905     -6.6030446     -6.1407867      0.092219895   -0.016838861   -0.080739133    12516.382    
   3566000   313.1022       1.783          0.00065619358  0.00066715611  0.00061799475 -6.3865267      1406.4745      1406.4745      1406.4745      2.7822462e+09  0.1324082     -221494.35     -221494.35      932.36489     -220561.98     -6.4761271     -6.5843189     -6.0991339      0.062357764   -0.0038431019  -0.089091684    12500.843    
   3567000   313.0197       1.7835         0.0006568733   0.00066718343  0.00061704702 -6.3857348      1406.7272      1406.7272      1406.7272      2.7837461e+09  0.13233686    -221436.71     -221436.71      932.11922     -220504.59     -6.4828354     -6.5845885     -6.0897806      0.05648934     0.016424931   -0.090077452    12481.234    
   3568000   313.11519      1.784          0.00065937998  0.00066734232  0.0006208606  -6.4070496      1406.9798      1406.9798      1406.9798      2.7852465e+09  0.13226557    -221378.77     -221378.77      932.40356     -220446.37     -6.5075744     -6.5861567     -6.1274177      0.073881121    0.044207765   -0.074883972    12451.025    
   3569000   313.3015       1.7845         0.00066187115  0.00066711086  0.00062688111 -6.4342894      1407.2325      1407.2325      1407.2325      2.7867474e+09  0.13219433    -221320.88     -221320.88      932.95837     -220387.92     -6.5321604     -6.5838723     -6.1868355      0.097237289    0.070204101   -0.056286715    12468.886    
   3570000   313.59013      1.785          0.00066329024  0.00066984969  0.00063237839 -6.4660525      1407.4852      1407.4852      1407.4852      2.7882489e+09  0.13212315    -221263.2      -221263.2       933.81786     -220329.39     -6.5461657     -6.6109024     -6.2410895      0.12052712     0.082646348   -0.045430435    12494.899    
   3571000   314.04968      1.7855         0.00066280742  0.00067539663  0.00063485827 -6.4908704      1407.7379      1407.7379      1407.7379      2.7897509e+09  0.13205201    -221205.54     -221205.54      935.18631     -220270.36     -6.5414006     -6.6656465     -6.2655639      0.1396132      0.085152153   -0.048165855    12496.061    
   3572000   314.38401      1.786          0.00066027853  0.00067834101  0.00063512806 -6.4931248      1407.9906      1407.9906      1407.9906      2.7912535e+09  0.13198093    -221148.06     -221148.06      936.18189     -220211.87     -6.5164425     -6.6947052     -6.2682266      0.13714789     0.091699996   -0.068127964    12502.415    
   3573000   314.32548      1.7865         0.00065774688  0.00067714393  0.00063517929 -6.4810267      1408.2433      1408.2433      1408.2433      2.7927566e+09  0.13190989    -221091.05     -221091.05      936.0076      -220155.04     -6.491457      -6.682891      -6.2687322      0.10990929     0.10855625    -0.090534724    12508.505    
   3574000   314.07535      1.787          0.00065705969  0.00067574094  0.00063464368 -6.4723886      1408.496       1408.496       1408.496       2.7942602e+09  0.13183891    -221033.96     -221033.96      935.26277     -220098.69     -6.484675      -6.6690446     -6.2634461      0.083150199    0.12398035    -0.09230655     12529.998    
   3575000   313.91416      1.7875         0.00065744378  0.00067489637  0.00063277489 -6.4647259      1408.7487      1408.7487      1408.7487      2.7957644e+09  0.13176798    -220976.65     -220976.65      934.78277     -220041.87     -6.4884656     -6.6607093     -6.2450026      0.073853152    0.12375877    -0.082659104    12502.023    
   3576000   313.73721      1.788          0.00065711075  0.00067261115  0.00063037134 -6.4482054      1409.0014      1409.0014      1409.0014      2.7972691e+09  0.1316971     -220919.82     -220919.82      934.25585     -219985.56     -6.4851788     -6.6381559     -6.2212814      0.075723843    0.10073483    -0.088180124    12496.27     
   3577000   313.47534      1.7885         0.00065647607  0.0006698409   0.00062886887 -6.4320613      1409.2541      1409.2541      1409.2541      2.7987744e+09  0.13162627    -220862.95     -220862.95      933.47605     -219929.47     -6.478915      -6.6108157     -6.2064532      0.082683125    0.069123312   -0.1063751      12462.76     
   3578000   313.41659      1.789          0.00065646297  0.00066820372  0.00062882183 -6.4264776      1409.5068      1409.5068      1409.5068      2.8002802e+09  0.13155549    -220805.4      -220805.4       933.3011      -219872.1      -6.4787858     -6.594658      -6.205989       0.095112992    0.045777371   -0.11403144     12452.123    
   3579000   313.61881      1.7895         0.00065713396  0.00066712887  0.0006290233  -6.4258118      1409.7594      1409.7594      1409.7594      2.8017865e+09  0.13148476    -220748.37     -220748.37      933.90327     -219814.47     -6.485408      -6.58405       -6.2079773      0.10407192     0.036513977   -0.10553203     12446.43     
   3580000   313.75872      1.79           0.0006583279   0.00066544224  0.00062820738 -6.4215068      1410.0121      1410.0121      1410.0121      2.8032934e+09  0.13141408    -220692.64     -220692.64      934.31989     -219758.32     -6.4971913     -6.5674043     -6.1999248      0.10052235     0.037114484   -0.098077812    12430.815    
   3581000   313.7126       1.7905         0.00065943234  0.0006640605   0.00062617697 -6.413915       1410.2648      1410.2648      1410.2648      2.8048008e+09  0.13134345    -220637.13     -220637.13      934.18255     -219702.95     -6.5080912     -6.5537676     -6.1798862      0.092727947    0.037548986   -0.089341478    12470.097    
   3582000   313.70971      1.791          0.0006591262   0.00066325956  0.00062308222 -6.4000921      1410.5175      1410.5175      1410.5175      2.8063087e+09  0.13127288    -220580.92     -220580.92      934.17394     -219646.75     -6.5050698     -6.545863      -6.1493434      0.093937836    0.034745922   -0.059655454    12432.554    
   3583000   313.76948      1.7915         0.00065717762  0.0006613851   0.00061893843 -6.3738832      1410.7702      1410.7702      1410.7702      2.8078172e+09  0.13120235    -220524.74     -220524.74      934.35192     -219590.39     -6.4858388     -6.5273634     -6.1084473      0.096925791    0.040954847   -0.029245349    12454.475    
   3584000   313.67911      1.792          0.00065446036  0.00065832458  0.0006154211  -6.3433047      1411.0229      1411.0229      1411.0229      2.8093263e+09  0.13113187    -220469.62     -220469.62      934.08283     -219535.54     -6.4590215     -6.4971585     -6.073734       0.084983101    0.052442801   -0.046380764    12417.941    
   3585000   313.51686      1.7925         0.00065154712  0.00065651993  0.00061436681 -6.3243157      1411.2756      1411.2756      1411.2756      2.8108359e+09  0.13106145    -220414.76     -220414.76      933.59968     -219481.16     -6.4302701     -6.479348      -6.063329       0.069674479    0.045936616   -0.09764739     12413.23     
   3586000   313.48544      1.793          0.00064845543  0.00065513879  0.00061478563 -6.3109791      1411.5283      1411.5283      1411.5283      2.812346e+09   0.13099107    -220359.25     -220359.25      933.50611     -219425.74     -6.3997575     -6.4657172     -6.0674625      0.075502258    0.025781396   -0.12521341     12405.466    
   3587000   313.51912      1.7935         0.00064574234  0.00065197107  0.0006143947  -6.2903466      1411.781       1411.781       1411.781       2.8138566e+09  0.13092075    -220304.6      -220304.6       933.60639     -219370.99     -6.3729814     -6.4344542     -6.0636043      0.093524254    0.017632931   -0.12235485     12340.299    
   3588000   313.57465      1.794          0.00064380214  0.00064849875  0.00061266147 -6.2668389      1412.0337      1412.0337      1412.0337      2.8153678e+09  0.13085048    -220251.45     -220251.45      933.77176     -219317.68     -6.3538331     -6.400185      -6.0464986      0.1060696      0.014057356   -0.11936387     12352.28     
   3589000   313.58161      1.7945         0.0006422305   0.00064634238  0.00060995237 -6.2456624      1412.2863      1412.2863      1412.2863      2.8168796e+09  0.13078025    -220198.38     -220198.38      933.79248     -219264.59     -6.3383222     -6.3789033     -6.0197618      0.11662181     0.0019309944  -0.11589595     12362.752    
   3590000   313.5651       1.795          0.00064254713  0.00064428479  0.00060943762 -6.2382418      1412.539       1412.539       1412.539       2.8183919e+09  0.13071008    -220145.03     -220145.03      933.74332     -219211.29     -6.3414471     -6.3585965     -6.0146817      0.12113398     0.0073144129  -0.095225136    12346.119    
   3591000   313.82837      1.7955         0.00064493326  0.00064082805  0.00061179348 -6.2424699      1412.7917      1412.7917      1412.7917      2.8199047e+09  0.13063995    -220092.04     -220092.04      934.52729     -219157.51     -6.3649964     -6.3244812     -6.0379322      0.11013576     0.03591824    -0.071968524    12305.779    
   3592000   314.12777      1.796          0.00064620052  0.0006370005   0.00061291823 -6.2377473      1413.0444      1413.0444      1413.0444      2.8214181e+09  0.13056988    -220040.12     -220040.12      935.41887     -219104.7      -6.3775033     -6.2867062     -6.0490326      0.098975674    0.048016063   -0.063686223    12307.935    
   3593000   314.131        1.7965         0.00064616918  0.00063569457  0.00061205182 -6.2304978      1413.2971      1413.2971      1413.2971      2.822932e+09   0.13049986    -219988.76     -219988.76      935.42848     -219053.33     -6.377194      -6.2738176     -6.0404818      0.10589626     0.040433382   -0.058178897    12300.103    
   3594000   314.12891      1.797          0.00064645413  0.00063619046  0.00061173195 -6.2320143      1413.5498      1413.5498      1413.5498      2.8244464e+09  0.13042989    -219936.55     -219936.55      935.42226     -219001.13     -6.3800062     -6.2787117     -6.037325       0.1186708      0.037267101   -0.053765649    12314.121    
   3595000   314.12985      1.7975         0.00064584139  0.0006364063   0.00061171999 -6.2306692      1413.8025      1413.8025      1413.8025      2.8259614e+09  0.13035996    -219884.07     -219884.07      935.42504     -218948.65     -6.373959      -6.2808419     -6.0372069      0.12261436     0.031686163   -0.06642681     12304.164    
   3596000   313.94293      1.798          0.00064389569  0.00063763183  0.00061151086 -6.2276121      1414.0552      1414.0552      1414.0552      2.8274769e+09  0.13029009    -219832.49     -219832.49      934.86843     -218897.62     -6.3547563     -6.2929369     -6.0351429      0.12702243     0.022187167   -0.081141083    12305.494    
   3597000   314.00015      1.7985         0.0006413906   0.00063984223  0.0006116687  -6.2271618      1414.3079      1414.3079      1414.3079      2.828993e+09   0.13022027    -219781.08     -219781.08      935.03883     -218846.04     -6.3300331     -6.3147518     -6.0367007      0.13133045     0.024811213   -0.081694347    12220.921    
   3598000   314.28459      1.799          0.00063730294  0.00063853047  0.00060965647 -6.2027794      1414.5606      1414.5606      1414.5606      2.8305096e+09  0.13015049    -219729.89     -219729.89      935.88584     -218794.01     -6.2896909     -6.3018058     -6.0168416      0.11935542     0.046152848   -0.088900279    12306.932    
   3599000   314.11764      1.7995         0.00063193652  0.00063322708  0.00060479079 -6.1516717      1414.8132      1414.8132      1414.8132      2.8320268e+09  0.13008077    -219679.65     -219679.65      935.38868     -218744.26     -6.2367286     -6.2494654     -5.9688211      0.095183692    0.071966463   -0.10997011     12293.106    
   3600000   313.58317      1.8            0.00062785785  0.00062852055  0.00060073478 -6.1094273      1415.0659      1415.0659      1415.0659      2.8335445e+09  0.1300111     -219629.45     -219629.45      933.79713     -218695.66     -6.1964752     -6.2030155     -5.9287913      0.084765653    0.082411022   -0.11978749     12116.705    
   3601000   313.35552      1.8005         0.00062616511  0.00062643651  0.00059954524 -6.0930894      1415.3186      1415.3186      1415.3186      2.8350627e+09  0.12994147    -219578.91     -219578.91      933.11924     -218645.79   