ITEM: TIMESTEP
50200000
ITEM: NUMBER OF ATOMS
1000
ITEM: BOX BOUNDS pp pp pp
2.1745522947289860e+03 2.8254477052707894e+03
2.1745522947289860e+03 2.8254477052707894e+03
2.1745522947289860e+03 2.8254477052707894e+03
ITEM: ATOMS type x y z ix iy iz c_vor[1] c_vor[2]
1 2431.64 2743.81 2480.19 1 0 -1 205694 13
1 2378.39 2700.41 2636.64 0 -1 0 273293 11
1 2659.11 2597.48 2555.24 1 0 -1 212684 15
1 2411.17 2176.06 2746.99 0 0 -1 263544 11
1 2339.97 2493.67 2373.7 -1 0 0 187818 13
1 2585.13 2732.52 2423.24 0 -1 0 147666 15
1 2501.75 2691.28 2464.97 0 -1 0 160529 11
1 2617.07 2629.63 2560.26 -1 0 0 193038 12
1 2476.13 2592.89 2457.44 0 -1 0 161321 14
1 2444.35 2616.68 2506.29 1 0 0 188334 12
1 2506.81 2352.41 2232.88 0 0 0 201824 11
1 2337.94 2521.26 2750.01 0 0 -1 262809 11
1 2788.32 2607.32 2481.83 -1 0 0 203024 12
1 2391.32 2341.88 2389.18 -1 -1 0 242043 14
1 2506.48 2527.63 2808.62 0 0 -1 183553 12
1 2437.65 2673.43 2538.02 1 -1 0 224349 14
1 2455.39 2655.56 2471.74 0 -1 0 145339 13
1 2798.2 2513.38 2500.71 -1 0 -1 153921 13
1 2559.35 2531.09 2613.5 0 0 0 179711 14
1 2430.23 2227.54 2298.52 -1 0 -1 230460 11
1 2816.98 2254.64 2233.61 -1 0 0 300695 12
1 2292.09 2510.1 2392.01 0 -2 0 240794 13
1 2417.9 2692.44 2471.12 -1 -1 -1 162855 12
1 2220.2 2437.65 2509.37 0 -1 0 142337 12
1 2288.26 2743.2 2277.04 0 -1 0 303862 11
1 2591.62 2538.1 2816.2 -1 0 -1 207882 14
1 2176.28 2416.88 2532.29 0 0 -1 164662 14
1 2473.75 2479.35 2322.77 -1 0 -1 190033 12
1 2631.42 2781.05 2586.37 0 -1 -1 263469 11
1 2367.61 2379.71 2214.38 0 0 0 197999 10
1 2583.44 2638.03 2367.26 0 -1 -1 146456 15
1 2594.41 2319.38 2585.4 -1 0 0 180730 12
1 2458.08 2386.85 2662.18 0 1 0 199297 12
1 2659.95 2619.09 2224.68 0 0 0 292855 14
1 2335.88 2682.06 2539.58 0 -1 0 230575 12
1 2475.27 2177.16 2432.67 -1 -1 0 165551 11
1 2706.74 2698.58 2485.65 -1 -1 -1 185857 12
1 2509.08 2629.25 2479.48 0 -1 1 170310 13
1 2500.04 2372.08 2335.97 0 -1 0 209843 12
1 2734.25 2542.13 2514.67 -1 0 -2 161151 16
1 2705.55 2418.72 2636.08 -1 0 -1 180614 13
1 2658.76 2648.98 2758.65 -1 -1 -1 224691 10
1 2591.69 2511.22 2672.78 -1 0 -2 240565 14
1 2540.99 2668.66 2376.24 -1 1 0 161219 14
1 2670.02 2494.96 2423.87 1 0 -1 141192 13
1 2414.45 2558.81 2709.53 0 0 -2 229159 13
1 2315.8 2638.14 2493.47 -1 1 -1 205361 14
1 2499.94 2358.34 2543.75 1 -1 1 275667 14
1 2250.31 2218.34 2539.69 0 0 0 260201 11
1 2236.74 2500.25 2506.16 1 -1 0 141071 13
1 2565.89 2624.54 2204.8 -1 -1 0 189786 13
1 2683.82 2696.05 2398.88 1 -1 0 169280 12
1 2406.76 2274.23 2313.28 0 -1 0 229267 14
1 2351.92 2735.37 2798.03 0 -1 -1 265614 12
1 2227.22 2388.54 2531.76 0 -1 0 169049 13
1 2458.9 2395.39 2290.82 0 0 0 216784 13
1 2583.42 2803.21 2420.62 0 -1 0 185838 17
1 2752.23 2396.66 2653.06 -1 0 0 257894 14
1 2212.85 2393.07 2697.11 -1 0 -1 259490 12
1 2596.88 2659.51 2280.58 0 -2 -1 204208 11
1 2492.29 2345.03 2746.09 0 0 -1 226270 12
1 2655.62 2443.29 2639.94 -1 0 0 185447 13
1 2285.46 2188.66 2617.63 0 0 0 270181 12
1 2499.71 2647.44 2348.85 1 0 -1 177626 13
1 2426.51 2613.42 2455.45 1 0 0 161615 13
1 2779.04 2668.17 2711.34 0 -1 -1 325658 12
1 2404.7 2482.89 2812.98 0 0 0 192445 11
1 2193.8 2526.51 2525.84 1 -1 -1 148617 14
1 2321.55 2367.7 2190.27 1 -1 0 237879 11
1 2269.01 2402.47 2762.13 0 0 -1 244022 12
1 2176.53 2445.72 2798.16 2 0 -1 222302 11
1 2622 2507.85 2508.48 0 0 0 148554 12
1 2731.98 2594.66 2523.35 0 0 -1 190397 14
1 2695.76 2501.13 2469.98 1 0 0 143379 12
1 2708.21 2292.55 2767.5 0 -1 -1 289374 12
1 2270.31 2400.92 2500.98 1 -1 -1 152020 12
1 2389.41 2459.33 2605.86 1 1 -1 233324 11
1 2423.25 2434.1 2666.73 1 0 0 189522 14
1 2348.14 2559.83 2321.07 1 0 0 196601 11
1 2208.56 2761.27 2197.36 1 -1 0 256932 10
1 2482.53 2654.45 2517.08 0 0 0 154401 11
1 2456.46 2730.54 2354.31 1 -2 -1 229787 12
1 2606.18 2642.21 2415.86 0 -1 0 129973 12
1 2662.98 2547.33 2417.48 1 0 -1 140005 12
1 2366.24 2697.06 2468.25 0 -1 0 188538 13
1 2480.31 2428.31 2636.72 0 0 -1 205455 14
1 2516 2276.54 2286.83 0 0 0 211115 9
1 2407.6 2527.34 2625.97 1 0 -1 207344 12
1 2294.66 2236.34 2209.7 1 0 1 251866 12
1 2339.13 2561.45 2454.54 0 -1 0 134804 12
1 2574.09 2795.14 2348.9 1 -2 0 194900 13
1 2357.24 2546.37 2228.81 0 -1 -1 236206 14
1 2529.95 2705.58 2625.71 0 -1 -1 249786 13
1 2654.8 2187.21 2475.52 0 0 0 196879 12
1 2616.04 2811.06 2499.88 -1 -1 0 193387 15
1 2284.13 2583.11 2519.02 0 0 0 166251 13
1 2488.85 2589.62 2511.17 1 0 0 178495 13
1 2522.6 2604.8 2372.68 1 -1 0 158173 11
1 2671.19 2272.25 2565.46 0 0 0 233349 12
1 2517.02 2401.21 2210.38 0 -1 0 193760 13
1 2381.69 2545.21 2669.64 1 -1 0 190904 12
1 2340.25 2541.74 2547.37 0 -1 -1 216989 12
1 2399.23 2394.61 2425.45 0 0 0 222137 12
1 2493.93 2558.35 2564.82 0 -1 1 175780 12
1 2500.59 2727.41 2282.1 0 -2 0 227681 12
1 2726.3 2526.94 2271.69 -1 0 0 250562 12
1 2182 2444.75 2470.88 0 0 -1 190652 12
1 2570.37 2554.98 2552.49 0 0 -1 204546 13
1 2586.61 2742.65 2351.58 0 0 0 176394 14
1 2608.51 2542.08 2632.06 1 0 -2 202318 12
1 2781.12 2282.04 2324.01 0 0 0 274720 10
1 2548.44 2496.53 2795.17 -1 -1 -2 200070 12
1 2577.83 2697.89 2502.52 -1 0 0 159062 13
1 2357.99 2457.69 2498.63 0 0 0 161440 13
1 2784.84 2501.34 2717.12 -1 0 0 222011 12
1 2624.36 2325.53 2479.54 0 0 0 227515 12
1 2262.15 2461.97 2534.1 0 0 0 151126 14
1 2557.05 2765.38 2390.87 1 1 -1 158877 13
1 2436.09 2317.06 2184.59 0 0 1 251003 12
1 2315.58 2376.41 2516.34 1 -1 0 182661 11
1 2263.97 2450.5 2481.51 2 -1 -1 156645 14
1 2680.24 2214.34 2277.1 0 0 0 275902 10
1 2717.21 2677.09 2436.6 0 0 0 185338 13
1 2498.02 2527.14 2312.93 1 0 0 178981 12
1 2445.74 2789.53 2454.3 0 -1 -1 240468 14
1 2486.81 2691.23 2320.6 0 0 1 162981 11
1 2633.88 2466.48 2541.8 0 1 0 180734 14
1 2619.99 2429.04 2482.12 0 0 0 161095 13
1 2596.81 2289.42 2202.67 0 1 0 294630 11
1 2564.96 2521.59 2511.5 0 -1 -1 172692 12
1 2636.66 2644.08 2663.73 0 -1 -1 228895 12
1 2209.58 2288.14 2611.85 1 1 0 220336 9
1 2536.43 2577.8 2243.99 0 0 0 190046 15
1 2632.1 2733.05 2609.54 -1 1 -1 257066 13
1 2505.58 2539.95 2614.9 0 1 -1 180279 13
1 2181.4 2474.49 2515.77 2 0 0 144001 14
1 2726.71 2515.2 2657.25 0 0 -1 194525 11
1 2426.31 2439.4 2551.53 0 1 0 237290 11
1 2695.6 2800.97 2475.46 -2 -1 0 209904 11
1 2814.72 2525.23 2274.64 -1 0 0 266897 13
1 2483.78 2540.64 2443.62 0 1 0 186594 14
1 2659.27 2720.19 2500.39 0 0 0 150592 12
1 2253.19 2505.76 2456.19 0 0 0 160154 12
1 2549.78 2717.61 2461.72 0 1 0 153306 13
1 2217.48 2544.78 2464.5 0 1 -1 154435 12
1 2192.22 2648.58 2544 0 0 0 228566 12
1 2415.29 2364.57 2196.49 0 0 0 186615 13
1 2469.99 2643.8 2303.79 0 1 0 171676 10
1 2319.77 2320.22 2408.04 0 0 -1 271364 12
1 2700.19 2753.43 2500.6 -1 0 0 186850 11
1 2743.35 2316.42 2802.34 -1 0 -1 246021 11
1 2489.33 2578.95 2406.8 0 0 0 179941 12
1 2522.71 2814.23 2455.45 -1 0 -1 163861 14
1 2601.72 2764.09 2797.8 0 -1 -1 275510 13
1 2329.48 2493.17 2527.77 -1 1 0 170094 13
1 2759.85 2610.33 2356.65 0 0 0 241731 11
1 2496.59 2520.42 2259.58 -1 0 0 152717 15
1 2248.09 2603.17 2484.58 0 1 -1 170037 14
1 2310.4 2277.46 2308.14 0 1 0 253634 12
1 2435.45 2555.01 2424.74 0 0 -1 191472 16
1 2584.29 2464.54 2750.43 0 0 0 241790 15
1 2374.79 2344.99 2729.29 0 1 -1 289199 13
1 2515.79 2444.48 2709.39 0 1 -1 209682 16
1 2711.3 2529.94 2422.86 0 1 1 154957 13
1 2520.88 2448.54 2234.54 0 0 1 199292 12
1 2321.72 2411 2476.75 -1 -1 0 173270 13
1 2701.07 2553.76 2472 -2 0 0 132553 14
1 2641.42 2473.19 2384.69 0 1 -1 146455 11
1 2612.52 2190.9 2442.82 -1 0 0 174887 11
1 2465.02 2556.2 2285.17 0 0 -1 184726 14
1 2668.79 2350.75 2605.46 0 -1 -2 235653 14
1 2318.47 2692.89 2490.23 0 0 0 197234 12
1 2386.98 2422.62 2239.2 0 0 0 225434 11
1 2820.41 2352.16 2394.02 -1 1 -1 314099 12
1 2558.97 2248.24 2395.48 0 1 -1 215185 13
1 2709.55 2471.7 2630.57 0 1 0 162670 12
1 2190.68 2434.58 2670.16 0 0 -1 238696 15
1 2280.3 2801.96 2557.54 0 -1 0 296930 11
1 2809.45 2265.57 2503.42 -1 1 -1 259185 13
1 2594.53 2530.5 2468.23 -2 1 0 176451 12
1 2345.43 2522.68 2418.02 0 1 -1 133870 12
1 2650.86 2473.57 2478.4 1 0 0 136227 15
1 2632.56 2388.59 2434.87 -1 1 -1 186511 14
1 2599.49 2236.09 2535.78 0 1 0 236726 14
1 2467.82 2424.26 2697.7 0 1 0 174915 11
1 2560.19 2373.96 2637.34 0 1 -2 190452 12
1 2777.45 2756.25 2416.74 -1 0 0 274255 10
1 2560.48 2418.26 2724.09 -1 0 0 220789 11
1 2257.81 2582.15 2435.46 -1 -1 0 202400 12
1 2462.66 2610.92 2768.31 0 0 0 278254 12
1 2611.81 2540.87 2215.7 -1 0 2 246129 13
1 2605.62 2345.98 2630.72 0 0 1 183682 13
1 2592.77 2798.34 2268.85 0 0 0 207361 13
1 2387.79 2460.14 2697.67 0 0 1 205952 10
1 2268.73 2354.14 2526.83 0 -1 0 189475 11
1 2241.77 2524.5 2204.46 0 -1 0 228073 12
1 2668.14 2484.9 2599.3 1 1 -1 227846 15
1 2454.56 2344.79 2225.91 1 0 1 203092 12
1 2310.17 2443.37 2518.25 1 0 1 171191 12
1 2408.33 2326.65 2326.75 0 0 0 216505 13
1 2454.78 2736.88 2537.97 -1 -1 0 236569 12
1 2797.26 2310.21 2532.83 -3 0 0 173025 13
1 2586.1 2623.13 2662.92 -1 -1 1 216375 13
1 2569.35 2570.11 2202.63 0 -1 0 164288 10
1 2752.75 2489.6 2592.54 -1 -1 0 174866 14
1 2507.99 2487.79 2760.92 0 0 0 198095 13
1 2591.16 2691.47 2372.22 -1 -1 1 143558 13
1 2363.39 2541.08 2368.93 0 0 0 184330 12
1 2570.93 2646.11 2806.85 -1 -1 0 226677 12
1 2368.03 2493.14 2640.48 0 0 0 204821 14
1 2541.08 2331.97 2269.15 0 0 1 244558 13
1 2248.79 2746.55 2741.78 0 -1 0 277429 13
1 2301.17 2177.49 2178.6 0 0 1 252482 13
1 2367.38 2679.95 2745.17 -1 -1 0 272321 11
1 2219.11 2432.89 2563.22 0 0 0 151356 14
1 2547.48 2663.54 2465.11 -1 0 1 142263 13
1 2803.23 2485.08 2609.51 -1 0 1 196534 11
1 2658.49 2654.36 2421.1 0 0 0 154238 14
1 2570.27 2580.52 2633.8 0 0 1 163630 14
1 2647.59 2373.75 2484.69 -1 -1 0 159162 12
1 2557.72 2309.66 2400.39 0 0 0 208377 10
1 2528.2 2317.83 2718.32 -1 -1 -1 230796 12
1 2330.44 2223.66 2760.84 0 0 0 254257 11
1 2766.64 2351.19 2519.07 0 -1 0 180387 12
1 2189.58 2765.98 2771.8 0 -1 0 277547 14
1 2733.78 2431.71 2554.42 0 0 1 210290 15
1 2716.08 2411.67 2400.73 0 0 1 216404 12
1 2218.02 2486.45 2553.91 1 0 1 144691 11
1 2723.69 2409.47 2453.38 1 1 1 169760 11
1 2362.46 2720.67 2589.61 0 -1 0 251582 11
1 2781.27 2456.04 2561.52 -1 0 1 161880 13
1 2656.26 2626.23 2709.64 -1 0 0 237080 11
1 2610.95 2768.15 2391.64 -1 1 1 160990 12
1 2689.16 2369 2450.06 0 0 -1 158158 13
1 2510.16 2609.72 2742.59 -1 -1 1 237909 13
1 2340.93 2590 2501.02 0 0 0 162474 12
1 2610.45 2763.99 2231.03 -2 0 0 234380 13
1 2370.08 2544.74 2503.35 0 0 2 156460 12
1 2658.09 2581.5 2457.4 1 0 0 163893 14
1 2181.11 2713.97 2189.72 0 -1 1 278619 13
1 2397.61 2633.9 2259.32 0 -1 1 205293 13
1 2434.98 2481.96 2396.69 0 -1 0 192432 12
1 2685.89 2643.22 2465.84 -1 -2 1 154136 13
1 2736.73 2653.77 2480.51 1 0 -1 192084 12
1 2613.96 2506.44 2423.4 1 0 1 156847 14
1 2356.86 2515.37 2292.58 0 1 0 214794 14
1 2555.67 2437.06 2195.07 -1 -1 1 200690 12
1 2522.2 2707 2417.43 0 0 1 172612 14
1 2650.13 2462.39 2295.95 0 -1 1 232639 10
1 2571.59 2177.19 2474.13 -1 0 0 151258 11
1 2230.05 2795.37 2727.44 0 0 -1 266291 11
1 2259.55 2356.75 2236.47 1 0 -1 278053 12
1 2675.41 2442.96 2414.97 0 1 0 163833 15
1 2518.16 2817.03 2507.9 0 -1 1 206037 11
1 2355.26 2567.88 2730.95 0 0 0 220947 12
1 2218.29 2460.75 2202.09 1 1 1 199353 13
1 2501.41 2703.6 2669.98 0 -1 0 204892 12
1 2695.76 2560.19 2546.73 0 1 0 163838 12
1 2507.94 2293.11 2390.04 1 0 0 202890 12
1 2466.57 2205.41 2388.64 1 0 0 203573 10
1 2475.23 2477.06 2237 0 2 0 165182 14
1 2399.09 2521.2 2403.08 1 0 0 156618 14
1 2204.49 2472.47 2603.97 0 1 -2 180052 13
1 2580.46 2622.26 2459.67 0 -1 0 177159 13
1 2553.8 2588.8 2709.89 1 1 -1 226168 12
1 2797.89 2353.61 2600.7 0 1 -1 206311 12
1 2488.19 2199.06 2479.68 0 0 0 201483 11
1 2484.01 2422.93 2327.63 0 0 -1 183701 13
1 2441.49 2393.63 2810.96 1 1 -2 228430 15
1 2595.13 2587.47 2586.36 1 1 -1 177499 13
1 2517.71 2561.11 2198.06 -1 0 0 175249 12
1 2761.19 2376.55 2470.54 0 1 0 183784 11
1 2205.27 2197.66 2518.46 1 0 0 241281 13
1 2424.97 2659.13 2427.33 0 0 0 180521 12
1 2432.78 2612.75 2401.75 0 0 0 218388 13
1 2482.9 2588.21 2629.2 0 0 -1 218447 12
1 2275.64 2409.52 2448.51 1 0 0 209058 10
1 2618 2278.02 2561.38 1 1 0 189266 12
1 2513.3 2448.82 2464.73 0 0 0 248535 13
1 2609.35 2212.82 2490.19 1 2 0 185529 12
1 2228.63 2409.63 2611.23 2 1 -1 206073 13
1 2287.17 2795.75 2372.82 0 -1 0 278914 10
1 2198.98 2598.33 2559.48 2 -1 -1 207059 12
1 2275.66 2456.95 2296.18 0 0 0 249085 11
1 2548.8 2542.19 2665.91 1 0 -1 187941 12
1 2590.75 2463.81 2394.48 0 1 0 195775 13
1 2528.11 2267.74 2701.85 1 1 0 231459 9
1 2292.79 2448.86 2646.91 0 0 -1 263973 12
1 2691.33 2763.09 2295.64 0 0 0 295594 10
1 2313.39 2336.91 2552.02 1 0 -2 206837 11
1 2583.52 2402.71 2812.85 -1 1 -1 235393 13
1 2255.66 2467.01 2586.94 2 0 -1 190096 12
1 2623.05 2377.01 2592.43 -1 1 -1 175887 13
1 2531.03 2406.5 2810.14 0 0 -2 189958 10
1 2806.89 2379.22 2499.14 -2 0 0 196975 13
1 2525.69 2563.61 2339.55 0 1 -1 184428 12
1 2310.73 2270.66 2798.36 0 1 0 262200 11
1 2624.78 2422.08 2393.37 0 1 0 186981 12
1 2673.23 2176.2 2756.81 0 1 -1 268326 11
1 2767.33 2317.61 2576.25 2 0 0 212063 12
1 2596.5 2410.42 2624.51 1 0 -1 176006 14
1 2779.77 2402.15 2553.23 1 0 1 177764 14
1 2671.92 2381.25 2399.06 1 -1 -1 208743 12
1 2811.85 2359.32 2548.88 -1 1 -1 143786 12
1 2615.62 2672.77 2328.13 1 1 -1 186343 12
1 2448.86 2448.65 2358.5 0 0 0 210079 12
1 2264.09 2191.69 2212.38 0 1 0 238280 11
1 2502.73 2497.08 2707.84 1 0 -1 219919 12
1 2600.08 2731.88 2190.69 0 0 0 220049 9
1 2664.83 2540.36 2508.52 0 1 0 159987 13
1 2428.98 2399.94 2469.41 1 0 0 223708 12
1 2755.11 2523.72 2391.78 0 1 0 228261 11
1 2442.32 2492.14 2197.89 1 0 0 164786 13
1 2656.11 2763.31 2468.78 1 0 1 177520 16
1 2646.6 2524.09 2462.11 1 -1 -1 128987 14
1 2228.69 2567.29 2525.78 0 1 0 171993 13
1 2570.15 2343.11 2441.15 0 0 0 255404 12
1 2770.52 2452.78 2733.46 0 0 -1 256642 13
1 2775.78 2264.55 2545.64 0 0 1 239860 13
1 2203.46 2375.78 2578.03 0 -1 0 175461 13
1 2638.64 2691.04 2539.69 0 0 0 211625 11
1 2475.92 2445.45 2280.17 0 0 1 179375 11
1 2304.15 2349.45 2366.36 0 0 0 234285 11
1 2558.55 2682.66 2756.97 0 1 0 274855 12
1 2812.62 2500.1 2558.99 -1 0 0 162517 15
1 2338.42 2742.26 2476.43 1 -2 -1 253552 11
1 2415.85 2487.47 2661.77 1 0 0 163164 12
1 2507.35 2239.96 2387.03 0 0 1 181724 9
1 2268.32 2478.76 2194.9 1 -1 1 224958 14
1 2424.32 2191.86 2419.79 0 0 1 259545 11
1 2763.25 2502.7 2539.81 -1 -1 0 152313 12
1 2569.06 2681 2419.83 0 0 0 126399 13
1 2701.18 2545.14 2621.32 0 0 -1 249198 14
1 2354.83 2254.05 2707.63 1 0 1 274137 13
1 2633.42 2724.54 2370.68 0 0 0 158035 13
1 2603.19 2428.96 2566.13 0 -1 0 178783 14
1 2745.85 2438.4 2606.01 1 0 1 174461 12
1 2645.12 2669.72 2490.71 1 -1 1 149056 16
1 2580.6 2194.27 2802.3 0 -1 0 304902 14
1 2669.52 2417.27 2461.66 0 -1 0 131335 13
1 2415.63 2451.99 2454.66 0 -1 -1 161501 13
1 2268.66 2545.53 2270.93 1 0 1 264445 12
1 2644.36 2301.89 2601.12 1 0 -1 176137 11
1 2634.59 2495.31 2335.74 0 0 0 192044 12
1 2471.66 2674.38 2702.09 0 0 0 250506 11
1 2383.96 2585.11 2469.9 0 0 0 169043 12
1 2455.84 2357.08 2709.56 0 0 1 212332 13
1 2619.27 2722.37 2464.22 0 0 1 164026 15
1 2626.68 2455.43 2434.4 0 -1 0 130594 12
1 2557.62 2782.44 2497.1 1 0 0 199564 14
1 2564.48 2213.24 2435.05 1 0 0 182160 11
1 2233.83 2451.94 2644.14 1 -1 0 196856 12
1 2454.6 2180.17 2265.39 -1 1 0 234175 11
1 2315.4 2542.84 2500.5 0 -1 0 127390 12
1 2298.95 2593.09 2468.31 1 -1 0 153033 12
1 2642.38 2672 2373.45 0 -1 1 148426 12
1 2600.76 2671.46 2461.8 0 -1 0 120933 14
1 2785.25 2448.94 2181.8 0 0 1 254601 12
1 2705.93 2450.12 2482.75 0 0 1 172445 13
1 2555.66 2657.63 2246.63 -1 1 0 196305 11
1 2604.74 2185.81 2232.62 0 1 1 227137 12
1 2513.9 2582.13 2673.42 1 0 0 226847 16
1 2737.84 2573.63 2387.98 0 -1 1 191701 12
1 2511.11 2222.44 2437.39 0 0 0 197646 14
1 2309.59 2328.44 2318.97 0 0 0 216310 10
1 2664.24 2434.75 2511.78 0 0 0 155894 11
1 2289.26 2496.24 2493.8 1 0 1 145018 13
1 2729.59 2334.24 2473.19 0 0 0 201292 11
1 2314.2 2819.36 2658.77 1 -1 0 256650 9
1 2626.44 2400.28 2527.41 0 -1 0 188953 12
1 2632.74 2618.24 2373.54 0 0 0 215896 17
1 2421.96 2301.04 2372.41 1 0 1 213540 11
1 2377.85 2483.28 2434.54 0 0 1 154443 13
1 2221.71 2651.16 2483.21 1 0 0 219262 12
1 2345.95 2505.49 2477.17 2 0 0 136547 12
1 2461.96 2701.11 2499.43 -1 0 0 151201 13
1 2527.85 2411.74 2618.64 -1 0 -1 182721 12
1 2469.85 2267.09 2487.93 0 0 1 283998 12
1 2375.26 2344.3 2546.18 0 0 0 239798 11
1 2544.74 2819.69 2310.67 0 -1 0 228286 13
1 2297.71 2530.67 2441.55 0 1 1 153307 13
1 2678.31 2752.27 2378.91 -1 0 0 223493 11
1 2528.36 2680.58 2511.67 -1 -1 0 172502 13
1 2540.54 2446.47 2774.67 -1 1 1 181891 12
1 2495.74 2249.55 2812.74 -1 1 0 308488 11
1 2557.68 2422.6 2660.46 0 1 0 206416 13
1 2486.25 2520.2 2207.06 -1 0 0 146445 12
1 2599.04 2634.05 2611.69 0 0 -1 193602 11
1 2680.86 2591.12 2505.11 0 1 0 152756 14
1 2499.27 2537.51 2515.05 0 -1 0 188282 14
1 2818.06 2651.55 2482.51 -1 -1 2 214252 12
1 2223.88 2430.99 2291.39 0 1 0 228549 10
1 2599.29 2269.19 2621.07 0 0 0 254769 13
1 2599.36 2650.42 2513.13 -1 -1 0 179294 14
1 2429.56 2503.98 2443.98 0 0 0 141883 12
1 2538.86 2558.11 2401.14 0 0 0 210124 13
1 2573.12 2374.5 2500.8 0 0 -1 271963 15
1 2304.79 2302.46 2623.83 0 1 1 290175 11
1 2456.25 2509.8 2799.45 0 0 0 204591 12
1 2769.86 2498.41 2259.62 0 0 0 224376 12
1 2477.96 2720.42 2796.6 0 0 -1 280873 11
1 2374.31 2568.79 2414.6 -1 1 -1 174967 12
1 2702.13 2583.22 2426.26 -1 -1 0 170261 14
1 2482.22 2566.98 2236.69 0 0 1 152654 12
1 2352.95 2607.97 2297.31 -1 0 1 232215 12
1 2267.11 2551.86 2479.88 0 0 1 129035 12
1 2406.41 2530.12 2188.58 0 0 0 193184 11
1 2387.78 2511.59 2710.82 -1 0 -1 189733 12
1 2181.74 2292.07 2656.85 0 1 0 245730 11
1 2550.67 2387.4 2342.01 1 0 1 256651 14
1 2605.37 2561.69 2768.89 -1 1 0 250856 12
1 2677.76 2328.25 2483.79 0 0 1 202525 10
1 2250.31 2609.62 2550.99 0 0 0 219046 15
1 2825.32 2528.34 2437.02 0 1 0 201630 12
1 2796.59 2442.18 2232.9 -1 0 1 239147 14
1 2570.78 2586.1 2358.94 0 0 1 176577 13
1 2597.22 2476.83 2473.22 -1 0 0 173324 16
1 2391.07 2699.44 2419.53 -1 1 0 197527 12
1 2646.73 2740.03 2420.89 0 -1 0 142346 12
1 2458.53 2779.11 2300.15 -1 0 0 258315 13
1 2424.65 2436.01 2784.35 0 -1 0 228759 12
1 2491.53 2783.53 2705.27 0 0 0 295349 14
1 2177.49 2174.88 2476.59 0 0 0 272644 11
1 2372.42 2595.09 2688.62 0 1 0 228944 11
1 2799.42 2484.08 2455.2 -2 -1 -1 196595 13
1 2354.02 2473.4 2325.73 -1 0 0 241361 13
1 2571.39 2763.16 2304.15 0 -1 0 214888 12
1 2199.93 2494.37 2468.61 0 1 -1 149327 15
1 2641.42 2391.93 2647.37 0 0 0 188471 12
1 2558.63 2189.22 2261.66 0 0 0 210974 11
1 2470.08 2325.86 2372.73 0 0 1 224108 12
1 2367.98 2428.09 2454.71 1 -1 0 172012 12
1 2464.63 2468.19 2669.86 0 0 0 171002 10
1 2588.47 2491.57 2548.37 0 0 0 191525 13
1 2541.02 2540.3 2280.98 0 0 1 195415 15
1 2524.62 2248.4 2643.63 0 0 0 245397 12
1 2693.69 2359.54 2213.67 -1 1 2 279367 11
1 2551.02 2768.84 2444.39 0 0 0 157089 13
1 2692.97 2450.38 2677.73 0 1 0 192108 14
1 2197.27 2435.6 2244.69 0 0 1 203640 12
1 2538.21 2574.88 2590.52 0 -1 1 169966 12
1 2662.38 2786.68 2516.44 0 1 1 190815 12
1 2555.79 2623.81 2411.47 0 1 -1 174220 15
1 2444.29 2655.82 2247.89 0 0 1 213821 11
1 2633.34 2628.25 2459.96 0 1 1 150869 12
1 2471.9 2248.82 2271.78 1 1 0 226754 13
1 2540.34 2315.59 2587.2 0 1 1 218174 12
1 2371.6 2671.43 2377.95 1 1 0 243438 11
1 2503.38 2674.4 2272.23 0 -1 1 198624 14
1 2344.55 2312.99 2515.37 -1 0 1 247790 13
1 2553.76 2441.57 2583.27 0 1 0 212384 13
1 2397.48 2492.35 2484.37 0 0 0 158120 15
1 2823.55 2559.01 2488.04 0 0 0 164096 13
1 2301.81 2751.14 2813.57 0 0 0 250470 12
1 2424.87 2603.32 2224.95 0 1 1 218295 13
1 2393.13 2216.64 2774.29 1 1 0 244441 11
1 2495.94 2697.43 2371.98 0 2 -1 182061 13
1 2685.95 2569.93 2375.84 -1 0 0 210933 12
1 2545.1 2734.1 2678.21 1 0 0 259127 12
1 2186.99 2324.77 2581.11 0 1 0 192793 13
1 2546.05 2673.25 2195.21 1 0 1 226321 13
1 2666.6 2450.21 2726.17 1 0 0 228751 11
1 2480.86 2487.79 2439.73 0 1 2 201849 14
1 2384.92 2533.46 2453.02 1 0 0 119610 12
1 2670.73 2512.11 2299.02 1 0 0 232356 11
1 2711.44 2790.03 2733.41 1 -1 -1 259873 11
1 2504.83 2765.13 2406.71 1 1 1 224266 13
1 2657.34 2401.81 2699.67 0 1 0 225457 11
1 2400.24 2436.72 2188.55 0 1 1 213060 14
1 2469.4 2329.65 2495.04 1 1 1 255165 11
1 2456.12 2606.53 2268.28 0 0 1 170445 14
1 2229.45 2435.57 2806.75 1 0 0 237290 13
1 2454.4 2550.56 2600.98 0 0 1 198108 11
1 2735.21 2535.35 2572.17 -1 1 1 185128 12
1 2440.14 2535.26 2230.17 0 1 1 166392 14
1 2718.38 2385.24 2316.82 0 1 1 285060 12
1 2681.95 2695.54 2767.45 0 0 0 246691 9
1 2276.41 2522.97 2814.4 1 1 0 239715 11
1 2522.95 2493.69 2495.37 0 1 0 205308 14
1 2521.62 2229.05 2262.36 0 1 -1 231363 12
1 2634.31 2526.91 2378.41 0 0 -1 185595 13
1 2722.07 2602.92 2471.85 0 1 0 156023 13
1 2459.61 2520.33 2549.39 1 1 1 233286 16
1 2575.53 2566.52 2310.27 0 1 1 193130 11
1 2621.56 2693.53 2417.69 0 -1 0 116451 12
1 2310.57 2402.52 2793.94 1 0 1 234453 12
1 2541.91 2729.04 2530.37 1 0 0 233834 14
1 2447.26 2505.47 2275.57 1 1 0 195269 13
1 2370.12 2309.84 2292.43 1 1 0 232429 12
1 2182.12 2607.48 2510.17 1 0 0 163327 13
1 2419.34 2625.92 2306.63 0 0 1 209786 12
1 2417.74 2303.07 2713.03 1 1 0 271701 12
1 2504.13 2288.22 2614.52 1 1 0 232896 10
1 2327.32 2555.18 2271.89 0 0 1 192057 11
1 2745.07 2497.55 2488.91 0 -1 0 173552 13
1 2761.43 2539.65 2689.68 0 0 0 241999 11
1 2717.73 2520.5 2786.33 0 0 0 292758 12
1 2404.97 2432.56 2502.96 1 1 0 177906 12
1 2665.45 2698.64 2450.28 0 0 0 129739 14
1 2598.24 2621.91 2318.54 1 1 1 187256 11
2 2332.42 2387.34 2413.62 0 0 0 295533 14
2 2598.1 2437.94 2332.59 0 0 0 323317 17
2 2232.36 2245.74 2232.47 0 0 0 347794 13
2 2313.95 2336.37 2781.28 0 0 -1 332790 15
2 2767.9 2519.97 2325.28 -1 -1 0 351901 16
2 2800.32 2592.24 2306.44 -1 -1 0 371616 16
2 2671.44 2824.98 2689.61 -1 -1 -1 408830 15
2 2267.09 2671.41 2529.17 0 -1 -1 310572 16
2 2202.9 2686.29 2426.97 0 -1 0 390470 16
2 2380.16 2606.17 2358.32 0 -1 0 289090 18
2 2324.58 2347.68 2256.16 0 0 0 318794 16
2 2750.76 2659 2309.65 -1 0 0 400668 14
2 2341.53 2218.67 2317.21 0 0 0 398445 15
2 2598.66 2360.84 2381.7 -1 0 0 316985 15
2 2333.82 2425.66 2280.99 0 -1 -1 343204 15
2 2251.38 2293.99 2663.99 0 0 -1 357127 14
2 2276.38 2194.9 2729.37 0 0 -1 374659 16
2 2197.62 2651.7 2818.96 0 -1 -1 397307 14
2 2528.45 2444.9 2372.25 -1 0 0 337403 17
2 2270.67 2776.69 2219.77 0 -1 0 330022 16
2 2185.19 2401.09 2349.36 0 0 0 399762 14
2 2285.48 2302.7 2200.97 0 0 0 333782 14
2 2607.27 2467.13 2813.45 -1 0 -1 327267 16
2 2261.11 2438.67 2705.73 0 0 -1 337383 16
2 2387.78 2734.05 2359.41 0 -1 0 365064 15
2 2667.27 2399.72 2272.47 -1 0 0 363523 15
2 2287.04 2464.33 2782.05 0 0 -1 327451 15
2 2290.21 2210.6 2383.58 0 0 0 413674 15
2 2807.34 2815.66 2398.73 -1 -1 0 388494 14
2 2421.2 2287.49 2245.57 0 0 0 328186 16
2 2182.4 2245.62 2299.13 0 0 0 411736 15
2 2813.18 2460.01 2296.73 -1 0 0 334432 16
2 2201.13 2177.79 2192.79 0 0 0 362769 15
2 2227.95 2753.74 2307.71 0 -1 0 390501 15
2 2407.31 2225.63 2363.44 0 0 0 342171 15
2 2795.19 2289.13 2389.64 -1 0 0 365813 14
2 2259.08 2226.29 2804.34 0 0 -1 355562 16
2 2389.61 2721.53 2527.44 0 0 -1 285242 17
2 2308.4 2494.48 2247.33 0 0 0 298316 17
2 2252.23 2381.12 2392.08 0 0 0 384846 16
2 2355.85 2291.78 2356.6 0 0 0 311653 17
2 2732.49 2719.61 2804.43 -1 -1 0 406329 16
2 2231.39 2176.16 2434.62 0 0 0 394753 16
2 2359.43 2212.76 2428.68 0 0 0 419085 15
2 2261.65 2231.35 2309.8 0 0 0 403750 16
2 2730.55 2276.14 2438.59 -1 0 0 403373 16
2 2402.91 2815.97 2306.62 0 -1 0 381360 15
2 2760.29 2270.48 2201.35 -1 0 0 393703 15
2 2569.54 2757.57 2605.52 -1 -1 -1 345188 16
2 2375.32 2388.28 2798.08 0 0 -1 290456 16
2 2206.66 2320.52 2211.3 0 0 0 391213 14
2 2815.4 2625.14 2749.91 -1 -1 -1 410062 14
2 2255.14 2331.1 2587.55 0 0 -1 298957 17
2 2570.16 2416.61 2437.55 -1 0 0 292031 17
2 2769.17 2263.73 2770.03 -1 0 -1 398978 14
2 2356.01 2751.96 2284.78 0 -1 0 423848 15
2 2296.51 2266.52 2442.03 0 0 0 412183 15
2 2341.66 2265.61 2249.03 0 0 0 361673 17
2 2750.78 2698.5 2380.59 -1 0 0 362565 17
2 2237.11 2304.73 2784.96 0 0 -1 411167 15
2 2303.4 2439.09 2357.3 0 0 0 355673 16
2 2815.37 2648.4 2364.2 -1 -1 0 400390 14
2 2235.38 2687.06 2351.52 0 -1 0 407911 15
2 2605.13 2513.57 2277.54 0 0 0 308208 15
2 2754.48 2740.61 2296.84 0 -1 0 391039 13
2 2790.63 2565.25 2546.1 0 0 0 267036 17
2 2759.02 2429.12 2351.16 0 0 0 385632 16
2 2661.03 2275.52 2299.42 0 0 0 400815 13
2 2659.71 2474.22 2229.65 0 0 0 379814 16
2 2662.23 2805.73 2415.19 0 -1 0 301071 15
2 2724.51 2803.31 2538.58 0 -1 0 360892 14
2 2217.18 2313.79 2424.6 1 0 0 410899 14
2 2221.94 2249.71 2477.78 1 0 0 379658 15
2 2469.96 2200.54 2771.75 0 0 -1 378699 16
2 2396.24 2616.51 2756.95 1 -1 -1 337896 15
2 2589.61 2296.12 2735.06 0 0 -1 371224 13
2 2604.85 2199.56 2376.79 0 0 0 322481 16
2 2456.58 2573.1 2824.26 0 -1 -1 282622 18
2 2547.05 2292.55 2805.05 0 0 -1 367397 16
2 2383.46 2441.86 2379.36 1 -1 0 300308 18
2 2688.98 2456.62 2791.03 0 0 -1 404767 17
2 2583.4 2742.18 2734.58 0 -1 -1 340542 14
2 2293.71 2273.94 2733.52 1 0 -1 347128 14
2 2713.89 2204.1 2218.75 0 0 0 398007 13
2 2525.04 2396.75 2278.78 0 0 0 268353 16
2 2225.6 2821.02 2353.2 1 -1 0 393508 14
2 2204.11 2229.11 2643.32 1 0 -1 391063 16
2 2618.26 2693.36 2789.64 0 -1 -1 304968 16
2 2592.67 2434.02 2251.39 0 0 0 370803 17
2 2306.39 2789.22 2437.72 1 -1 0 391767 14
2 2541.03 2317.44 2335.7 0 0 0 300134 16
2 2610.41 2448.97 2690.84 0 -1 -1 264643 16
2 2716.38 2332.33 2273.3 0 0 0 395069 16
2 2767.41 2397.45 2272.77 0 0 0 370753 17
2 2795.74 2310.3 2265.18 0 0 0 378839 13
2 2740.12 2199.5 2729.46 0 0 0 410222 16
2 2296.89 2514.88 2325.33 0 -1 0 290915 17
2 2728.68 2821.06 2294.88 0 -1 0 371516 14
2 2764.6 2799.82 2468.02 -1 -1 0 367548 16
2 2489.55 2517.55 2378.44 1 -1 0 279162 18
2 2612.3 2584.08 2507.07 0 0 0 249398 19
2 2553.61 2504.84 2213.24 0 0 0 279092 19
2 2597.31 2363.42 2298.05 0 0 0 390956 15
2 2312.35 2464.31 2435.96 1 0 0 255493 18
2 2343.44 2550.05 2614.16 1 0 -1 346443 16
2 2671.17 2555.27 2246.42 0 -1 0 344151 16
2 2213.69 2385.59 2465.17 1 0 0 309899 17
2 2582.3 2278.98 2271.34 0 0 0 363359 17
2 2386.02 2765.88 2434.89 1 -1 0 336146 15
2 2593.17 2276.24 2445.85 0 0 0 313459 17
2 2474.87 2709.89 2220.83 0 0 0 350882 16
2 2507.59 2383.21 2480.77 0 0 0 333782 16
2 2323.79 2699.61 2678.32 1 -1 -1 392583 16
2 2552.85 2696.17 2315.5 0 0 0 259480 18
2 2202.74 2389.64 2764.08 1 0 -1 333252 14
2 2609.57 2280.73 2363.65 0 0 0 418982 16
2 2413.73 2594.65 2634.38 1 0 -1 321333 15
2 2210.67 2241.06 2389.04 1 0 0 460034 15
2 2461.75 2588.86 2344.8 0 -1 0 288313 19
2 2193.92 2604.93 2443.08 1 -1 0 299429 17
2 2650.45 2242.45 2726.18 0 0 -1 426369 15
2 2528.13 2176.11 2389.6 0 1 0 254811 18
2 2676.54 2427.28 2348.99 0 0 0 290061 16
2 2229.17 2453.35 2422.63 1 0 0 340572 17
2 2229.09 2471.89 2343.34 1 -1 0 377382 15
2 2718.53 2462.59 2287.06 -1 0 0 344011 16
2 2436.97 2549.95 2492.8 0 0 -1 239050 17
2 2543.29 2618 2537.88 -1 0 0 290402 20
2 2274 2648.36 2439.25 0 -1 0 341959 17
2 2506.1 2721.52 2734.21 0 -1 -1 291695 14
2 2417.87 2515.27 2337.64 0 0 0 309970 19
2 2334.75 2631.23 2237.44 0 0 0 379279 17
2 2403.56 2364.3 2269.14 0 0 0 293004 16
2 2547.36 2497.36 2432.79 0 1 -1 262388 16
2 2444.9 2344.98 2433.14 -1 0 0 322053 17
2 2457.76 2664.93 2636.92 0 -1 -1 353964 18
2 2776.68 2197.36 2817.36 -1 1 -1 418916 14
2 2466.44 2424.98 2420.41 0 0 0 299082 17
2 2571.32 2308.49 2520.89 0 0 0 333791 18
2 2471.31 2268.16 2337.92 0 0 0 272627 16
2 2303.04 2733.36 2343.73 0 -1 -1 380501 14
2 2820.91 2737.77 2367.62 -1 0 0 409128 15
2 2532.19 2636.62 2618.4 -1 0 -1 306008 16
2 2350.69 2224.14 2174.83 -1 0 1 323672 15
2 2182.3 2766.91 2628.26 0 0 0 416368 14
2 2291.76 2804.79 2307.35 0 0 1 376573 15
2 2286.99 2675.65 2287.44 0 0 0 395744 15
2 2358.78 2372.74 2337.13 0 0 0 335370 17
2 2732.32 2502.11 2199.59 -1 0 0 365709 16
2 2228.05 2492.92 2262.51 0 0 0 279949 16
2 2652.88 2195.35 2545.95 -1 1 -1 332149 17
2 2681.67 2738.66 2564.21 -1 0 0 311656 16
2 2554.55 2309.35 2655.09 -1 0 -1 276891 17
2 2775.73 2714.24 2661.24 -1 -1 -1 413143 14
2 2204.75 2568.73 2240.74 0 0 0 366202 15
2 2659.66 2803.67 2253.16 0 -1 0 318617 15
2 2255.07 2796.01 2790.73 0 -1 -1 317794 15
2 2452.75 2413.52 2225.05 0 0 1 259069 18
2 2328.75 2396.62 2727.29 0 1 -1 370756 17
2 2733.38 2373.23 2592.52 -1 0 0 280456 17
2 2669.79 2582.6 2759.49 -1 0 0 350474 15
2 2720.56 2301.89 2530.62 0 0 0 319045 18
2 2394.76 2659.67 2687.73 0 -1 -1 330546 15
2 2236.14 2790.2 2509.16 1 0 -1 367322 14
2 2535.82 2653.41 2698.93 0 0 0 299760 17
2 2601.29 2596.52 2255.2 0 0 0 270587 17
2 2460.43 2470.99 2502.47 0 0 0 280463 20
2 2558.97 2525.16 2732.82 0 0 0 278331 17
2 2582.9 2235.48 2678.81 -1 0 -1 386092 15
2 2390.38 2489.48 2240.05 -1 0 0 282238 18
2 2410.42 2403.19 2725.95 0 0 -1 287620 16
2 2521.12 2185.46 2617.16 -1 0 -1 389726 15
2 2289.63 2594.82 2311.43 0 0 0 348661 16
2 2432.98 2717.53 2292.28 -1 0 0 322676 17
2 2284.58 2344.09 2462.93 0 0 0 335281 17
2 2435.56 2798.34 2521.32 0 0 -1 352782 15
2 2496.2 2461.74 2823.69 -1 0 -1 251547 18
2 2815.43 2823.21 2686.05 -1 -1 -1 430496 14
2 2428.02 2252.14 2820.75 0 0 -1 366364 16
2 2303.64 2568.34 2684.85 0 0 0 382543 15
2 2704.85 2651.62 2667.09 -1 0 -2 401243 14
2 2352.73 2806.99 2370.51 0 -1 0 412056 15
2 2372.06 2364.41 2480.96 0 1 0 300915 18
2 2411.35 2440.63 2302.26 0 0 0 308346 18
2 2184.28 2761.93 2452.37 0 0 0 371067 14
2 2465.36 2618.49 2570.77 0 0 -1 300364 15
2 2698.81 2635.18 2369.81 -1 -1 1 294252 16
2 2491.99 2422.96 2562.84 0 0 0 327294 18
2 2771.08 2563.41 2237.47 -1 0 1 359134 15
2 2618.2 2569.95 2694.02 -1 -1 0 299728 16
2 2279.74 2382.65 2647.61 -1 0 0 368377 15
2 2383.46 2695.7 2231.37 -1 0 0 385204 15
2 2328.34 2325.8 2682.48 0 0 0 367830 16
2 2695.59 2705.76 2250.35 -1 -1 1 418173 16
2 2617.17 2251.24 2799.61 -1 0 0 380170 16
2 2500.08 2285.89 2221.23 0 0 1 322048 18
2 2767.7 2646.04 2817.1 -1 -1 0 415310 15
2 2243.68 2809.84 2662.26 0 -1 0 379282 16
2 2693.05 2730.47 2645.85 -1 -1 0 395009 15
2 2366.36 2461.98 2761.58 0 0 0 317399 16
2 2448.93 2773.22 2756.11 0 -1 0 340271 13