LAMMPS (23 Jun 2022 - Update 1)
OMP_NUM_THREADS environment is not set. Defaulting to 1 thread. (src/comm.cpp:98)
  using 1 OpenMP thread(s) per MPI task
# Read restart
read_restart ${read_res}
read_restart ./pgnpmf/300700/equpmf19.res
Reading restart file ...
  restart file = 23 Jun 2022, LAMMPS = 23 Jun 2022
  restoring atom style atomic from restart
  orthogonal box = (1853.8756 1853.8756 1853.8756) to (3146.1244 3146.1244 3146.1244)
  1 by 1 by 1 MPI processor grid
  restoring pair style table from restart
  1000 atoms
  read_restart CPU = 0.006 seconds

# Settings

pair_style table spline 9941

pair_coeff 1 1 ./pgnpmf/N20.txt DE_GNP 75.6
pair_coeff 2 2 ./pgnpmf/N100.txt DE_GNP 115.92
WARNING: 3 of 9941 force values in table DE_GNP are inconsistent with -dE/dr.
WARNING:  Should only be flagged at inflection points (src/pair_table.cpp:463)
pair_coeff 1 2 ./pgnpmf/mixed_potential.txt DE_GNP 95.66
WARNING: 1562 of 9941 force values in table DE_GNP are inconsistent with -dE/dr.
WARNING:  Should only be flagged at inflection points (src/pair_table.cpp:463)

#Neigh_list Calc Frequency

neigh_modify delay 0 every 1 check yes

# Saving Frequency (50 frames)

variable ts_save equal ${steps_equ}
variable ts_save equal 5000

# Dump
dump 1 all custom ${ts_save} ./pgnpmf/${folder}/equilibration/trajectory/trajectory_${usic}_${trial}.equ.custom type x y z ix iy iz
dump 1 all custom 5000 ./pgnpmf/${folder}/equilibration/trajectory/trajectory_${usic}_${trial}.equ.custom type x y z ix iy iz
dump 1 all custom 5000 ./pgnpmf/300700/equilibration/trajectory/trajectory_${usic}_${trial}.equ.custom type x y z ix iy iz
dump 1 all custom 5000 ./pgnpmf/300700/equilibration/trajectory/trajectory_1_${trial}.equ.custom type x y z ix iy iz
dump 1 all custom 5000 ./pgnpmf/300700/equilibration/trajectory/trajectory_1_1.equ.custom type x y z ix iy iz
dump_modify 1 first no sort id
#dump 2 all cfg 50000 ./equilibration/trajectory/ovito/dumpgen.tens_*.cfg mass type xs ys zs fx fy fz

# thermo_style
thermo_style custom step temp press pe density ke etotal lx ly lz xlo xhi ylo yhi zlo zhi vol dt time cpu tpcpu spcpu cpuremain

# run info
timestep ${ts}
timestep 0.5
thermo 200

# fix

fix 1 all momentum 1000 linear 1 1 1 angular
variable T equal ${temp}
variable T equal 300
fix 2 all nvt temp ${T} 370000 100.0
fix 2 all nvt temp 300 370000 100.0

run 100000
Generated 0 of 1 mixed pair_coeff terms from geometric mixing rule
Unused restart file global fix info:
  fix style: npt, fix ID: 5
Neighbor list info ...
  update every 1 steps, delay 0 steps, check yes
  max neighbors/atom: 2000, page size: 100000
  master list distance cutoff = 117.92
  ghost atom cutoff = 117.92
  binsize = 58.96, bins = 22 22 22
  1 neighbor lists, perpetual/occasional/extra = 1 0 0
  (1) pair table, perpetual
      attributes: half, newton on
      pair build: half/bin/atomonly/newton
      stencil: half/bin/3d
      bin: standard
Per MPI rank memory allocation (min/avg/max) = 4.529 | 4.529 | 4.529 Mbytes
   Step          Temp          Press          PotEng        Density         KinEng         TotEng           Lx             Ly             Lz            Xlo            Xhi            Ylo            Yhi            Zlo            Zhi           Volume           Dt            Time           CPU           T/CPU          S/CPU         CPULeft    
  13305000   306.4962       0.86181767    -22952056       0.27855335     912.69335     -22951144       1292.2488      1292.2488      1292.2488      1853.8756      3146.1244      1853.8756      3146.1244      1853.8756      3146.1244      2.1579354e+09  0.5            6655000        0              0              0              0            
  13305200   390.56842      0.7804223     -22952140       0.27855335     1163.0461     -22950977       1292.2488      1292.2488      1292.2488      1853.8756      3146.1244      1853.8756      3146.1244      1853.8756      3146.1244      2.1579354e+09  0.5            6655100        0.016341362    6119.1238      12237.684      8.1555542    
  13305400   577.36262      0.68902577    -22952238       0.27855335     1719.2873     -22950519       1292.2488      1292.2488      1292.2488      1853.8756      3146.1244      1853.8756      3146.1244      1853.8756      3146.1244      2.1579354e+09  0.5            6655200        0.032587465    6155.4451      12310.911      8.114777     
  13305600   894.95984      0.58372232    -22952359       0.27855335     2665.0376     -22949694       1292.2488      1292.2488      1292.2488      1853.8756      3146.1244      1853.8756      3146.1244      1853.8756      3146.1244      2.1579354e+09  0.5            6655300        0.048803578    6166.6957      12333.356      8.0854761    
  13305800   1404.5943      0.47774468    -22952508       0.27855335     4182.6421     -22948325       1292.2488      1292.2488      1292.2488      1853.8756      3146.1244      1853.8756      3146.1244      1853.8756      3146.1244      2.1579354e+09  0.5            6655400        0.065033368    6161.5221      12323.119      8.0643797    
  13306000   2183.4423      0.32352836    -22952691       0.27855335     6501.9182     -22946189       1292.2488      1292.2488      1292.2488      1853.8756      3146.1244      1853.8756      3146.1244      1853.8756      3146.1244      2.1579354e+09  0.5            6655500        0.081455705    6089.2651      12178.449      8.0643161    
  13306200   3294.1801      0.18113519    -22952919       0.27855335     9809.5058     -22943110       1292.2488      1292.2488      1292.2488      1853.8756      3146.1244      1853.8756      3146.1244      1853.8756      3146.1244      2.1579354e+09  0.5            6655600        0.097678046    6164.313       12328.666      8.0423375    
  13306400   4705.1477     -0.0014500539  -22953191       0.27855335     14011.126     -22939180       1292.2488      1292.2488      1292.2488      1853.8756      3146.1244      1853.8756      3146.1244      1853.8756      3146.1244      2.1579354e+09  0.5            6655700        0.11390602     6162.2435      12324.517      8.022373     
  13306600   6189.3813     -0.15543208    -22951608       0.27855335     18430.921     -22933177       1292.2488      1292.2488      1292.2488      1853.8756      3146.1244      1853.8756      3146.1244      1853.8756      3146.1244      2.1579354e+09  0.5            6655800        0.130189       6141.3673      12282.715      8.0067453    
  13306800   7305.3565     -0.41804624    -22951943       0.27855335     21754.104     -22930189       1292.2488      1292.2488      1292.2488      1853.8756      3146.1244      1853.8756      3146.1244      1853.8756      3146.1244      2.1579354e+09  0.5            6655900        0.14645556     6147.5972      12295.212      7.9900678    
  13307000   7778.4399     -0.74087497    -22952284       0.27855335     23162.866     -22929121       1292.2488      1292.2488      1292.2488      1853.8756      3146.1244      1853.8756      3146.1244      1853.8756      3146.1244      2.1579354e+09  0.5            6656000        0.16319191     5975.0206      11949.973      7.996502     
  13307200   8111.6252     -1.0369973     -22952623       0.27855335     24155.035     -22928468       1292.2488      1292.2488      1292.2488      1853.8756      3146.1244      1853.8756      3146.1244      1853.8756      3146.1244      2.1579354e+09  0.5            6656100        0.17955648     6110.7606      12221.603      7.9821826    
  13307400   8983.0701     -1.3253496     -22952955       0.27855335     26750.049     -22926205       1292.2488      1292.2488      1292.2488      1853.8756      3146.1244      1853.8756      3146.1244      1853.8756      3146.1244      2.1579354e+09  0.5            6656200        0.19575208     6174.552       12349.049      7.96066      
  13307600   10146.179     -1.5459092     -22951403       0.27855335     30213.588     -22921189       1292.2488      1292.2488      1292.2488      1853.8756      3146.1244      1853.8756      3146.1244      1853.8756      3146.1244      2.1579354e+09  0.5            6656300        0.21203487     6141.4318      12282.912      7.9432228    
  13307800   10899.319     -1.8652913     -22953636       0.27855335     32456.312     -22921179       1292.2488      1292.2488      1292.2488      1853.8756      3146.1244      1853.8756      3146.1244      1853.8756      3146.1244      2.1579354e+09  0.5            6656400        0.22825844     6163.8954      12327.796      7.9238895    
  13308000   11237.379     -2.1580319     -22953961       0.27855335     33462.996     -22920498       1292.2488      1292.2488      1292.2488      1853.8756      3146.1244      1853.8756      3146.1244      1853.8756      3146.1244      2.1579354e+09  0.5            6656500        0.24529378     5870.1127      11740.134      7.9312311    
  13308200   11838.929     -2.4688144     -22954268       0.27855335     35254.307     -22919013       1292.2488      1292.2488      1292.2488      1853.8756      3146.1244      1853.8756      3146.1244      1853.8756      3146.1244      2.1579354e+09  0.5            6656600        0.26153491     6157.2252      12314.542      7.9114869    
  13308400   12937.023     -2.6649341     -22954566       0.27855335     38524.245     -22916041       1292.2488      1292.2488      1292.2488      1853.8756      3146.1244      1853.8756      3146.1244      1853.8756      3146.1244      2.1579354e+09  0.5            6656700        0.27793925     6095.9574      12191.886      7.8967981    
  13308600   13922.188     -3.0844234     -22962224       0.27855335     41457.899     -22920767       1292.2488      1292.2488      1292.2488      1853.8756      3146.1244      1853.8756      3146.1244      1853.8756      3146.1244      2.1579354e+09  0.5            6656800        0.29416986     6161.2074      12322.43       7.8772644    
  13308800   14385.113     -3.4610532     -22964386       0.27855335     42836.41      -22921549       1292.2488      1292.2488      1292.2488      1853.8756      3146.1244      1853.8756      3146.1244      1853.8756      3146.1244      2.1579354e+09  0.5            6656900        0.31096035     5955.6541      11911.285      7.8722614    
  13309000   14788.68      -3.6973717     -22964626       0.27855335     44038.163     -22920588       1292.2488      1292.2488      1292.2488      1853.8756      3146.1244      1853.8756      3146.1244      1853.8756      3146.1244      2.1579354e+09  0.5            6657000        0.3287303      5627.5222      11255.048      7.8895764    
  13309200   15701.226     -3.9096292     -22964834       0.27855335     46755.57      -22918078       1292.2488      1292.2488      1292.2488      1853.8756      3146.1244      1853.8756      3146.1244      1853.8756      3146.1244      2.1579354e+09  0.5            6657100        0.34496151     6160.9842      12321.969      7.8684524    
  13309400   16834.764     -4.181273      -22965020       0.27855335     50131.052     -22914889       1292.2488      1292.2488      1292.2488      1853.8756      3146.1244      1853.8756      3146.1244      1853.8756      3146.1244      2.1579354e+09  0.5            6657200        0.36119938     6158.4955      12317.004      7.8479165    
  13309600   17523.463     -4.4283822     -22965181       0.27855335     52181.881     -22912999       1292.2488      1292.2488      1292.2488      1853.8756      3146.1244      1853.8756      3146.1244      1853.8756      3146.1244      2.1579354e+09  0.5            6657300        0.37814064     5902.7187      11805.424      7.8423477    
  13309800   17847.89      -4.6358074     -22965309       0.27855335     53147.969     -22912161       1292.2488      1292.2488      1292.2488      1853.8756      3146.1244      1853.8756      3146.1244      1853.8756      3146.1244      2.1579354e+09  0.5            6657400        0.39427542     6197.7975      12395.614      7.8198333    
  13310000   18509.477     -4.9141144     -22965405       0.27855335     55118.062     -22910287       1292.2488      1292.2488      1292.2488      1853.8756      3146.1244      1853.8756      3146.1244      1853.8756      3146.1244      2.1579354e+09  0.5            6657500        0.41245825     5499.6734      10999.339      7.836744     
  13310200   19649.367     -5.2123215     -22965485       0.27855335     58512.46      -22906972       1292.2488      1292.2488      1292.2488      1853.8756      3146.1244      1853.8756      3146.1244      1853.8756      3146.1244      2.1579354e+09  0.5            6657600        0.42871819     6150.1209      12300.288      7.8158944    
  13310400   20591.567     -5.2903165     -22958168       0.27855335     61318.171     -22896849       1292.2488      1292.2488      1292.2488      1853.8756      3146.1244      1853.8756      3146.1244      1853.8756      3146.1244      2.1579354e+09  0.5            6657700        0.44547755     5966.8046      11933.591      7.8041393    
  13310600   20991.212     -5.5512857     -22965591       0.27855335     62508.245     -22903083       1292.2488      1292.2488      1292.2488      1853.8756      3146.1244      1853.8756      3146.1244      1853.8756      3146.1244      2.1579354e+09  0.5            6657800        0.46172031     6156.5854      12313.172      7.7833159    
  13310800   21419.901     -5.7244655     -22965625       0.27855335     63784.808     -22901840       1292.2488      1292.2488      1292.2488      1853.8756      3146.1244      1853.8756      3146.1244      1853.8756      3146.1244      2.1579354e+09  0.5            6657900        0.47806377     6118.6753      12237.351      7.7644436    
  13311000   22408.439     -5.9286809     -22965650       0.27855335     66728.504     -22898922       1292.2488      1292.2488      1292.2488      1853.8756      3146.1244      1853.8756      3146.1244      1853.8756      3146.1244      2.1579354e+09  0.5            6658000        0.49431757     6152.3999      12304.81       7.7443362    
  13311200   23544.828     -5.9996969     -22958300       0.27855335     70112.477     -22888188       1292.2488      1292.2488      1292.2488      1853.8756      3146.1244      1853.8756      3146.1244      1853.8756      3146.1244      2.1579354e+09  0.5            6658100        0.51112744     5948.84        11897.608      7.7328948    
  13311400   24157.234     -6.1907244     -22958336       0.27855335     71936.118     -22886400       1292.2488      1292.2488      1292.2488      1853.8756      3146.1244      1853.8756      3146.1244      1853.8756      3146.1244      2.1579354e+09  0.5            6658200        0.52740552     6143.2676      12286.584      7.713333     
  13311600   24451.939     -6.2856538     -22958376       0.27855335     72813.699     -22885562       1292.2488      1292.2488      1292.2488      1853.8756      3146.1244      1853.8756      3146.1244      1853.8756      3146.1244      2.1579354e+09  0.5            6658300        0.54365628     6153.5705      12307.131      7.693586     
  13311800   25186.778     -6.5510666     -22965812       0.27855335     75001.923     -22890810       1292.2488      1292.2488      1292.2488      1853.8756      3146.1244      1853.8756      3146.1244      1853.8756      3146.1244      2.1579354e+09  0.5            6658400        0.55993742     6142.0625      12284.135      7.6744616    
  13312000   26381.558     -6.7608047     -22973272       0.27855335     78559.775     -22894712       1292.2488      1292.2488      1292.2488      1853.8756      3146.1244      1853.8756      3146.1244      1853.8756      3146.1244      2.1579354e+09  0.5            6658500        0.57680981     5926.8342      11853.655      7.6633558    
  13312200   27268.589     -6.9024091     -22973378       0.27855335     81201.201     -22892177       1292.2488      1292.2488      1292.2488      1853.8756      3146.1244      1853.8756      3146.1244      1853.8756      3146.1244      2.1579354e+09  0.5            6658600        0.59308179     6145.5627      12291.155      7.6441883    
  13312400   27587.942     -7.0776281     -22973508       0.27855335     82152.179     -22891355       1292.2488      1292.2488      1292.2488      1853.8756      3146.1244      1853.8756      3146.1244      1853.8756      3146.1244      2.1579354e+09  0.5            6658700        0.6093411      6150.2797      12300.541      7.6250215    
  13312600   28043.379     -7.2650773     -22973660       0.27855335     83508.393     -22890151       1292.2488      1292.2488      1292.2488      1853.8756      3146.1244      1853.8756      3146.1244      1853.8756      3146.1244      2.1579354e+09  0.5            6658800        0.62561359     6145.3784      12290.779      7.6061657    
  13312800   29129.138     -7.4502062     -22973842       0.27855335     86741.6       -22887100       1292.2488      1292.2488      1292.2488      1853.8756      3146.1244      1853.8756      3146.1244      1853.8756      3146.1244      2.1579354e+09  0.5            6658900        0.64240316     5956.062       11912.083      7.5935576    
  13313000   30266.683     -7.605319      -22974042       0.27855335     90129.013     -22883913       1292.2488      1292.2488      1292.2488      1853.8756      3146.1244      1853.8756      3146.1244      1853.8756      3146.1244      2.1579354e+09  0.5            6659000        0.65869923     6136.4605      12272.942      7.5750622    
  13313200   30774         -7.7529923     -22974255       0.27855335     91639.716     -22882616       1292.2488      1292.2488      1292.2488      1853.8756      3146.1244      1853.8756      3146.1244      1853.8756      3146.1244      2.1579354e+09  0.5            6659100        0.67519264     6063.0327      12126.081      7.5588842    
  13313400   31025.023     -7.8745629     -22967092       0.27855335     92387.222     -22874704       1292.2488      1292.2488      1292.2488      1853.8756      3146.1244      1853.8756      3146.1244      1853.8756      3146.1244      2.1579354e+09  0.5            6659200        0.6914755      6141.3971      12282.81       7.5403963    
  13313600   31849.271     -8.0653172     -22959924       0.27855335     94841.692     -22865082       1292.2488      1292.2488      1292.2488      1853.8756      3146.1244      1853.8756      3146.1244      1853.8756      3146.1244      2.1579354e+09  0.5            6659300        0.7083249      5934.9006      11869.721      7.5280331    
  13313800   33121.436     -8.2794317     -22960127       0.27855335     98629.979     -22861497       1292.2488      1292.2488      1292.2488      1853.8756      3146.1244      1853.8756      3146.1244      1853.8756      3146.1244      2.1579354e+09  0.5            6659400        0.72458147     6151.4276      12302.928      7.5093173    
  13314000   33936.281     -8.4363641     -22960306       0.27855335     101056.45     -22859249       1292.2488      1292.2488      1292.2488      1853.8756      3146.1244      1853.8756      3146.1244      1853.8756      3146.1244      2.1579354e+09  0.5            6659500        0.74086442     6141.3488      12282.708      7.4909815    
  13314200   34146.919     -8.5737874     -22960454       0.27855335     101683.69     -22858770       1292.2488      1292.2488      1292.2488      1853.8756      3146.1244      1853.8756      3146.1244      1853.8756      3146.1244      2.1579354e+09  0.5            6659600        0.75712616     6149.4515      12298.898      7.4725233    
  13314400   34638.976     -8.7078099     -22953184       0.27855335     103148.96     -22850035       1292.2488      1292.2488      1292.2488      1853.8756      3146.1244      1853.8756      3146.1244      1853.8756      3146.1244      2.1579354e+09  0.5            6659700        0.77404625     5910.0733      11820.112      7.4605078    
  13314600   35850.684     -8.8501933     -22953248       0.27855335     106757.21     -22846491       1292.2488      1292.2488      1292.2488      1853.8756      3146.1244      1853.8756      3146.1244      1853.8756      3146.1244      2.1579354e+09  0.5            6659800        0.79028132     6159.5482      12319.152      7.4418337    
  13314800   36989.809     -8.8660227     -22945884       0.27855335     110149.34     -22835734       1292.2488      1292.2488      1292.2488      1853.8756      3146.1244      1853.8756      3146.1244      1853.8756      3146.1244      2.1579354e+09  0.5            6659900        0.80650936     6162.1607      12324.297      7.4231959    
  13315000   37369.546     -8.8255597     -22931082       0.27855335     111280.13     -22819802       1292.2488      1292.2488      1292.2488      1853.8756      3146.1244      1853.8756      3146.1244      1853.8756      3146.1244      2.1579354e+09  0.5            6660000        0.82522948     5341.825       10683.613      7.4270846    
  13315200   37582.756     -9.032027      -22930985       0.27855335     111915.03     -22819070       1292.2488      1292.2488      1292.2488      1853.8756      3146.1244      1853.8756      3146.1244      1853.8756      3146.1244      2.1579354e+09  0.5            6660100        0.84207422     5936.5942      11873.224      7.4135724    
  13315400   38539.2       -9.0185264     -22923471       0.27855335     114763.16     -22808708       1292.2488      1292.2488      1292.2488      1853.8756      3146.1244      1853.8756      3146.1244      1853.8756      3146.1244      2.1579354e+09  0.5            6660200        0.85830536     6160.9937      12321.983      7.3946477    
  13315600   39887.161     -9.0479176     -22925189       0.27855335     118777.15     -22806412       1292.2488      1292.2488      1292.2488      1853.8756      3146.1244      1853.8756      3146.1244      1853.8756      3146.1244      2.1579354e+09  0.5            6660300        0.87458636     6142.1602      12284.314      7.3762439    
  13315800   40598.956     -9.2097797     -22932365       0.27855335     120896.76     -22811469       1292.2488      1292.2488      1292.2488      1853.8756      3146.1244      1853.8756      3146.1244      1853.8756      3146.1244      2.1579354e+09  0.5            6660400        0.89127234     5993.0337      11986.073      7.3612651    
  13316000   40705.987     -9.2631877     -22932136       0.27855335     121215.48     -22810920       1292.2488      1292.2488      1292.2488      1853.8756      3146.1244      1853.8756      3146.1244      1853.8756      3146.1244      2.1579354e+09  0.5            6660500        0.90748151     6169.3413      12338.721      7.3423652    
  13316200   41284.965     -9.4748007     -22939645       0.27855335     122939.57     -22816706       1292.2488      1292.2488      1292.2488      1853.8756      3146.1244      1853.8756      3146.1244      1853.8756      3146.1244      2.1579354e+09  0.5            6660600        0.92367235     6176.3535      12352.703      7.3234166    
  13316400   42649.443     -9.523006      -22943204       0.27855335     127002.76     -22816202       1292.2488      1292.2488      1292.2488      1853.8756      3146.1244      1853.8756      3146.1244      1853.8756      3146.1244      2.1579354e+09  0.5            6660700        0.93987575     6171.5355      12343.062      7.3046626    
  13316600   43733.945     -9.5929791     -22942982       0.27855335     130232.22     -22812750       1292.2488      1292.2488      1292.2488      1853.8756      3146.1244      1853.8756      3146.1244      1853.8756      3146.1244      2.1579354e+09  0.5            6660800        0.95656838     5990.681       11981.226      7.289726     
  13316800   43955.035     -9.5926896     -22942769       0.27855335     130890.59     -22811879       1292.2488      1292.2488      1292.2488      1853.8756      3146.1244      1853.8756      3146.1244      1853.8756      3146.1244      2.1579354e+09  0.5            6660900        0.97292543     6113.4754      12227.03       7.2722219    
  13317000   44160.713     -9.7320583     -22944463       0.27855335     131503.06     -22812960       1292.2488      1292.2488      1292.2488      1853.8756      3146.1244      1853.8756      3146.1244      1853.8756      3146.1244      2.1579354e+09  0.5            6661000        0.98924147     6129.0437      12258.142      7.2544507    
  13317200   45358.872     -9.7784811     -22951660       0.27855335     135070.98     -22816589       1292.2488      1292.2488      1292.2488      1853.8756      3146.1244      1853.8756      3146.1244      1853.8756      3146.1244      2.1579354e+09  0.5            6661100        1.007221       5561.829       11123.589      7.2487037    
  13317400   46797.125     -9.6293318     -22949613       0.27855335     139353.85     -22810259       1292.2488      1292.2488      1292.2488      1853.8756      3146.1244      1853.8756      3146.1244      1853.8756      3146.1244      2.1579354e+09  0.5            6661200        1.0235198      6135.4432      12270.938      7.230686     
  13317600   47258.918     -9.6537025     -22949458       0.27855335     140728.99     -22808729       1292.2488      1292.2488      1292.2488      1853.8756      3146.1244      1853.8756      3146.1244      1853.8756      3146.1244      2.1579354e+09  0.5            6661300        1.0398716      6115.5567      12231.155      7.2130902    
  13317800   47094.461     -9.7409438     -22949308       0.27855335     140239.26     -22809068       1292.2488      1292.2488      1292.2488      1853.8756      3146.1244      1853.8756      3146.1244      1853.8756      3146.1244      2.1579354e+09  0.5            6661400        1.0561524      6142.227       12284.379      7.1950521    
  13318000   48123.045     -9.7447806     -22949149       0.27855335     143302.21     -22805847       1292.2488      1292.2488      1292.2488      1853.8756      3146.1244      1853.8756      3146.1244      1853.8756      3146.1244      2.1579354e+09  0.5            6661500        1.0731019      5899.8547      11799.744      7.1815411    
  13318200   50502.273     -9.8125041     -22956364       0.27855335     150387.14     -22805977       1292.2488      1292.2488      1292.2488      1853.8756      3146.1244      1853.8756      3146.1244      1853.8756      3146.1244      2.1579354e+09  0.5            6661600        1.0893998      6135.7218      12271.46       7.1636428    
  13318400   50409.255     -9.8651518     -22958081       0.27855335     150110.15     -22807971       1292.2488      1292.2488      1292.2488      1853.8756      3146.1244      1853.8756      3146.1244      1853.8756      3146.1244      2.1579354e+09  0.5            6661700        1.1056872      6139.7387      12279.505      7.1457217    
  13318600   48273.365     -10.106368     -22957881       0.27855335     143749.84     -22814131       1292.2488      1292.2488      1292.2488      1853.8756      3146.1244      1853.8756      3146.1244      1853.8756      3146.1244      2.1579354e+09  0.5            6661800        1.1225204      5940.6556      11881.258      7.131319     
  13318800   48065.002     -10.162284     -22957667       0.27855335     143129.37     -22814538       1292.2488      1292.2488      1292.2488      1853.8756      3146.1244      1853.8756      3146.1244      1853.8756      3146.1244      2.1579354e+09  0.5            6661900        1.1388114      6138.388       12276.761      7.1134566    
  13319000   52050.29      -9.9592352     -22957436       0.27855335     154996.88     -22802439       1292.2488      1292.2488      1292.2488      1853.8756      3146.1244      1853.8756      3146.1244      1853.8756      3146.1244      2.1579354e+09  0.5            6662000        1.1551189      6132.1561      12264.367      7.0957414    
  13319200   53251.46      -10.122123     -22964549       0.27855335     158573.75     -22805975       1292.2488      1292.2488      1292.2488      1853.8756      3146.1244      1853.8756      3146.1244      1853.8756      3146.1244      2.1579354e+09  0.5            6662100        1.1718669      5970.8429      11941.662      7.0807283    
  13319400   53648.178     -10.207438     -22964267       0.27855335     159755.11     -22804512       1292.2488      1292.2488      1292.2488      1853.8756      3146.1244      1853.8756      3146.1244      1853.8756      3146.1244      2.1579354e+09  0.5            6662200        1.1882917      6088.349       12176.696      7.0637455    
  13319600   54069.419     -10.469835     -22978720       0.27855335     161009.5      -22817711       1292.2488      1292.2488      1292.2488      1853.8756      3146.1244      1853.8756      3146.1244      1853.8756      3146.1244      2.1579354e+09  0.5            6662300        1.2046413      6116.3063      12232.622      7.0463383    
  13319800   55684.765     -10.494822     -22978385       0.27855335     165819.72     -22812565       1292.2488      1292.2488      1292.2488      1853.8756      3146.1244      1853.8756      3146.1244      1853.8756      3146.1244      2.1579354e+09  0.5            6662400        1.2213189      5996.0835      11992.14       7.0308473    
  13320000   57410.799     -10.501689     -22978027       0.27855335     170959.56     -22807067       1292.2488      1292.2488      1292.2488      1853.8756      3146.1244      1853.8756      3146.1244      1853.8756      3146.1244      2.1579354e+09  0.5            6662500        1.2394107      5527.3755      11054.723      7.0233384    
  13320200   56472.237     -10.688664     -22979542       0.27855335     168164.68     -22811378       1292.2488      1292.2488      1292.2488      1853.8756      3146.1244      1853.8756      3146.1244      1853.8756      3146.1244      2.1579354e+09  0.5            6662600        1.2561674      5967.765       11935.555      7.0081028    
  13320400   53809.506     -11.023923     -22986550       0.27855335     160235.52     -22826315       1292.2488      1292.2488      1292.2488      1853.8756      3146.1244      1853.8756      3146.1244      1853.8756      3146.1244      2.1579354e+09  0.5            6662700        1.2723627      6174.6153      12349.281      6.9897431    
  13320600   56526.665     -10.901772     -22986172       0.27855335     168326.76     -22817846       1292.2488      1292.2488      1292.2488      1853.8756      3146.1244      1853.8756      3146.1244      1853.8756      3146.1244      2.1579354e+09  0.5            6662800        1.2887242      6111.9311      12223.87       6.9723386    
  13320800   58784.698     -10.842359     -22985772       0.27855335     175050.79     -22810721       1292.2488      1292.2488      1292.2488      1853.8756      3146.1244      1853.8756      3146.1244      1853.8756      3146.1244      2.1579354e+09  0.5            6662900        1.3054096      5993.2539      11986.502      6.9566868    
  13321000   59510.749     -10.842673     -22985348       0.27855335     177212.85     -22808135       1292.2488      1292.2488      1292.2488      1853.8756      3146.1244      1853.8756      3146.1244      1853.8756      3146.1244      2.1579354e+09  0.5            6663000        1.3216825      6145.179       12290.326      6.9388434    
  13321200   60377.778     -10.97022      -22992284       0.27855335     179794.71     -22812490       1292.2488      1292.2488      1292.2488      1853.8756      3146.1244      1853.8756      3146.1244      1853.8756      3146.1244      2.1579354e+09  0.5            6663100        1.3395713      5590.0649      11180.123      6.9293979    
  13321400   61897.577     -10.917849     -22991827       0.27855335     184320.42     -22807506       1292.2488      1292.2488      1292.2488      1853.8756      3146.1244      1853.8756      3146.1244      1853.8756      3146.1244      2.1579354e+09  0.5            6663200        1.3563807      5949.047       11898.057      6.9142446    
  13321600   63385.014     -10.996094     -22991349       0.27855335     188749.75     -22802599       1292.2488      1292.2488      1292.2488      1853.8756      3146.1244      1853.8756      3146.1244      1853.8756      3146.1244      2.1579354e+09  0.5            6663300        1.3726796      6135.4316      12270.914      6.8964841    
  13321800   62496.22      -11.192605     -22990827       0.27855335     186103.07     -22804724       1292.2488      1292.2488      1292.2488      1853.8756      3146.1244      1853.8756      3146.1244      1853.8756      3146.1244      2.1579354e+09  0.5            6663400        1.3896008      5909.7383      11819.478      6.8818423    
  13322000   60162.821     -11.286952     -22992182       0.27855335     179154.61     -22813028       1292.2488      1292.2488      1292.2488      1853.8756      3146.1244      1853.8756      3146.1244      1853.8756      3146.1244      2.1579354e+09  0.5            6663500        1.4060687      6072.4027      12144.794      6.8649333    
  13322200   62725.482     -11.130223     -22998996       0.27855335     186785.77     -22812210       1292.2488      1292.2488      1292.2488      1853.8756      3146.1244      1853.8756      3146.1244      1853.8756      3146.1244      2.1579354e+09  0.5            6663600        1.4223314      6149.0877      12298.243      6.8470459    
  13322400   65344.426     -10.96525      -22991003       0.27855335     194584.54     -22796419       1292.2488      1292.2488      1292.2488      1853.8756      3146.1244      1853.8756      3146.1244      1853.8756      3146.1244      2.1579354e+09  0.5            6663700        1.4392574      5907.9989      11815.964      6.8323467    
  13322600   65267.391     -11.02815      -22990330       0.27855335     194355.15     -22795975       1292.2488      1292.2488      1292.2488      1853.8756      3146.1244      1853.8756      3146.1244      1853.8756      3146.1244      2.1579354e+09  0.5            6663800        1.4556174      6112.5569      12225.128      6.8149447    
  13322800   65390.147     -10.888404     -22989584       0.27855335     194720.69     -22794863       1292.2488      1292.2488      1292.2488      1853.8756      3146.1244      1853.8756      3146.1244      1853.8756      3146.1244      2.1579354e+09  0.5            6663900        1.4724249      5949.6976      11899.391      6.7996336    
  13323000   68276.167     -10.718024     -22988755       0.27855335     203314.77     -22785440       1292.2488      1292.2488      1292.2488      1853.8756      3146.1244      1853.8756      3146.1244      1853.8756      3146.1244      2.1579354e+09  0.5            6664000        1.4889569      6048.8877      12097.8        6.7830344    
  13323200   69918.791     -10.569209     -22987815       0.27855335     208206.22     -22779609       1292.2488      1292.2488      1292.2488      1853.8756      3146.1244      1853.8756      3146.1244      1853.8756      3146.1244      2.1579354e+09  0.5            6664100        1.5058203      5929.9534      11859.867      6.7679266    
  13323400   66882.239     -10.663265     -22986772       0.27855335     199163.89     -22787608       1292.2488      1292.2488      1292.2488      1853.8756      3146.1244      1853.8756      3146.1244      1853.8756      3146.1244      2.1579354e+09  0.5            6664200        1.5221978      6105.9846      12211.971      6.7506245    
  13323600   64571.735     -10.497364     -22978298       0.27855335     192283.6      -22786014       1292.2488      1292.2488      1292.2488      1853.8756      3146.1244      1853.8756      3146.1244      1853.8756      3146.1244      2.1579354e+09  0.5            6664300        1.538536       6120.5807      12241.173      6.7331722    
  13323800   70344.76      -9.9379537     -22978987       0.27855335     209474.68     -22769513       1292.2488      1292.2488      1292.2488      1853.8756      3146.1244      1853.8756      3146.1244      1853.8756      3146.1244      2.1579354e+09  0.5            6664400        1.5553573      5944.8289      11889.661      6.7178289    
  13324000   71227.806     -9.6940539     -22970270       0.27855335     212104.24     -22758166       1292.2488      1292.2488      1292.2488      1853.8756      3146.1244      1853.8756      3146.1244      1853.8756      3146.1244      2.1579354e+09  0.5            6664500        1.5717485      6100.8752      12201.783      6.7006197    
  13324200   70695.138     -9.503705      -22970741       0.27855335     210518.05     -22760223       1292.2488      1292.2488      1292.2488      1853.8756      3146.1244      1853.8756      3146.1244      1853.8756      3146.1244      2.1579354e+09  0.5            6664600        1.5887433      5884.141       11768.228      6.68597      
  13324400   71297.257     -9.2262824     -22976611       0.27855335     212311.06     -22764300       1292.2488      1292.2488      1292.2488      1853.8756      3146.1244      1853.8756      3146.1244      1853.8756      3146.1244      2.1579354e+09  0.5            6664700        1.6051594      6091.6105      12183.269      6.6688662    
  13324600   73922.311     -8.748725      -22967644       0.27855335     220128.02     -22747516       1292.2488      1292.2488      1292.2488      1853.8756      3146.1244      1853.8756      3146.1244      1853.8756      3146.1244      2.1579354e+09  0.5            6664800        1.6215069      6117.141       12234.232      6.6514953    
  13324800   74812.486     -8.4516216     -22973326       0.27855335     222778.81     -22750547       1292.2488      1292.2488      1292.2488      1853.8756      3146.1244      1853.8756      3146.1244      1853.8756      3146.1244      2.1579354e+09  0.5            6664900        1.638351       5936.7764      11873.568      6.6361567    
  13325000   72829.131     -8.1546637     -22971546       0.27855335     216872.72     -22754673       1292.2488      1292.2488      1292.2488      1853.8756      3146.1244      1853.8756      3146.1244      1853.8756      3146.1244      2.1579354e+09  0.5            6665000        1.6566093      5476.9726      10953.936      6.6264451    
  13325200   70299.924     -7.88381       -22969730       0.27855335     209341.17     -22760389       1292.2488      1292.2488      1292.2488      1853.8756      3146.1244      1853.8756      3146.1244      1853.8756      3146.1244      2.1579354e+09  0.5            6665100        1.6735147      5915.2648      11830.546      6.6112191    
  13325400   74629.832     -7.3584983     -22975263       0.27855335     222234.9      -22753028       1292.2488      1292.2488      1292.2488      1853.8756      3146.1244      1853.8756      3146.1244      1853.8756      3146.1244      2.1579354e+09  0.5            6665200        1.6900954      6031.1154      12062.239      6.5946933    
  13325600   76852.439     -6.7546923     -22980700       0.27855335     228853.44     -22751847       1292.2488      1292.2488      1292.2488      1853.8756      3146.1244      1853.8756      3146.1244      1853.8756      3146.1244      2.1579354e+09  0.5            6665300        1.706897       5951.772       11903.521      6.5790187    
  13325800   77462.749     -6.4102007     -22986093       0.27855335     230670.84     -22755422       1292.2488      1292.2488      1292.2488      1853.8756      3146.1244      1853.8756      3146.1244      1853.8756      3146.1244      2.1579354e+09  0.5            6665400        1.7233804      6066.7327      12133.478      6.5621098    
  13326000   78044.305     -5.9923585     -22985957       0.27855335     232402.61     -22753554       1292.2488      1292.2488      1292.2488      1853.8756      3146.1244      1853.8756      3146.1244      1853.8756      3146.1244      2.1579354e+09  0.5            6665500        1.7397639      6103.7637      12207.531      6.5448326    
  13326200   80071.511     -5.2136821     -22971026       0.27855335     238439.29     -22732586       1292.2488      1292.2488      1292.2488      1853.8756      3146.1244      1853.8756      3146.1244      1853.8756      3146.1244      2.1579354e+09  0.5            6665600        1.7566276      5929.851       11859.683      6.5293591    
  13326400   81954.873     -4.5684407     -22961508       0.27855335     244047.62     -22717461       1292.2488      1292.2488      1292.2488      1853.8756      3146.1244      1853.8756      3146.1244      1853.8756      3146.1244      2.1579354e+09  0.5            6665700        1.7730984      6071.3487      12142.717      6.5124153    
  13326600   79688.898     -4.3768091     -22959339       0.27855335     237299.93     -22722039       1292.2488      1292.2488      1292.2488      1853.8756      3146.1244      1853.8756      3146.1244      1853.8756      3146.1244      2.1579354e+09  0.5            6665800        1.7900691      5892.5099      11784.998      6.4972954    
  13326800   75893.271     -4.0165396     -22957216       0.27855335     225997.2      -22731219       1292.2488      1292.2488      1292.2488      1853.8756      3146.1244      1853.8756      3146.1244      1853.8756      3146.1244      2.1579354e+09  0.5            6665900        1.80633        6149.7071      12299.441      6.4795946    
  13327000   79985.787     -3.1939552     -22955115       0.27855335     238184.02     -22716931       1292.2488      1292.2488      1292.2488      1853.8756      3146.1244      1853.8756      3146.1244      1853.8756      3146.1244      2.1579354e+09  0.5            6666000        1.8231396      5949.0081      11898.01       6.4638654    
  13327200   82232.271     -2.6339089     -22952964       0.27855335     244873.66     -22708091       1292.2488      1292.2488      1292.2488      1853.8756      3146.1244      1853.8756      3146.1244      1853.8756      3146.1244      2.1579354e+09  0.5            6666100        1.8394689      6123.9833      12247.97       6.4464338    
  13327400   83199.276     -2.1105764     -22958165       0.27855335     247753.24     -22710412       1292.2488      1292.2488      1292.2488      1853.8756      3146.1244      1853.8756      3146.1244      1853.8756      3146.1244      2.1579354e+09  0.5            6666200        1.8557812      6130.3599      12260.739      6.4289622    
  13327600   84460.177     -1.489634      -22948236       0.27855335     251507.99     -22696728       1292.2488      1292.2488      1292.2488      1853.8756      3146.1244      1853.8756      3146.1244      1853.8756      3146.1244      2.1579354e+09  0.5            6666300        1.8730384      5794.6237      11589.183      6.4147492    
  13327800   86012.362     -0.90613973    -22947935       0.27855335     256130.13     -22691805       1292.2488      1292.2488      1292.2488      1853.8756      3146.1244      1853.8756      3146.1244      1853.8756      3146.1244      2.1579354e+09  0.5            6666400        1.889489       6078.8308      12157.67       6.39775      
  13328000   87397.854     -0.27714612    -22943849       0.27855335     260255.89     -22683593       1292.2488      1292.2488      1292.2488      1853.8756      3146.1244      1853.8756      3146.1244      1853.8756      3146.1244      2.1579354e+09  0.5            6666500        1.9064148      5908.0966      11816.221      6.382352     
  13328200   86631.55       0.11535053    -22943562       0.27855335     257973.96     -22685588       1292.2488      1292.2488      1292.2488      1853.8756      3146.1244      1853.8756      3146.1244      1853.8756      3146.1244      2.1579354e+09  0.5            6666600        1.922766       6115.7808      12231.582      6.3650247    
  13328400   83954.013      0.42217441    -22941442       0.27855335     250000.71     -22691441       1292.2488      1292.2488      1292.2488      1853.8756      3146.1244      1853.8756      3146.1244      1853.8756      3146.1244      2.1579354e+09  0.5            6666700        1.9391398      6107.3491      12214.676      6.3477885    
  13328600   85880.716      0.8084469     -22948657       0.27855335     255738.11     -22692919       1292.2488      1292.2488      1292.2488      1853.8756      3146.1244      1853.8756      3146.1244      1853.8756      3146.1244      2.1579354e+09  0.5            6666800        1.9559971      5932.0714      11864.157      6.332133     
  13328800   89822.677      1.5419427     -22939218       0.27855335     267476.59     -22671741       1292.2488      1292.2488      1292.2488      1853.8756      3146.1244      1853.8756      3146.1244      1853.8756      3146.1244      2.1579354e+09  0.5            6666900        1.9724168      6090.3146      12180.634      6.3150547    
  13329000   89244.859      1.9181941     -22939066       0.27855335     265755.95     -22673310       1292.2488      1292.2488      1292.2488      1853.8756      3146.1244      1853.8756      3146.1244      1853.8756      3146.1244      2.1579354e+09  0.5            6667000        1.9894337      5876.4872      11752.97       6.2998799    
  13329200   88201.337      2.2286825     -22937071       0.27855335     262648.52     -22674423       1292.2488      1292.2488      1292.2488      1853.8756      3146.1244      1853.8756      3146.1244      1853.8756      3146.1244      2.1579354e+09  0.5            6667100        2.005821       6102.3014      12204.601      6.2827015    
  13329400   91856.203      2.9470159     -22942488       0.27855335     273532.09     -22668956       1292.2488      1292.2488      1292.2488      1853.8756      3146.1244      1853.8756      3146.1244      1853.8756      3146.1244      2.1579354e+09  0.5            6667200        2.0221574      6121.3368      12242.654      6.2653786    
  13329600   94601.158      3.4648079     -22949798       0.27855335     281706.09     -22668092       1292.2488      1292.2488      1292.2488      1853.8756      3146.1244      1853.8756      3146.1244      1853.8756      3146.1244      2.1579354e+09  0.5            6667300        2.0390271      5927.7459      11855.508      6.2497069    
  13329800   91136.077      3.7413575     -22947888       0.27855335     271387.68     -22676501       1292.2488      1292.2488      1292.2488      1853.8756      3146.1244      1853.8756      3146.1244      1853.8756      3146.1244      2.1579354e+09  0.5            6667400        2.0554191      6100.5696      12201.186      6.2325664    
  13330000   89498.666      4.1366334     -22946088       0.27855335     266511.75     -22679576       1292.2488      1292.2488      1292.2488      1853.8756      3146.1244      1853.8756      3146.1244      1853.8756      3146.1244      2.1579354e+09  0.5            6667500        2.0741841      5329.0573      10658.038      6.2225584    
  13330200   95283.638      4.9926247     -22944356       0.27855335     283738.4      -22660618       1292.2488      1292.2488      1292.2488      1853.8756      3146.1244      1853.8756      3146.1244      1853.8756      3146.1244      2.1579354e+09  0.5            6667600        2.0908171      6012.1449      12024.29       6.2060824    
  13330400   96320.344      5.5802674     -22957415       0.27855335     286825.54     -22670589       1292.2488      1292.2488      1292.2488      1853.8756      3146.1244      1853.8756      3146.1244      1853.8756      3146.1244      2.1579354e+09  0.5            6667700        2.1071905      6107.4383      12214.929      6.1888409    
  13330600   93574.713      5.6472151     -22963189       0.27855335     278649.52     -22684540       1292.2488      1292.2488      1292.2488      1853.8756      3146.1244      1853.8756      3146.1244      1853.8756      3146.1244      2.1579354e+09  0.5            6667800        2.1242029      5878.0827      11756.161      6.1734703    
  13330800   93269.227      6.0890113     -22961710       0.27855335     277739.83     -22683970       1292.2488      1292.2488      1292.2488      1853.8756      3146.1244      1853.8756      3146.1244      1853.8756      3146.1244      2.1579354e+09  0.5            6667900        2.1405835      6104.806       12209.551      6.1562573    
  13331000   98033.12       6.7360731     -22962224       0.27855335     291925.89     -22670298       1292.2488      1292.2488      1292.2488      1853.8756      3146.1244      1853.8756      3146.1244      1853.8756      3146.1244      2.1579354e+09  0.5            6668000        2.1570978      6055.3559      12110.779      6.1394381    
  13331200   99135.558      7.1647547     -22960909       0.27855335     295208.76     -22665700       1292.2488      1292.2488      1292.2488      1853.8756      3146.1244      1853.8756      3146.1244      1853.8756      3146.1244      2.1579354e+09  0.5            6668100        2.1740255      5907.4918      11814.979      6.123787     
  13331400   97024.386      7.511649      -22952308       0.27855335     288922.05     -22663386       1292.2488      1292.2488      1292.2488      1853.8756      3146.1244      1853.8756      3146.1244      1853.8756      3146.1244      2.1579354e+09  0.5            6668200        2.1906217      6025.4223      12050.856      6.1071931    
  13331600   96858.084      7.7397859     -22943839       0.27855335     288426.84     -22655413       1292.2488      1292.2488      1292.2488      1853.8756      3146.1244      1853.8756      3146.1244      1853.8756      3146.1244      2.1579354e+09  0.5            6668300        2.2074944      5926.7741      11853.56       6.0913619    
  13331800   99401.84       8.2007835     -22957608       0.27855335     296001.7      -22661606       1292.2488      1292.2488      1292.2488      1853.8756      3146.1244      1853.8756      3146.1244      1853.8756      3146.1244      2.1579354e+09  0.5            6668400        2.2239636      6071.9669      12143.82       6.0744131    
  13332000   100356.27      8.4233298     -22954824       0.27855335     298843.85     -22655980       1292.2488      1292.2488      1292.2488      1853.8756      3146.1244      1853.8756      3146.1244      1853.8756      3146.1244      2.1579354e+09  0.5            6668500        2.2403937      6086.3447      12172.773      6.057366     
  13332200   100210.12      8.670267      -22959514       0.27855335     298408.63     -22661106       1292.2488      1292.2488      1292.2488      1853.8756      3146.1244      1853.8756      3146.1244      1853.8756      3146.1244      2.1579354e+09  0.5            6668600        2.257357       5895.0676      11790.139      6.0417549    
  13332400   101365.59      8.8769393     -22966548       0.27855335     301849.43     -22664699       1292.2488      1292.2488      1292.2488      1853.8756      3146.1244      1853.8756      3146.1244      1853.8756      3146.1244      2.1579354e+09  0.5            6668700        2.2738236      6072.9301      12145.873      6.0248079    
  13332600   103787.28      9.1922764     -22958529       0.27855335     309060.78     -22649468       1292.2488      1292.2488      1292.2488      1853.8756      3146.1244      1853.8756      3146.1244      1853.8756      3146.1244      2.1579354e+09  0.5            6668800        2.2904033      6031.4708      12062.931      6.0081644    
  13332800   104835.74      9.5046796     -22950553       0.27855335     312182.95     -22638370       1292.2488      1292.2488      1292.2488      1853.8756      3146.1244      1853.8756      3146.1244      1853.8756      3146.1244      2.1579354e+09  0.5            6668900        2.307474       5857.9707      11715.955      5.9927971    
  13333000   102140.09      9.3009913     -22950003       0.27855335     304155.73     -22645848       1292.2488      1292.2488      1292.2488      1853.8756      3146.1244      1853.8756      3146.1244      1853.8756      3146.1244      2.1579354e+09  0.5            6669000        2.3239352      6074.9116      12149.823      5.9758381    
  13333200   99708.119      9.267462      -22958781       0.27855335     296913.75     -22661868       1292.2488      1292.2488      1292.2488      1853.8756      3146.1244      1853.8756      3146.1244      1853.8756      3146.1244      2.1579354e+09  0.5            6669100        2.341953       5550.0287      11100.041      5.9628501    
  13333400   105736.27      9.4704238     -22965716       0.27855335     314864.55     -22650851       1292.2488      1292.2488      1292.2488      1853.8756      3146.1244      1853.8756      3146.1244      1853.8756      3146.1244      2.1579354e+09  0.5            6669200        2.3589095      5897.4619      11794.925      5.9471148    
  13333600   108180.98      9.5902427     -22959782       0.27855335     322144.48     -22637637       1292.2488      1292.2488      1292.2488      1853.8756      3146.1244      1853.8756      3146.1244      1853.8756      3146.1244      2.1579354e+09  0.5            6669300        2.3753121      6096.6186      12193.225      5.9299799    
  13333800   106192.31      9.3656712     -22952324       0.27855335     316222.58     -22636101       1292.2488      1292.2488      1292.2488      1853.8756      3146.1244      1853.8756      3146.1244      1853.8756      3146.1244      2.1579354e+09  0.5            6669400        2.3924008      5851.8096      11703.636      5.9145514    
  13334000   104748.97      9.1592431     -22959252       0.27855335     311924.54     -22647327       1292.2488      1292.2488      1292.2488      1853.8756      3146.1244      1853.8756      3146.1244      1853.8756      3146.1244      2.1579354e+09  0.5            6669500        2.4089131      6056.1366      12112.266      5.8976882    
  13334200   110219.25      9.6133406     -22944050       0.27855335     328214.12     -22615836       1292.2488      1292.2488      1292.2488      1853.8756      3146.1244      1853.8756      3146.1244      1853.8756      3146.1244      2.1579354e+09  0.5            6669600        2.4253676      6077.3756      12154.725      5.8806902    
  13334400   113282.68      9.5271108     -22943554       0.27855335     337336.48     -22606217       1292.2488      1292.2488      1292.2488      1853.8756      3146.1244      1853.8756      3146.1244      1853.8756      3146.1244      2.1579354e+09  0.5            6669700        2.4423681      5882.1512      11764.334      5.865011     
  13334600   108768.87      8.9299697     -22950400       0.27855335     323895.13     -22626505       1292.2488      1292.2488      1292.2488      1853.8756      3146.1244      1853.8756      3146.1244      1853.8756      3146.1244      2.1579354e+09  0.5            6669800        2.4588871      6053.6473      12107.303      5.8481683    
  13334800   107258.25      8.6327567     -22951768       0.27855335     319396.76     -22632371       1292.2488      1292.2488      1292.2488      1853.8756      3146.1244      1853.8756      3146.1244      1853.8756      3146.1244      2.1579354e+09  0.5            6669900        2.4758431      5897.616       11795.208      5.8323597    
  13335000   110374.82      8.5049208     -22951216       0.27855335     328677.37     -22622538       1292.2488      1292.2488      1292.2488      1853.8756      3146.1244      1853.8756      3146.1244      1853.8756      3146.1244      2.1579354e+09  0.5            6670000        2.4943918      5391.1957      10782.393      5.8202522    
  13335200   111878.82      8.3947964     -22957988       0.27855335     333156.03     -22624832       1292.2488      1292.2488      1292.2488      1853.8756      3146.1244      1853.8756      3146.1244      1853.8756      3146.1244      2.1579354e+09  0.5            6670100        2.5109612      6035.2314      12070.498      5.8034842    
  13335400   112297.27      8.1217938     -22957345       0.27855335     334402.1      -22622943       1292.2488      1292.2488      1292.2488      1853.8756      3146.1244      1853.8756      3146.1244      1853.8756      3146.1244      2.1579354e+09  0.5            6670200        2.5279879      5873.0911      11746.163      5.7877663    
  13335600   113553.8       7.8319068     -22956646       0.27855335     338143.82     -22618502       1292.2488      1292.2488      1292.2488      1853.8756      3146.1244      1853.8756      3146.1244      1853.8756      3146.1244      2.1579354e+09  0.5            6670300        2.5444848      6061.8096      12123.649      5.770829     
  13335800   117043.18      7.7607596     -22955902       0.27855335     348534.61     -22607367       1292.2488      1292.2488      1292.2488      1853.8756      3146.1244      1853.8756      3146.1244      1853.8756      3146.1244      2.1579354e+09  0.5            6670400        2.5614627      5889.985       11779.919      5.754979     
  13336000   119649.8       7.7599823     -22942229       0.27855335     356296.66     -22585933       1292.2488      1292.2488      1292.2488      1853.8756      3146.1244      1853.8756      3146.1244      1853.8756      3146.1244      2.1579354e+09  0.5            6670500        2.5781784      5982.4062      11964.854      5.7385302    
  13336200   113427.93      7.1352603     -22939461       0.27855335     337769        -22601692       1292.2488      1292.2488      1292.2488      1853.8756      3146.1244      1853.8756      3146.1244      1853.8756      3146.1244      2.1579354e+09  0.5            6670600        2.5946529      6069.9792      12139.981      5.7215463    
  13336400   111183.15      6.4525574     -22945920       0.27855335     331084.45     -22614836       1292.2488      1292.2488      1292.2488      1853.8756      3146.1244      1853.8756      3146.1244      1853.8756      3146.1244      2.1579354e+09  0.5            6670700        2.6117007      5865.8489      11731.649      5.7058217    
  13336600   116271.53      6.6890699     -22941142       0.27855335     346236.76     -22594905       1292.2488      1292.2488      1292.2488      1853.8756      3146.1244      1853.8756      3146.1244      1853.8756      3146.1244      2.1579354e+09  0.5            6670800        2.628251       6042.1829      12084.358      5.6890031    
  13336800   118242.18      6.5139956     -22940044       0.27855335     352105.02     -22587939       1292.2488      1292.2488      1292.2488      1853.8756      3146.1244      1853.8756      3146.1244      1853.8756      3146.1244      2.1579354e+09  0.5            6670900        2.645207       5897.6201      11795.254      5.6730581    
  13337000   118419.69      6.007174      -22935264       0.27855335     352633.61     -22582630       1292.2488      1292.2488      1292.2488      1853.8756      3146.1244      1853.8756      3146.1244      1853.8756      3146.1244      2.1579354e+09  0.5            6671000        2.6617531      6043.7426      12087.495      5.6562292    
  13337200   119289.43      5.7814101     -22933978       0.27855335     355223.56     -22578755       1292.2488      1292.2488      1292.2488      1853.8756      3146.1244      1853.8756      3146.1244      1853.8756      3146.1244      2.1579354e+09  0.5            6671100        2.6785151      5965.8688      11931.753      5.6398587    
  13337400   123911.93      5.7706808     -22932593       0.27855335     368988.56     -22563604       1292.2488      1292.2488      1292.2488      1853.8756      3146.1244      1853.8756      3146.1244      1853.8756      3146.1244      2.1579354e+09  0.5            6671200        2.6955828      5859.0378      11718.058      5.624121     
  13337600   125156.69      5.6925851     -22938473       0.27855335     372695.26     -22565778       1292.2488      1292.2488      1292.2488      1853.8756      3146.1244      1853.8756      3146.1244      1853.8756      3146.1244      2.1579354e+09  0.5            6671300        2.7121736      6027.3933      12054.8        5.6073814    
  13337800   117779.19      4.9298204     -22929554       0.27855335     350726.31     -22578827       1292.2488      1292.2488      1292.2488      1853.8756      3146.1244      1853.8756      3146.1244      1853.8756      3146.1244      2.1579354e+09  0.5            6671400        2.7291897      5876.828       11753.639      5.5915147    
  13338000   117363.34      4.5016005     -22928031       0.27855335     349487.99     -22578543       1292.2488      1292.2488      1292.2488      1853.8756      3146.1244      1853.8756      3146.1244      1853.8756      3146.1244      2.1579354e+09  0.5            6671500        2.7457921      6023.2375      12046.516      5.5747934    
  13338200   121758.68      4.3284559     -22926504       0.27855335     362576.56     -22563927       1292.2488      1292.2488      1292.2488      1853.8756      3146.1244      1853.8756      3146.1244      1853.8756      3146.1244      2.1579354e+09  0.5            6671600        2.7622955      6059.3435      12118.682      5.5578752    
  13338400   123640.45      4.3155499     -22924934       0.27855335     368180.15     -22556753       1292.2488      1292.2488      1292.2488      1853.8756      3146.1244      1853.8756      3146.1244      1853.8756      3146.1244      2.1579354e+09  0.5            6671700        2.7795499      5795.5983      11591.167      5.5424595    
  13338600   125017.47      4.1868693     -22915980       0.27855335     372280.69     -22543699       1292.2488      1292.2488      1292.2488      1853.8756      3146.1244      1853.8756      3146.1244      1853.8756      3146.1244      2.1579354e+09  0.5            6671800        2.7960734      6052.0001      12103.996      5.5255773    
  13338800   126591.79      3.9544998     -22931067       0.27855335     376968.74     -22554098       1292.2488      1292.2488      1292.2488      1853.8756      3146.1244      1853.8756      3146.1244      1853.8756      3146.1244      2.1579354e+09  0.5            6671900        2.8130854      5878.186       11756.36       5.5096563    
  13339000   129099.43      3.9844377     -22922114       0.27855335     384436.04     -22537678       1292.2488      1292.2488      1292.2488      1853.8756      3146.1244      1853.8756      3146.1244      1853.8756      3146.1244      2.1579354e+09  0.5            6672000        2.8296348      6042.544       12085.097      5.4928241    
  13339200   128364.01      4.0214534     -22905774       0.27855335     382246.09     -22523528       1292.2488      1292.2488      1292.2488      1853.8756      3146.1244      1853.8756      3146.1244      1853.8756      3146.1244      2.1579354e+09  0.5            6672100        2.8466341      5882.6055      11765.227      5.4768608    
  13339400   123393.72      3.6092392     -22911603       0.27855335     367445.44     -22544157       1292.2488      1292.2488      1292.2488      1853.8756      3146.1244      1853.8756      3146.1244      1853.8756      3146.1244      2.1579354e+09  0.5            6672200        2.8631511      6054.347       12108.657      5.4599661    
  13339600   124500.78      3.4036837     -22911987       0.27855335     370742.06     -22541245       1292.2488      1292.2488      1292.2488      1853.8756      3146.1244      1853.8756      3146.1244      1853.8756      3146.1244      2.1579354e+09  0.5            6672300        2.8802647      5843.3039      11686.63       5.4442033    
  13339800   131891.86      3.7905897     -22910442       0.27855335     392751.44     -22517691       1292.2488      1292.2488      1292.2488      1853.8756      3146.1244      1853.8756      3146.1244      1853.8756      3146.1244      2.1579354e+09  0.5            6672400        2.8968067      6045.1908      12090.397      5.427354     
  13340000   131008.03      3.665181      -22918115       0.27855335     390119.55     -22527996       1292.2488      1292.2488      1292.2488      1853.8756      3146.1244      1853.8756      3146.1244      1853.8756      3146.1244      2.1579354e+09  0.5            6672500        2.9152547      5420.6715      10841.336      5.4140478    
  13340200   128211.24      3.2277725     -22918375       0.27855335     381791.17     -22536583       1292.2488      1292.2488      1292.2488      1853.8756      3146.1244      1853.8756      3146.1244      1853.8756      3146.1244      2.1579354e+09  0.5            6672600        2.9323248      5858.1539      11716.316      5.3981469    
  13340400   129747.08      3.4730509     -22914784       0.27855335     386364.65     -22528419       1292.2488      1292.2488      1292.2488      1853.8756      3146.1244      1853.8756      3146.1244      1853.8756      3146.1244      2.1579354e+09  0.5            6672700        2.948886       6038.1832      12076.36       5.3813042    
  13340600   138193.99      3.9151968     -22911097       0.27855335     411518.09     -22499579       1292.2488      1292.2488      1292.2488      1853.8756      3146.1244      1853.8756      3146.1244      1853.8756      3146.1244      2.1579354e+09  0.5            6672800        2.9659303      5867.0644      11734.12       5.3653383    
  13340800   134836.87      3.6284593     -22909153       0.27855335     401521.18     -22507632       1292.2488      1292.2488      1292.2488      1853.8756      3146.1244      1853.8756      3146.1244      1853.8756      3146.1244      2.1579354e+09  0.5            6672900        2.9825465      6018.2605      12036.534      5.3485923    
  13341000   130307.61      3.5078249     -22903369       0.27855335     388033.82     -22515336       1292.2488      1292.2488      1292.2488      1853.8756      3146.1244      1853.8756      3146.1244      1853.8756      3146.1244      2.1579354e+09  0.5            6673000        2.9995229      5890.5356      11781.087      5.3324884    
  13341200   131687.89      3.5681472     -22901305       0.27855335     392144.06     -22509161       1292.2488      1292.2488      1292.2488      1853.8756      3146.1244      1853.8756      3146.1244      1853.8756      3146.1244      2.1579354e+09  0.5            6673100        3.0161324      6020.6512      12041.254      5.3157284    
  13341400   134628.57      3.7219805     -22893646       0.27855335     400900.91     -22492745       1292.2488      1292.2488      1292.2488      1853.8756      3146.1244      1853.8756      3146.1244      1853.8756      3146.1244      2.1579354e+09  0.5            6673200        3.0331852      5864.1516      11728.3        5.2997447    
  13341600   135195.18      3.8294302     -22889510       0.27855335     402588.15     -22486922       1292.2488      1292.2488      1292.2488      1853.8756      3146.1244      1853.8756      3146.1244      1853.8756      3146.1244      2.1579354e+09  0.5            6673300        3.0495985      6092.6219      12185.299      5.282641     
  13341800   135643.29      3.9009437     -22885278       0.27855335     403922.55     -22481355       1292.2488      1292.2488      1292.2488      1853.8756      3146.1244      1853.8756      3146.1244      1853.8756      3146.1244      2.1579354e+09  0.5            6673400        3.0664795      5923.8358      11847.675      5.2663482    
  13342000   137813.62      4.1178481     -22882870       0.27855335     410385.42     -22472485       1292.2488      1292.2488      1292.2488      1853.8756      3146.1244      1853.8756      3146.1244      1853.8756      3146.1244      2.1579354e+09  0.5            6673500        3.0831921      5983.4518      11966.881      5.249763     
  13342200   144806.75      4.6097162     -22872964       0.27855335     431209.77     -22441754       1292.2488      1292.2488      1292.2488      1853.8756      3146.1244      1853.8756      3146.1244      1853.8756      3146.1244      2.1579354e+09  0.5            6673600        3.0997122      6053.2794      12106.572      5.2328505    
  13342400   144312.38      4.8632334     -22870320       0.27855335     429737.61     -22440582       1292.2488      1292.2488      1292.2488      1853.8756      3146.1244      1853.8756      3146.1244      1853.8756      3146.1244      2.1579354e+09  0.5            6673700        3.1167939      5854.1675      11708.34       5.216883     
  13342600   134506.43      4.1197227     -22882441       0.27855335     400537.18     -22481904       1292.2488      1292.2488      1292.2488      1853.8756      3146.1244      1853.8756      3146.1244      1853.8756      3146.1244      2.1579354e+09  0.5            6673800        3.1333281      6048.1264      12096.2        5.1999946    
  13342800   136132.76      4.6072413     -22879840       0.27855335     405380.1      -22474460       1292.2488      1292.2488      1292.2488      1853.8756      3146.1244      1853.8756      3146.1244      1853.8756      3146.1244      2.1579354e+09  0.5            6673900        3.1503135      5887.4109      11774.865      5.1838523    
  13343000   141366.57      5.2937735     -22871743       0.27855335     420965.52     -22450777       1292.2488      1292.2488      1292.2488      1853.8756      3146.1244      1853.8756      3146.1244      1853.8756      3146.1244      2.1579354e+09  0.5            6674000        3.1668608      6043.2341      12086.457      5.1669867    
  13343200   142989.33      5.5717296     -22869142       0.27855335     425797.82     -22443344       1292.2488      1292.2488      1292.2488      1853.8756      3146.1244      1853.8756      3146.1244      1853.8756      3146.1244      2.1579354e+09  0.5            6674100        3.1840093      5831.422       11662.784      5.151097     
  13343400   141692.71      5.7755018     -22866617       0.27855335     421936.7      -22444680       1292.2488      1292.2488      1292.2488      1853.8756      3146.1244      1853.8756      3146.1244      1853.8756      3146.1244      2.1579354e+09  0.5            6674200        3.2005767      6035.9632      12072.007      5.1342615    
  13343600   140376.35      5.9809799     -22864229       0.27855335     418016.81     -22446212       1292.2488      1292.2488      1292.2488      1853.8756      3146.1244      1853.8756      3146.1244      1853.8756      3146.1244      2.1579354e+09  0.5            6674300        3.2176274      5864.8846      11729.728      5.1181979    
  13343800   144515.99      6.3594534     -22876739       0.27855335     430343.94     -22446395       1292.2488      1292.2488      1292.2488      1853.8756      3146.1244      1853.8756      3146.1244      1853.8756      3146.1244      2.1579354e+09  0.5            6674400        3.234186       6039.1422      12078.319      5.1013478    
  13344000   148421.59      6.8652492     -22874633       0.27855335     441974.14     -22432659       1292.2488      1292.2488      1292.2488      1853.8756      3146.1244      1853.8756      3146.1244      1853.8756      3146.1244      2.1579354e+09  0.5            6674500        3.2512377      5864.5293      11729.027      5.0852722    
  13344200   145170.47      6.826572      -22872655       0.27855335     432292.88     -22440362       1292.2488      1292.2488      1292.2488      1853.8756      3146.1244      1853.8756      3146.1244      1853.8756      3146.1244      2.1579354e+09  0.5            6674600        3.2677728      6047.7434      12095.48       5.0683852    
  13344400   139441.73      6.4848031     -22885295       0.27855335     415233.66     -22470061       1292.2488      1292.2488      1292.2488      1853.8756      3146.1244      1853.8756      3146.1244      1853.8756      3146.1244      2.1579354e+09  0.5            6674700        3.2849913      5807.7008      11615.416      5.052553     
  13344600   145101.71      7.1256109     -22881881       0.27855335     432088.12     -22449792       1292.2488      1292.2488      1292.2488      1853.8756      3146.1244      1853.8756      3146.1244      1853.8756      3146.1244      2.1579354e+09  0.5            6674800        3.3015237      6048.7392      12097.498      5.03566      
  13344800   151540.02      7.4082514     -22880873       0.27855335     451260.32     -22429613       1292.2488      1292.2488      1292.2488      1853.8756      3146.1244      1853.8756      3146.1244      1853.8756      3146.1244      2.1579354e+09  0.5            6674900        3.3184278      5915.7144      11831.441      5.0193332    
  13345000   148142.42      7.3423541     -22888940       0.27855335     441142.84     -22447797       1292.2488      1292.2488      1292.2488      1853.8756      3146.1244      1853.8756      3146.1244      1853.8756      3146.1244      2.1579354e+09  0.5            6675000        3.3382649      5041.0622      10082.109      5.0074002    
  13345200   144701.49      7.2055294     -22887915       0.27855335     430896.32     -22457018       1292.2488      1292.2488      1292.2488      1853.8756      3146.1244      1853.8756      3146.1244      1853.8756      3146.1244      2.1579354e+09  0.5            6675100        3.3552743      5879.0928      11758.177      4.991182     
  13345400   149932.36      7.6679042     -22896344       0.27855335     446472.96     -22449871       1292.2488      1292.2488      1292.2488      1853.8756      3146.1244      1853.8756      3146.1244      1853.8756      3146.1244      2.1579354e+09  0.5            6675200        3.3717416      6072.6243      12145.265      4.9741562    
  13345600   156876.18      7.9801424     -22904868       0.27855335     467150.48     -22437718       1292.2488      1292.2488      1292.2488      1853.8756      3146.1244      1853.8756      3146.1244      1853.8756      3146.1244      2.1579354e+09  0.5            6675300        3.3888678      5838.9854      11677.945      4.9581003    
  13345800   152326.86      7.6162668     -22926318       0.27855335     453603.37     -22472714       1292.2488      1292.2488      1292.2488      1853.8756      3146.1244      1853.8756      3146.1244      1853.8756      3146.1244      2.1579354e+09  0.5            6675400        3.4053527      6066.1984      12132.434      4.9411026    
  13346000   149332.19      7.6062661     -22910955       0.27855335     444685.77     -22466269       1292.2488      1292.2488      1292.2488      1853.8756      3146.1244      1853.8756      3146.1244      1853.8756      3146.1244      2.1579354e+09  0.5            6675500        3.4223925      5868.6162      11737.243      4.9249089    
  13346200   151176.62      7.8493542     -22912250       0.27855335     450178.15     -22462072       1292.2488      1292.2488      1292.2488      1853.8756      3146.1244      1853.8756      3146.1244      1853.8756      3146.1244      2.1579354e+09  0.5            6675600        3.4390375      6007.7867      12015.573      4.9081435    
  13346400   154743.47      8.2378929     -22902340       0.27855335     460799.62     -22441541       1292.2488      1292.2488      1292.2488      1853.8756      3146.1244      1853.8756      3146.1244      1853.8756      3146.1244      2.1579354e+09  0.5            6675700        3.456107       5858.4079      11716.782      4.8919803    
  13346600   156101.68      8.4335614     -22908996       0.27855335     464844.14     -22444152       1292.2488      1292.2488      1292.2488      1853.8756      3146.1244      1853.8756      3146.1244      1853.8756      3146.1244      2.1579354e+09  0.5            6675800        3.4726899      6030.3476      12060.708      4.8751249    
  13346800   153148.72      8.4762376     -22910060       0.27855335     456050.73     -22454010       1292.2488      1292.2488      1292.2488      1853.8756      3146.1244      1853.8756      3146.1244      1853.8756      3146.1244      2.1579354e+09  0.5            6675900        3.4898898      5813.9626      11627.926      4.8591316    
  13347000   150982.05      8.3647332     -22916503       0.27855335     449598.76     -22466904       1292.2488      1292.2488      1292.2488      1853.8756      3146.1244      1853.8756      3146.1244      1853.8756      3146.1244      2.1579354e+09  0.5            6676000        3.5064584      6035.5352      12071.073      4.8422546    
  13347200   156780.81      8.9899168     -22913551       0.27855335     466866.48     -22446685       1292.2488      1292.2488      1292.2488      1853.8756      3146.1244      1853.8756      3146.1244      1853.8756      3146.1244      2.1579354e+09  0.5            6676100        3.5236887      5803.7042      11607.379      4.8262871    
  13347400   161239.07      9.5474413     -22919698       0.27855335     480142.42     -22439556       1292.2488      1292.2488      1292.2488      1853.8756      3146.1244      1853.8756      3146.1244      1853.8756      3146.1244      2.1579354e+09  0.5            6676200        3.5402203      6049.0322      12098.11       4.8093584    
  13347600   157679.89      9.7368033     -22912474       0.27855335     469543.8      -22442931       1292.2488      1292.2488      1292.2488      1853.8756      3146.1244      1853.8756      3146.1244      1853.8756      3146.1244      2.1579354e+09  0.5            6676300        3.5572509      5871.7624      11743.526      4.793106     
  13347800   151257.07      9.5164464     -22920285       0.27855335     450417.71     -22469867       1292.2488      1292.2488      1292.2488      1853.8756      3146.1244      1853.8756      3146.1244      1853.8756      3146.1244      2.1579354e+09  0.5            6676400        3.5738549      6022.6901      12045.38       4.7762759    
  13348000   157269.74      10.073271     -22926127       0.27855335     468322.42     -22457805       1292.2488      1292.2488      1292.2488      1853.8756      3146.1244      1853.8756      3146.1244      1853.8756      3146.1244      2.1579354e+09  0.5            6676500        3.5911312      5788.2701      11576.536      4.760339     
  13348200   164588.94      10.98412      -22924441       0.27855335     490117.76     -22434323       1292.2488      1292.2488      1292.2488      1853.8756      3146.1244      1853.8756      3146.1244      1853.8756      3146.1244      2.1579354e+09  0.5            6676600        3.6082261      5849.6684      11699.333      4.7441517    
  13348400   160649.77      11.038879     -22930082       0.27855335     478387.59     -22451695       1292.2488      1292.2488      1292.2488      1853.8756      3146.1244      1853.8756      3146.1244      1853.8756      3146.1244      2.1579354e+09  0.5            6676700        3.6248021      6032.8171      12065.627      4.7272791    
  13348600   156572.15      11.444035     -22920925       0.27855335     466245.14     -22454679       1292.2488      1292.2488      1292.2488      1853.8756      3146.1244      1853.8756      3146.1244      1853.8756      3146.1244      2.1579354e+09  0.5            6676800        3.6418784      5856.0675      11712.134      4.7110561    
  13348800   162298.08      12.140743     -22919140       0.27855335     483295.98     -22435844       1292.2488      1292.2488      1292.2488      1853.8756      3146.1244      1853.8756      3146.1244      1853.8756      3146.1244      2.1579354e+09  0.5            6676900        3.6584725      6026.2582      12052.551      4.6942067    
  13349000   169018.24      12.962918     -22924649       0.27855335     503307.45     -22421341       1292.2488      1292.2488      1292.2488      1853.8756      3146.1244      1853.8756      3146.1244      1853.8756      3146.1244      2.1579354e+09  0.5            6677000        3.6757117      5800.7325      11601.46       4.6781809    
  13349200   164562.65      13.293867     -22922749       0.27855335     490039.48     -22432710       1292.2488      1292.2488      1292.2488      1853.8756      3146.1244      1853.8756      3146.1244      1853.8756      3146.1244      2.1579354e+09  0.5            6677100        3.692482       5962.8987      11925.795      4.6615521    
  13349400   161429.38      13.395495     -22920865       0.27855335     480709.14     -22440155       1292.2488      1292.2488      1292.2488      1853.8756      3146.1244      1853.8756      3146.1244      1853.8756      3146.1244      2.1579354e+09  0.5            6677200        3.7096298      5831.6781      11663.297      4.6453947    
  13349600   163774.61      14.115074     -22926389       0.27855335     487692.81     -22438696       1292.2488      1292.2488      1292.2488      1853.8756      3146.1244      1853.8756      3146.1244      1853.8756      3146.1244      2.1579354e+09  0.5            6677300        3.7262365      6021.6431      12043.322      4.6285562    
[...]
  13994400   308.15901      1.6119965     -24330108       0.28810026     917.6449      -24329191       1277.8142      1277.8142      1277.8142      1861.0929      3138.9071      1861.0929      3138.9071      1861.0929      3138.9071      2.0864269e+09  0.5            6999700        32.162603      4525.5504      9051.0737      1.178036     
  13994600   308.04006      1.2991145     -24330209       0.28809077     917.29071     -24329292       1277.8283      1277.8283      1277.8283      1861.0859      3138.9141      1861.0859      3138.9141      1861.0859      3138.9141      2.0864957e+09  0.5            6999800        32.184698      4526.0839      9052.2002      1.1558041    
  13994800   308.13882      0.86851803    -24330310       0.28807688     917.58479     -24329393       1277.8488      1277.8488      1277.8488      1861.0756      3138.9244      1861.0756      3138.9244      1861.0756      3138.9244      2.0865963e+09  0.5            6999900        32.206804      4523.6655      9047.3236      1.1335729    
  13995000   308.1875       0.60924687    -24330411       0.28806958     917.72974     -24329493       1277.8596      1277.8596      1277.8596      1861.0702      3138.9298      1861.0702      3138.9298      1861.0702      3138.9298      2.0866491e+09  0.5            7000000        32.230911      4148.0471      8296.0884      1.1114108    
  13995200   308.05342      0.76684203    -24330509       0.28807955     917.33047     -24329592       1277.8449      1277.8449      1277.8449      1861.0776      3138.9224      1861.0776      3138.9224      1861.0776      3138.9224      2.0865769e+09  0.5            7000100        32.253103      4506.1951      9012.4098      1.0891814    
  13995400   308.05758      1.1662488     -24330606       0.28809975     917.34287     -24329688       1277.815       1277.815       1277.815       1861.0925      3138.9075      1861.0925      3138.9075      1861.0925      3138.9075      2.0864306e+09  0.5            7000200        32.275215      4522.4092      9044.8061      1.0669493    
  13995600   308.04997      1.3554335     -24330703       0.2881105      917.32019     -24329786       1277.7991      1277.7991      1277.7991      1861.1004      3138.8996      1861.1004      3138.8996      1861.1004      3138.8996      2.0863528e+09  0.5            7000300        32.297296      4528.8641      9057.7298      1.0447164    
  13995800   307.82827      1.1405056     -24330802       0.28810425     916.66001     -24329885       1277.8083      1277.8083      1277.8083      1861.0958      3138.9042      1861.0958      3138.9042      1861.0958      3138.9042      2.086398e+09   0.5            7000400        32.319425      4518.8804      9037.7597      1.0224853    
  13996000   307.81854      0.8821788     -24330900       0.28809726     916.63105     -24329983       1277.8187      1277.8187      1277.8187      1861.0907      3138.9093      1861.0907      3138.9093      1861.0907      3138.9093      2.0864486e+09  0.5            7000500        32.341677      4494.0479      8988.1011      1.0002581    
  13996200   308.11532      0.72766587    -24330998       0.28809536     917.5148      -24330080       1277.8215      1277.8215      1277.8215      1861.0893      3138.9107      1861.0893      3138.9107      1861.0893      3138.9107      2.0864624e+09  0.5            7000600        32.363727      4535.1135      9070.2183      0.97802478   
  13996400   308.28412      0.62644463    -24331097       0.2880954      918.01747     -24330179       1277.8214      1277.8214      1277.8214      1861.0893      3138.9107      1861.0893      3138.9107      1861.0893      3138.9107      2.0864621e+09  0.5            7000700        32.385885      4513.0119      9026.0316      0.95579489   
  13996600   308.15085      0.6793889     -24331195       0.2881012      917.6206      -24330278       1277.8129      1277.8129      1277.8129      1861.0936      3138.9064      1861.0936      3138.9064      1861.0936      3138.9064      2.0864202e+09  0.5            7000800        32.408067      4508.0805      9016.1777      0.93356579   
  13996800   307.82075      1.0655335     -24331291       0.28812002     916.63764     -24330375       1277.785       1277.785       1277.785       1861.1075      3138.8925      1861.1075      3138.8925      1861.1075      3138.8925      2.0862838e+09  0.5            7000900        32.430351      4487.6942      8975.3651      0.91133959   
  13997000   307.61145      1.4290236     -24331385       0.28813833     916.01438     -24330469       1277.758       1277.758       1277.758       1861.121       3138.879       1861.121       3138.879       1861.121       3138.879       2.0861513e+09  0.5            7001000        32.452447      4525.6016      9051.2064      0.8891082    
  13997200   307.81504      1.4027717     -24331481       0.28814118     916.62062     -24330565       1277.7538      1277.7538      1277.7538      1861.1231      3138.8769      1861.1231      3138.8769      1861.1231      3138.8769      2.0861307e+09  0.5            7001100        32.474637      4506.5627      9013.1116      0.86687949   
  13997400   308.08662      0.99937095    -24331580       0.28812841     917.42933     -24330663       1277.7726      1277.7726      1277.7726      1861.1137      3138.8863      1861.1137      3138.8863      1861.1137      3138.8863      2.0862231e+09  0.5            7001200        32.496769      4518.2824      9036.5771      0.84464933   
  13997600   308.04803      0.41888309    -24331679       0.28810784     917.31444     -24330762       1277.803       1277.803       1277.803       1861.0985      3138.9015      1861.0985      3138.9015      1861.0985      3138.9015      2.086372e+09   0.5            7001300        32.518871      4524.6246      9049.2378      0.82241852   
  13997800   307.87144      0.60540631    -24331775       0.28811921     916.78858     -24330859       1277.7862      1277.7862      1277.7862      1861.1069      3138.8931      1861.1069      3138.8931      1861.1069      3138.8931      2.0862897e+09  0.5            7001400        32.541668      4386.5017      8773.0203      0.800205     
  13998000   307.87279      1.6896924     -24331866       0.28816821     916.7926      -24330949       1277.7138      1277.7138      1277.7138      1861.1431      3138.8569      1861.1431      3138.8569      1861.1431      3138.8569      2.085935e+09   0.5            7001500        32.563856      4506.8635      9013.7311      0.77797614   
  13998200   307.8784       1.4746078     -24331964       0.28816207     916.8093      -24331047       1277.7229      1277.7229      1277.7229      1861.1386      3138.8614      1861.1386      3138.8614      1861.1386      3138.8614      2.0859794e+09  0.5            7001600        32.585969      4522.2846      9044.5476      0.75574558   
  13998400   307.69749     -0.093979877   -24332065       0.28809913     916.2706      -24331149       1277.8159      1277.8159      1277.8159      1861.092       3138.908       1861.092       3138.908       1861.092       3138.908       2.0864351e+09  0.5            7001700        32.608102      4518.0513      9036.11        0.73351564   
  13998600   307.65636      0.94903287    -24332157       0.28814581     916.1481      -24331241       1277.7469      1277.7469      1277.7469      1861.1265      3138.8735      1861.1265      3138.8735      1861.1265      3138.8735      2.0860971e+09  0.5            7001800        32.630354      4494.1211      8988.2506      0.71128841   
  13998800   307.82648      2.2591715     -24332242       0.28820435     916.65468     -24331325       1277.6604      1277.6604      1277.6604      1861.1698      3138.8302      1861.1698      3138.8302      1861.1698      3138.8302      2.0856734e+09  0.5            7001900        32.652551      4504.9704      9009.9352      0.68906001   
  13999000   307.80812      0.48251175    -24332349       0.28813277     916.60003     -24331432       1277.7662      1277.7662      1277.7662      1861.1169      3138.8831      1861.1169      3138.8831      1861.1169      3138.8831      2.0861915e+09  0.5            7002000        32.67467       4520.9929      9041.9907      0.66683005   
  13999200   307.65018      0.26962781    -24332443       0.2881265      916.12971     -24331527       1277.7755      1277.7755      1277.7755      1861.1123      3138.8877      1861.1123      3138.8877      1861.1123      3138.8877      2.0862369e+09  0.5            7002100        32.696762      4526.6043      9053.2046      0.6445997    
  13999400   307.57887      1.7638362     -24332530       0.28819186     915.91734     -24331614       1277.6789      1277.6789      1277.6789      1861.1606      3138.8394      1861.1606      3138.8394      1861.1606      3138.8394      2.0857638e+09  0.5            7002200        32.718901      4516.8553      9033.7056      0.62237045   
  13999600   307.63457      1.2233521     -24332627       0.28817261     916.08321     -24331711       1277.7073      1277.7073      1277.7073      1861.1463      3138.8537      1861.1463      3138.8537      1861.1463      3138.8537      2.0859031e+09  0.5            7002300        32.741124      4499.8994      8999.8037      0.60014284   
  13999800   307.77504      0.59793778    -24332723       0.28815006     916.5015      -24331807       1277.7406      1277.7406      1277.7406      1861.1297      3138.8703      1861.1297      3138.8703      1861.1297      3138.8703      2.0860664e+09  0.5            7002400        32.763327      4503.7811      9007.5544      0.57791491   
  14000000   307.72727      0.84644638    -24332816       0.28816359     916.35926     -24331900       1277.7206      1277.7206      1277.7206      1861.1397      3138.8603      1861.1397      3138.8603      1861.1397      3138.8603      2.0859684e+09  0.5            7002500        32.787363      4160.5224      8321.0407      0.55571805   
  14000200   307.51097      1.3193532     -24332907       0.2881861      915.71516     -24331991       1277.6874      1277.6874      1277.6874      1861.1563      3138.8437      1861.1563      3138.8437      1861.1563      3138.8437      2.0858054e+09  0.5            7002600        32.809506      4516.0687      9032.1488      0.53348794   
  14000400   307.39417      1.0842724     -24333000       0.28817927     915.36734     -24332085       1277.6975      1277.6975      1277.6975      1861.1513      3138.8487      1861.1513      3138.8487      1861.1513      3138.8487      2.0858549e+09  0.5            7002700        32.831748      4495.9549      8991.913       0.51125949   
  14000600   307.5483       0.72375456    -24333094       0.28816796     915.82633     -24332178       1277.7142      1277.7142      1277.7142      1861.1429      3138.8571      1861.1429      3138.8571      1861.1429      3138.8571      2.0859368e+09  0.5            7002800        32.85386       4522.474       9044.9562      0.48902907   
  14000800   307.77812      0.79356646    -24333186       0.28817496     916.51068     -24332270       1277.7038      1277.7038      1277.7038      1861.1481      3138.8519      1861.1481      3138.8519      1861.1481      3138.8519      2.0858861e+09  0.5            7002900        32.876051      4506.4061      9012.809       0.46679994   
  14001000   307.76637      1.1727209     -24333277       0.28819436     916.4757      -24332361       1277.6752      1277.6752      1277.6752      1861.1624      3138.8376      1861.1624      3138.8376      1861.1624      3138.8376      2.0857457e+09  0.5            7003000        32.898202      4514.4754      9028.9463      0.44457032   
  14001200   307.57546      1.2839438     -24333370       0.28820189     915.9072      -24332454       1277.664       1277.664       1277.664       1861.168       3138.832       1861.168       3138.832       1861.168       3138.832       2.0856912e+09  0.5            7003100        32.920291      4526.9799      9053.9558      0.42234003   
  14001400   307.42393      0.9592746     -24333464       0.28819087     915.45598     -24332548       1277.6803      1277.6803      1277.6803      1861.1598      3138.8402      1861.1598      3138.8402      1861.1598      3138.8402      2.085771e+09   0.5            7003200        32.942552      4492.2831      8984.5605      0.40011199   
  14001600   307.42213      0.68568125    -24333557       0.28818222     915.4506      -24332641       1277.6931      1277.6931      1277.6931      1861.1534      3138.8466      1861.1534      3138.8466      1861.1534      3138.8466      2.0858336e+09  0.5            7003300        32.964712      4512.6678      9025.3481      0.37788276   
  14001800   307.48958      0.69151193    -24333648       0.28818551     915.65145     -24332732       1277.6882      1277.6882      1277.6882      1861.1559      3138.8441      1861.1559      3138.8441      1861.1559      3138.8441      2.0858097e+09  0.5            7003400        32.986789      4529.4733      9058.9462      0.35565274   
  14002000   307.48703      0.93155552    -24333738       0.28819872     915.64387     -24332822       1277.6687      1277.6687      1277.6687      1861.1656      3138.8344      1861.1656      3138.8344      1861.1656      3138.8344      2.0857141e+09  0.5            7003500        33.008805      4542.3061      9084.6205      0.33342229   
  14002200   307.51447      1.251279      -24333827       0.28821559     915.72557     -24332912       1277.6438      1277.6438      1277.6438      1861.1781      3138.8219      1861.1781      3138.8219      1861.1781      3138.8219      2.0855921e+09  0.5            7003600        33.032475      4224.6748      8449.3364      0.31120773   
  14002400   307.59611      1.4884169     -24333917       0.28822887     915.9687      -24333002       1277.6242      1277.6242      1277.6242      1861.1879      3138.8121      1861.1879      3138.8121      1861.1879      3138.8121      2.085496e+09   0.5            7003700        33.055041      4431.4163      8862.8436      0.28898155   
  14002600   307.57039      1.3517609     -24334010       0.28822586     915.8921      -24333094       1277.6286      1277.6286      1277.6286      1861.1857      3138.8143      1861.1857      3138.8143      1861.1857      3138.8143      2.0855178e+09  0.5            7003800        33.07704       4545.724       9091.4046      0.26675034   
  14002800   307.4432       0.70942199    -24334105       0.28820133     915.51334     -24333189       1277.6649      1277.6649      1277.6649      1861.1676      3138.8324      1861.1676      3138.8324      1861.1676      3138.8324      2.0856952e+09  0.5            7003900        33.099095      4534.0378      9068.1114      0.24451986   
  14003000   307.33868      0.28769178    -24334197       0.28818595     915.2021      -24333282       1277.6876      1277.6876      1277.6876      1861.1562      3138.8438      1861.1562      3138.8438      1861.1562      3138.8438      2.0858065e+09  0.5            7004000        33.121229      4518.0875      9036.1725      0.22229014   
  14003200   307.32299      1.0202061     -24334285       0.288219       915.15538     -24333370       1277.6387      1277.6387      1277.6387      1861.1806      3138.8194      1861.1806      3138.8194      1861.1806      3138.8194      2.0855674e+09  0.5            7004100        33.143461      4497.9691      8995.9321      0.20006115   
  14003400   307.39954      1.8521621     -24334369       0.28825706     915.38334     -24333454       1277.5825      1277.5825      1277.5825      1861.2087      3138.7913      1861.2087      3138.7913      1861.2087      3138.7913      2.085292e+09   0.5            7004200        33.165581      4520.7172      9041.4335      0.17783155   
  14003600   307.52067      1.6006239     -24334461       0.28824997     915.74404     -24333545       1277.593       1277.593       1277.593       1861.2035      3138.7965      1861.2035      3138.7965      1861.2035      3138.7965      2.0853433e+09  0.5            7004300        33.187657      4529.9297      9059.872       0.15560188   
  14003800   307.55072      0.54442483    -24334558       0.28820906     915.83354     -24333642       1277.6534      1277.6534      1277.6534      1861.1733      3138.8267      1861.1733      3138.8267      1861.1733      3138.8267      2.0856393e+09  0.5            7004400        33.209771      4522.0085      9044.0212      0.13337258   
  14004000   307.46336      0.051398449   -24334649       0.28819171     915.57339     -24333734       1277.6791      1277.6791      1277.6791      1861.1605      3138.8395      1861.1605      3138.8395      1861.1605      3138.8395      2.0857649e+09  0.5            7004500        33.232045      4489.4229      8978.8377      0.11114397   
  14004200   307.3564       1.1140474     -24334737       0.28823918     915.25489     -24333822       1277.6089      1277.6089      1277.6089      1861.1955      3138.8045      1861.1955      3138.8045      1861.1955      3138.8045      2.0854214e+09  0.5            7004600        33.254134      4527.2915      9054.576       0.088914801  
  14004400   307.30198      1.8783161     -24334821       0.28827456     915.09283     -24333906       1277.5567      1277.5567      1277.5567      1861.2217      3138.7783      1861.2217      3138.7783      1861.2217      3138.7783      2.0851654e+09  0.5            7004700        33.276295      4512.402       9024.8154      0.066685966  
  14004600   307.41658      1.1951009     -24334916       0.28824963     915.43407     -24334001       1277.5935      1277.5935      1277.5935      1861.2033      3138.7967      1861.2033      3138.7967      1861.2033      3138.7967      2.0853458e+09  0.5            7004800        33.298323      4539.6094      9079.2192      0.044457043  
  14004800   307.55731      0.37056485    -24335010       0.28821877     915.85315     -24334094       1277.6391      1277.6391      1277.6391      1861.1805      3138.8195      1861.1805      3138.8195      1861.1805      3138.8195      2.085569e+09   0.5            7004900        33.320319      4546.3493      9092.6999      0.022228366  
  14005000   307.50156      0.75347151    -24335100       0.28823785     915.68715     -24334184       1277.6109      1277.6109      1277.6109      1861.1946      3138.8054      1861.1946      3138.8054      1861.1946      3138.8054      2.085431e+09   0.5            7005000        33.34437       4157.7711      8315.5177      0            
Loop time of 33.3444 on 1 procs for 300000 steps with 1000 atoms

Performance: 388.671 ns/day, 0.062 hours/ns, 8997.018 timesteps/s
99.3% CPU use with 1 MPI tasks x 1 OpenMP threads

MPI task timing breakdown:
Section |  min time  |  avg time  |  max time  |%varavg| %total
---------------------------------------------------------------
Pair    | 21.008     | 21.008     | 21.008     |   0.0 | 63.00
Neigh   | 0.049952   | 0.049952   | 0.049952   |   0.0 |  0.15
Comm    | 1.1618     | 1.1618     | 1.1618     |   0.0 |  3.48
Output  | 0.19114    | 0.19114    | 0.19114    |   0.0 |  0.57
Modify  | 9.9124     | 9.9124     | 9.9124     |   0.0 | 29.73
Other   |            | 1.021      |            |       |  3.06

Nlocal:           1000 ave        1000 max        1000 min
Histogram: 1 0 0 0 0 0 0 0 0 0
Nghost:            938 ave         938 max         938 min
Histogram: 1 0 0 0 0 0 0 0 0 0
Neighs:           3041 ave        3041 max        3041 min
Histogram: 1 0 0 0 0 0 0 0 0 0

Total # of neighbors = 3041
Ave neighs/atom = 3.041
Neighbor list builds = 114
Dangerous builds = 25

# run_style
run_style verlet

# write restart
write_restart ${write_res}
write_restart ./pgnpmf/300700/equpmf20.res
System init for write_restart ...
Generated 0 of 1 mixed pair_coeff terms from geometric mixing rule

Total wall time: 0:01:07
