ITEM: TIMESTEP
50200000
ITEM: NUMBER OF ATOMS
1000
ITEM: BOX BOUNDS pp pp pp
2.1292080560286581e+03 2.8707919439714829e+03
2.1292080560286581e+03 2.8707919439714829e+03
2.1292080560286581e+03 2.8707919439714829e+03
ITEM: ATOMS type x y z ix iy iz c_vor[1] c_vor[2]
1 2813.85 2437.84 2175.37 -1 0 2 294113 10
1 2665.62 2799.96 2579.08 -1 -1 -1 318029 11
1 2722.3 2388.45 2570.73 -1 0 -2 226620 14
1 2341.14 2310.82 2264.4 0 0 0 269963 11
1 2771.75 2307.3 2547.15 0 -1 -1 210887 11
1 2506.78 2615.85 2858.34 -1 -1 0 290379 11
1 2858.63 2340.48 2483.54 -1 -2 0 238545 9
1 2382.22 2288.57 2395.68 -1 0 -1 320392 12
1 2551.04 2495.93 2153.18 -1 0 1 284881 11
1 2827.5 2324.03 2555.7 -1 -1 0 252142 14
1 2173.8 2754.83 2470.32 0 -1 0 272021 11
1 2196.53 2384.6 2763.13 0 0 -1 232956 10
1 2356.28 2244.88 2597.88 0 0 -1 304988 12
1 2351.98 2861.1 2149.95 1 -1 0 264534 11
1 2560.33 2421.45 2568.93 0 -1 -1 264901 11
1 2734.24 2436.09 2828.38 0 0 0 302974 10
1 2344.3 2157.25 2185.13 1 0 0 267352 11
1 2283.48 2354.68 2638.12 2 -1 -1 271397 11
1 2692.25 2698.33 2569.88 -1 0 -1 325464 11
1 2272.37 2842.97 2854.02 1 -1 -1 265351 10
1 2857.68 2449.4 2667.61 0 0 0 231956 12
1 2780.76 2459.25 2361.24 0 0 0 323933 10
1 2273.81 2840.85 2335.03 1 -1 0 296672 11
1 2839.42 2764.2 2581.53 0 0 -1 305678 11
1 2626.95 2482.58 2134.46 0 0 -1 295963 15
1 2534.67 2180.75 2476.94 -2 1 0 302338 12
1 2769.71 2473.29 2731.54 -1 0 -1 298166 12
1 2765.34 2320.09 2600.21 -1 1 -1 234569 12
1 2335.36 2642.08 2427.81 0 0 0 318320 11
1 2723.5 2199.35 2478.08 -2 2 -1 277722 10
1 2144.8 2348.45 2637.78 0 2 0 268035 11
1 2661.14 2449.38 2641.09 0 0 0 314053 12
1 2164.4 2398.19 2724.6 1 2 0 218238 11
1 2452.35 2734.28 2562.66 0 0 0 295255 10
1 2502.79 2559.33 2675.49 1 0 -1 281613 11
1 2681.29 2608.59 2499.04 -1 0 0 257121 12
1 2170.22 2360.61 2590.95 0 0 0 261647 14
1 2344.69 2359.71 2287.06 -1 1 0 259835 10
1 2136.54 2835.57 2214.25 0 -1 1 286184 10
1 2624.85 2585.77 2558.35 -1 0 0 279126 11
1 2420.19 2464.36 2702.33 0 0 0 306218 12
1 2824.2 2784.44 2137.92 -1 -1 1 295637 11
1 2210.89 2269.62 2510.88 0 1 0 271193 11
1 2641.34 2569.38 2474.06 0 -1 0 333381 13
1 2820.09 2439.39 2705.18 0 0 0 232100 10
1 2635.72 2360.79 2358.93 -2 -1 2 251522 12
1 2555.08 2859.26 2245.41 -1 -1 1 280074 10
1 2298.29 2376.39 2452.05 1 0 1 301214 11
1 2244.26 2687.43 2804.49 0 -1 0 288393 10
1 2188.96 2734.83 2517.38 0 -2 0 266580 10
1 2187.13 2230.41 2599.78 -1 1 0 262256 11
1 2340.58 2663.4 2196.42 0 0 0 315634 12
1 2734.66 2283.53 2579.38 0 1 -2 255195 11
1 2575.94 2721.04 2711.4 0 1 -1 326307 11
1 2719.27 2452.53 2458.87 -1 0 0 313746 11
1 2338.14 2173.27 2799.79 2 1 -1 311344 12
1 2487.51 2216.31 2235.88 0 1 0 302957 11
1 2267.07 2385.66 2760.06 2 0 -1 255391 11
1 2664.95 2405.26 2349.1 0 0 0 263526 10
1 2621.24 2272.89 2510.41 1 -1 -1 285368 9
1 2670.41 2493.65 2728.47 0 0 -2 277190 11
1 2657.87 2355.98 2557.03 0 0 0 271044 11
1 2167.46 2357.09 2478.81 1 1 0 271703 13
1 2603.9 2400.23 2476.15 0 -1 1 266649 12
1 2554.07 2572.95 2638 0 0 0 276037 12
1 2768.57 2385.27 2596.55 1 0 0 270694 13
1 2426.35 2166.49 2512.66 1 0 1 287928 10
1 2243.19 2348.84 2729.23 1 0 -1 265358 12
1 2453.33 2481.9 2526.46 0 0 0 262855 11
1 2268.13 2776.18 2649.97 2 1 0 244505 9
1 2367.69 2538.76 2389.73 1 -1 0 296558 11
1 2582.34 2439.58 2445.53 0 -1 0 281801 11
1 2808.46 2160.32 2866.76 0 -1 1 319710 12
1 2673.4 2389.27 2518.58 0 0 0 236166 11
1 2596.06 2559.1 2843.31 0 0 0 297326 13
1 2608.63 2405.52 2550.66 0 1 0 280737 14
1 2515.56 2132.98 2303.47 -1 0 1 290304 10
1 2741 2438.28 2575.93 -1 1 0 256451 12
1 2493.37 2424.2 2351.23 -2 1 0 259956 9
1 2736.4 2603.98 2522.01 -1 1 0 267621 9
1 2299.43 2411.29 2619.43 1 0 0 268699 10
1 2238.64 2745.62 2615.74 0 0 0 273902 12
1 2695.74 2461.35 2211.4 -1 0 1 300113 13
1 2146.7 2160.32 2716.36 3 0 1 296404 11
1 2597.04 2359.32 2280.86 -1 1 1 298441 14
1 2402.5 2382.08 2596.7 0 1 0 337298 10
1 2481.47 2522.07 2546.21 0 2 0 273754 12
1 2476.39 2787.62 2706.62 -1 0 1 294585 12
1 2778.88 2750.67 2523.52 0 1 0 324728 14
1 2760.82 2297.55 2494.71 0 0 1 254960 10
1 2529.54 2386.79 2336.87 0 0 0 267179 12
1 2202.51 2272.62 2571.75 1 0 1 230509 12
1 2699.04 2290.1 2397.96 1 1 0 359411 15
1 2131.85 2438.73 2716.25 1 0 0 192547 9
1 2592.61 2283.68 2390.04 0 0 0 318084 13
1 2613.32 2624.67 2634.1 0 0 0 313002 12
1 2584.98 2552.85 2544.84 1 0 0 254795 12
1 2869.35 2307.92 2525.08 0 1 1 227957 13
1 2267.3 2195.55 2347.61 1 1 1 302765 12
1 2178.51 2426.02 2665.88 1 0 0 283330 13
2 2129.23 2321.87 2346.88 0 0 0 488364 14
2 2516.81 2833.47 2358.91 0 -1 0 413643 15
2 2438.35 2805.18 2351.57 0 -1 0 432683 13
2 2461.44 2693.91 2174.83 0 -1 0 420244 14
2 2387.99 2867.52 2372.94 0 -1 0 421997 15
2 2239.88 2795.15 2146.64 0 -1 0 402438 14
2 2157.53 2203.46 2281.61 0 0 0 443477 14
2 2414.23 2341.88 2363.52 0 0 0 396680 14
2 2293.25 2706.53 2846.08 0 -1 -1 410461 15
2 2399.68 2819.78 2863.07 0 -1 -1 432775 15
2 2448.01 2864.13 2296.59 0 -1 0 403077 14
2 2798.44 2641.78 2616.9 -1 -1 -1 427429 13
2 2724.53 2843.96 2332.77 0 0 0 418198 14
2 2385.69 2601.82 2178.64 0 0 0 450492 16
2 2291.96 2246.71 2138.91 0 0 0 449711 15
2 2467.83 2835.65 2656.8 0 -1 -1 442896 16
2 2204.28 2812.65 2738.04 0 -1 -1 454523 16
2 2595.52 2819.47 2709.59 -1 -1 0 432762 13
2 2180.32 2309.57 2190.63 0 0 0 415465 13
2 2275.57 2281.63 2364.8 0 0 0 450554 16
2 2327.73 2497.39 2238.1 0 -1 0 426734 14
2 2282.94 2631.6 2212.37 0 -1 0 401935 13
2 2862.32 2226.87 2618.67 -1 0 -1 413980 14
2 2218.85 2591.79 2262.15 0 0 0 428372 14
2 2417.45 2634.66 2770.23 0 -1 -1 423253 13
2 2354.87 2764.08 2244.27 0 -1 0 422755 14
2 2386.31 2679.76 2149.7 0 -1 0 406726 14
2 2467.79 2333.3 2228.7 0 0 0 440900 15
2 2706.35 2514.14 2253.66 -1 0 0 388448 14
2 2259.8 2670.54 2742.75 0 -1 -1 392043 13
2 2332.92 2853.89 2828.16 0 -1 -1 343964 14
2 2773.52 2674.93 2734.3 -1 -1 -1 415066 13
2 2869.11 2227.23 2435.21 -1 0 0 424762 14
2 2178.21 2672.01 2800.69 0 -1 -1 449473 15
2 2159.11 2812.88 2154.31 0 -1 0 390814 14
2 2393.54 2786.38 2706.41 0 -1 -1 451769 15
2 2828.39 2161.89 2556.45 -2 0 -1 453741 14
2 2248.93 2857.25 2792.58 0 -1 -1 409157 15
2 2373.21 2499.13 2563.97 0 0 0 418011 15
2 2830.12 2567.05 2625.7 -1 0 -1 439485 14
2 2445.42 2739.76 2847.55 0 -1 -1 488055 16
2 2452.97 2314.74 2732.65 0 0 -1 456443 15
2 2211.32 2288.2 2730.5 0 0 -1 410817 15
2 2250.95 2248.31 2615.21 0 0 -1 364906 14
2 2444.47 2260.85 2266.1 0 0 0 399705 13
2 2330.27 2169.51 2411.97 0 0 0 408809 14
2 2684.42 2143.5 2480.37 0 0 0 414327 15
2 2762.88 2550.77 2490.99 -1 0 0 405839 16
2 2376.1 2799 2785.23 0 -1 -1 483046 15
2 2338.94 2228.37 2354.05 0 0 0 421963 16
2 2235.56 2646.84 2855.44 0 -1 -1 394609 13
2 2318.83 2846.95 2748.87 0 -1 -1 476155 17
2 2321.56 2802.11 2147.92 0 -1 0 385558 14
2 2539.18 2620.34 2246.33 0 -1 0 430836 13
2 2293.04 2196.46 2202.98 0 0 0 400108 14
2 2318.19 2151.2 2332.9 0 0 0 371496 13
2 2232.9 2743.67 2771.16 0 -1 -1 406122 15
2 2867.36 2376.11 2540.65 -1 1 -1 340091 15
2 2548.24 2215.92 2421.82 0 0 0 399359 16
2 2770.15 2708.54 2576.26 0 -1 0 411158 15
2 2314.44 2726.38 2768.77 0 -1 -1 448988 16
2 2296.3 2567.49 2264.21 0 0 0 420954 13
2 2279.28 2186.96 2768.73 0 0 -1 412508 13
2 2279.19 2864.01 2265.63 0 -1 0 425362 15
2 2307 2360.05 2232.56 0 0 0 392809 14
2 2473.29 2182.69 2170.8 0 0 0 442971 15
2 2596.45 2411.22 2828.2 0 0 -1 418882 13
2 2847.36 2680.15 2691.37 -1 -1 -1 443714 14
2 2330.21 2802.54 2655.35 0 -1 -1 410463 14
2 2373.13 2264.26 2132.49 0 0 0 483625 17
2 2481.13 2233.43 2378.43 0 0 0 418120 13
2 2224.36 2709.99 2396.1 0 0 0 453038 15
2 2598.77 2293.41 2286.57 -1 0 0 407780 15
2 2285.11 2786.26 2817.92 0 -1 -1 443325 15
2 2356.63 2578.65 2765.01 0 -1 -1 422377 14
2 2462.81 2415.39 2238.36 0 0 0 436087 15
2 2618.24 2638.27 2231.2 -1 -1 0 445073 14
2 2679.05 2787.48 2208.34 -1 -1 0 455840 14
2 2368.56 2839.37 2296.48 0 -1 0 456980 16
2 2394 2536.3 2634.49 0 -1 -1 437960 14
2 2213.94 2727.91 2849.67 0 -1 -1 403137 14
2 2279.86 2595.1 2717.99 0 -1 -1 426269 14
2 2361.24 2775.29 2345.78 0 -1 0 439937 14
2 2420.71 2752.73 2290.59 0 -1 0 438491 15
2 2402.37 2697.02 2232.52 0 -1 0 423038 15
2 2295.91 2624.63 2801.6 0 -1 -1 421912 15
2 2484.61 2219.65 2839.64 0 0 -1 456180 15
2 2351.72 2637.88 2258.26 0 -1 0 422812 15
2 2783.22 2814.83 2760.79 -1 -1 -1 425586 13
2 2279.99 2170.51 2849.84 0 0 -1 399422 16
2 2533.15 2343.46 2277.78 -1 0 0 381902 14
2 2360.54 2182.33 2863.88 0 0 -1 394059 15
2 2349.68 2167.89 2258.26 0 0 0 409139 15
2 2152.05 2229.04 2865.28 0 0 -1 421103 14
2 2409.59 2498.47 2841.84 0 0 0 438820 14
2 2436.58 2403.14 2728.35 -1 0 -1 404937 14
2 2247.72 2549.5 2418.03 0 -1 0 432210 14
2 2299.86 2375.94 2701.29 0 0 -1 370312 14
2 2184.04 2698.07 2722.17 0 -1 -1 470013 17
2 2253.47 2716.59 2675.92 0 -1 -1 380403 14
2 2133.4 2149.4 2851.65 0 0 -1 408290 14
2 2755.72 2328.94 2435.98 -1 0 0 401725 15
2 2708.07 2591.31 2439.47 0 0 0 410867 14
2 2445.26 2292.57 2421.21 0 0 0 421620 14
2 2360.77 2469.58 2331.53 0 -1 0 466717 16
2 2265.36 2572.15 2858.4 0 -1 -1 450953 14
2 2418.37 2596.42 2351.31 0 -1 0 452347 17
2 2584.54 2682.1 2606.35 -1 -1 -1 406228 12
2 2356.4 2591.07 2685.13 0 -1 -1 446719 15
2 2304.71 2653.22 2664.59 0 -1 -1 427026 14
2 2182.39 2211.41 2740.4 0 0 -1 411484 15
2 2222.93 2640.34 2676.71 0 0 -2 419896 14
2 2240.83 2290.47 2439.53 0 0 0 420141 17
2 2501.67 2774.11 2535.64 0 -1 0 411822 14
2 2522.68 2568.43 2522.85 1 0 -1 375456 14
2 2622.3 2728.49 2664.38 0 -1 0 436052 15
2 2211.28 2869.55 2865.44 1 -1 -1 396939 13
2 2579.06 2335.82 2803.51 0 0 -1 463239 15
2 2515.2 2735.49 2731.12 0 -1 -1 354742 12
2 2184.61 2684.99 2561.4 1 0 -1 388242 15
2 2657.66 2155.05 2328.94 0 0 0 427256 15
2 2444.55 2175.95 2695.17 0 0 -1 451446 16
2 2433.98 2317.88 2140.99 0 0 0 453943 14
2 2785.76 2725.09 2225.57 0 -1 0 433641 13
2 2853.11 2756.62 2193.44 0 -1 0 391376 15
2 2569.69 2490.06 2735.49 1 -1 0 450586 17
2 2818.56 2283.67 2399.62 0 0 0 428365 13
2 2166.52 2762.54 2589.22 1 0 0 384539 15
2 2858.87 2156.04 2335.38 0 0 0 437556 14
2 2481.91 2624.28 2568.05 0 -1 -1 399412 13
2 2541.14 2307.14 2201.79 0 0 0 445670 15
2 2517.01 2757.71 2811.43 0 -1 -1 411449 12
2 2344.47 2308.1 2331.84 0 0 0 370988 14
2 2596.14 2559.34 2247.4 0 -1 0 416875 14
2 2784.59 2315.51 2231.11 0 0 0 425445 14
2 2155.12 2388.09 2818.02 0 0 -1 431894 16
2 2486.03 2662.17 2711.78 0 -1 0 450962 16
2 2656.85 2793.9 2422.3 0 0 0 450121 15
2 2859.79 2238.87 2344.23 0 0 0 453377 15
2 2336.51 2726.55 2688.89 0 -1 -1 446543 15
2 2539.5 2808.74 2203.91 0 -1 0 381175 12
2 2408.63 2134.22 2181.2 0 0 0 399419 13
2 2364.17 2747.25 2847.16 0 -1 -1 435779 14
2 2483.95 2162.18 2779.25 0 0 -1 440232 14
2 2540.55 2683.73 2192.95 0 -1 0 444629 16
2 2450.6 2686.81 2613.26 1 -1 -1 418280 15
2 2471.55 2386.32 2161.34 0 0 0 449440 15
2 2242.51 2165.49 2611.55 0 0 -1 470981 16
2 2475.96 2830.65 2154.59 0 -1 0 473825 15
2 2614.48 2827.38 2173.34 0 -1 0 440274 16
2 2515.45 2698.71 2564.43 0 -1 -1 421157 15
2 2600.86 2159.17 2708.08 0 0 -1 436782 13
2 2260.16 2321.56 2179.66 0 0 0 417967 14
2 2563.25 2137.68 2779.5 0 0 -1 468436 15
2 2517.44 2645.15 2498.17 0 -1 0 427275 13
2 2168.48 2545.8 2631.96 1 0 0 418493 14
2 2604.51 2869.61 2386.88 0 -1 0 420749 13
2 2590.47 2749.26 2183.62 0 -1 0 426583 13
2 2477.88 2766.03 2614.97 0 -1 -1 390529 14
2 2157.6 2846.96 2678.72 1 -1 -1 424328 14
2 2226.46 2147.36 2719.04 1 0 -1 428308 15
2 2641.37 2850.66 2768.66 0 -1 -1 486476 15
2 2570.63 2774.63 2321.4 0 -1 0 441525 14
2 2317.17 2274.08 2212.54 0 0 0 397661 13
2 2650.19 2341.62 2135.42 0 0 0 473907 15
2 2586.69 2489.49 2290.93 0 0 0 445079 14
2 2607.1 2797.06 2250.66 0 -1 0 442209 15
2 2793.03 2868.33 2293.85 0 -1 0 442698 14
2 2686.87 2230.64 2315.3 0 0 0 450174 15
2 2557.24 2469.99 2214.43 0 0 -1 412008 16
2 2822.72 2241.71 2242.27 0 0 0 449177 14
2 2615.98 2340.49 2210.68 0 0 0 468461 17
2 2731.39 2179.42 2361.1 0 0 -1 418524 13
2 2285.32 2393.95 2145.29 0 0 0 443270 14
2 2519.93 2682.61 2854.6 0 -1 -1 410041 15
2 2158.36 2550.36 2773.38 1 -1 -1 480520 15
2 2489.36 2868.6 2226.89 0 -1 0 394612 15
2 2178.11 2191.15 2378.24 1 0 0 433042 14
2 2749.53 2259.4 2362.65 0 0 0 417195 16
2 2450.27 2487.31 2593.57 0 0 -1 387017 15
2 2730.5 2605.68 2737.68 0 -1 -1 428929 14
2 2656.15 2268.43 2173.97 0 0 0 433451 14
2 2220.75 2173.01 2235.61 1 0 0 427790 14
2 2526.37 2273.54 2790.28 0 0 -1 450115 14
2 2279.79 2782.66 2716.85 1 -1 -1 447625 15
2 2571.05 2335.42 2353.06 0 0 0 363958 16
2 2616.33 2208.62 2376.65 0 0 0 439541 14
2 2385.74 2181.37 2636.44 0 0 -1 458460 16
2 2512.08 2295.24 2867.17 0 0 -1 442010 14
2 2681.96 2533.61 2383.15 0 0 0 452894 14
2 2353.2 2303.62 2683.11 0 0 -1 430326 16
2 2608.15 2262.21 2783.48 0 0 -1 432577 13
2 2165.42 2171.15 2577.83 0 0 -1 402904 13
2 2209.14 2195.51 2816.77 1 0 -1 436766 15
2 2716.89 2323.69 2183.94 0 0 1 432535 13
2 2280.24 2366.71 2572.05 0 0 -1 409061 16
2 2564.7 2207.98 2824.57 0 0 -1 444115 14
2 2727.68 2373.25 2250.39 0 0 0 425198 13
2 2307.34 2204.42 2575.07 0 0 -1 431905 15
2 2351.48 2707.44 2303.05 0 -1 0 420962 14
2 2168.61 2136.19 2777.07 1 0 -1 421989 15
2 2192.16 2329.29 2535.64 1 0 0 315009 14
2 2545.17 2209.62 2743.21 0 0 -1 449654 15
2 2422.09 2350.66 2666.69 0 0 -1 432694 13
2 2704.95 2190.76 2716.82 0 1 -1 447388 14
2 2396.4 2292.86 2208.65 0 0 0 403032 12
2 2309.74 2428.7 2277.61 0 0 0 406900 13
2 2845.96 2738.61 2366.3 0 0 0 410314 12
2 2471.65 2262.07 2188.59 0 0 0 444511 14
2 2140.5 2843.27 2540.13 1 -1 -1 409027 13
2 2569.33 2621.27 2832.6 0 -1 -1 379534 14
2 2401.73 2186.14 2319.52 0 0 0 421425 14
2 2149.49 2624.82 2736.21 1 -1 -1 446380 13
2 2405 2330.62 2281.69 0 0 0 389688 15
2 2679.16 2132.37 2190.44 0 0 0 436392 14
2 2393.91 2841.39 2621.42 0 -1 -1 434705 13
2 2769.38 2202.68 2596.94 0 0 -1 426210 14
2 2208.23 2365.17 2134.65 0 0 0 436074 14
2 2616.24 2675.84 2156.78 0 -1 0 444363 14
2 2602.6 2620.32 2757.03 0 -1 -1 421903 14
2 2824.38 2281.86 2480.64 0 0 0 365745 16
2 2557.99 2286.14 2636.77 0 0 -1 429348 14
2 2543.83 2183.76 2253.05 0 0 0 381436 16
2 2592.54 2244.9 2221.41 0 0 0 445299 15
2 2400.49 2373.48 2205.14 0 0 0 422222 14
2 2163.28 2291.98 2468.06 0 1 0 347133 15
2 2356.6 2577.86 2527.52 -1 0 0 435783 14
2 2252.3 2698.04 2174.84 0 0 0 436354 15
2 2824.35 2579.06 2222.57 -1 0 0 451388 15
2 2255.98 2424.05 2215.21 0 0 0 454057 15
2 2160.36 2549.29 2218 0 0 0 435043 13
2 2226.05 2622.76 2445.46 0 0 0 432070 14
2 2829.42 2750.37 2288.49 -1 0 0 420069 13
2 2806.08 2489.63 2133.45 -1 0 0 367932 13
2 2384.85 2484.31 2424.78 0 0 0 407593 14
2 2549.73 2427.97 2387.84 -1 1 0 375727 17
2 2211.56 2831.3 2216.83 0 0 0 420397 14
2 2327.77 2727.42 2176.71 0 0 0 395789 13
2 2195.07 2802.93 2820.23 0 0 -1 426487 15
2 2603.35 2613.3 2308.82 -1 0 0 443992 14
2 2258.94 2572.09 2338.18 0 0 0 450136 15
2 2194.61 2501.02 2828.29 0 0 -1 474284 16
2 2218.89 2239.35 2323.46 0 1 0 417636 14
2 2743.43 2831 2496.32 -1 0 0 410496 14
2 2342.4 2839.74 2217.05 0 0 0 392484 14
2 2785.54 2468.25 2797.6 -1 0 -1 373737 13
2 2229.51 2419.85 2714.68 0 0 -1 346834 15
2 2841.25 2674.25 2192.29 -1 0 0 421067 12
2 2318.66 2584.09 2397.49 0 0 0 375186 14
2 2466.38 2616.76 2417.21 0 0 0 442933 14
2 2830.18 2205.61 2168.16 -1 1 0 398581 13
2 2813.41 2818.82 2682.6 -1 0 -1 421991 13
2 2176.37 2729.1 2328.13 0 0 0 481128 15
2 2312.56 2389.93 2810.74 0 0 -1 417586 15
2 2724.4 2638.59 2580.07 0 0 -1 376193 15
2 2844.45 2672.27 2315.89 -1 0 0 490930 14
2 2148.9 2627.31 2237.63 0 0 0 442942 14
2 2463.75 2537.71 2436.06 0 0 0 448024 17
2 2146 2706.77 2252.17 0 0 0 445496 14
2 2751.1 2780.73 2274.82 -1 0 0 468996 15
2 2192.05 2748.44 2194.23 0 0 0 432084 14
2 2805.62 2429.17 2557.6 0 0 -1 413593 17
2 2390.32 2203.91 2556.53 0 0 0 390782 14
2 2285.3 2500.24 2309.95 0 0 0 406100 12
2 2201.13 2779.01 2661.9 0 -1 -1 420306 17
2 2233.41 2559 2498.84 0 0 0 452847 15
2 2300.16 2608.25 2476.1 0 0 0 419836 16
2 2859.67 2148.32 2417.99 -1 1 0 431597 14
2 2272.75 2485.34 2462.01 0 0 0 420620 14
2 2752.24 2559.53 2651.71 -1 0 -1 458093 14
2 2248.87 2659.29 2515.97 0 0 0 436480 15
2 2251.17 2783.8 2369.27 0 0 0 467732 16
2 2494.16 2340.35 2469.32 -1 1 -1 422278 15
2 2457.45 2432.35 2834.63 0 0 -1 434831 14
2 2218.8 2819.43 2302.35 0 0 0 419274 15
2 2798.49 2721.42 2142.03 -1 0 0 380630 13
2 2345.16 2635.47 2340.76 0 0 0 441509 15
2 2434.51 2361.96 2798.12 0 0 -1 427806 13
2 2599.12 2407.91 2327.17 -1 0 -1 356650 14
2 2217.69 2277.92 2865.29 0 1 -1 419532 14
2 2246.44 2504.91 2235.72 0 0 0 453343 15
2 2819.43 2814.12 2239.62 -1 0 0 409501 15
2 2821.11 2860.88 2484.59 -1 0 0 438098 15
2 2152.36 2243.02 2534.03 0 1 0 380315 17
2 2775.31 2816.59 2842.93 -2 0 -1 402038 15
2 2369.35 2682.82 2624.88 0 -1 0 430789 13
2 2136.57 2525.48 2140.32 0 0 0 436094 15
2 2227.59 2747.68 2267.81 0 0 0 427371 14
2 2672.67 2589.52 2624.08 -1 0 -1 407764 15
2 2181.49 2421.14 2484.44 0 0 0 390036 14
2 2413.24 2263.37 2341.63 0 1 0 389880 13
2 2565.26 2362.05 2434.42 0 0 0 383850 16
2 2144.1 2524.21 2384.07 0 0 0 466401 15
2 2554.31 2252.82 2343.98 0 0 0 403826 15
2 2859.7 2726.31 2444.9 -1 0 0 413203 15
2 2585.29 2529.6 2481.84 0 0 0 381527 15
2 2394.3 2581.86 2435.33 0 0 0 404650 15
2 2202.46 2522.69 2301.6 0 0 0 437876 14
2 2315.67 2521.56 2709.29 0 0 -1 472527 15
2 2688.82 2564.56 2548.33 0 0 0 370160 14
2 2280.24 2784.08 2216.83 0 0 0 434476 14
2 2133.38 2740.98 2858.25 0 0 -1 419073 15
2 2236.82 2424.42 2423.62 0 0 0 412669 14
2 2717.85 2411.73 2635.11 0 0 0 364575 15
2 2853.81 2822.38 2612.54 -1 -1 -1 399676 14
2 2423.15 2670.6 2310.09 0 0 0 439440 13
2 2208.45 2407.38 2559.34 0 0 -1 396980 15
2 2130.95 2604.62 2161.45 0 0 0 436911 13
2 2267.54 2460.33 2586.09 0 0 -1 396140 15
2 2776.65 2708.53 2660.09 -1 0 -1 431224 14
2 2295.38 2788.25 2297.72 0 0 0 421929 14
2 2654.3 2296.97 2345.72 -1 0 0 392450 16
2 2811.33 2589.7 2304.67 -1 0 0 436972 14
2 2583.83 2353.58 2675.78 0 1 -1 453690 13
2 2218.51 2670.82 2243.17 0 0 0 423213 14
2 2684.36 2206.43 2423.19 -1 0 0 433791 15
2 2847.56 2663.1 2851.46 -1 0 -1 506782 15
2 2473.94 2828.98 2813.78 0 0 -1 456585 15
2 2766.95 2493.29 2605.79 -1 0 -1 407606 13
2 2201.43 2567.02 2705 0 0 -1 426465 13
2 2389.53 2411.27 2277.98 0 0 0 423534 16
2 2170.93 2469.09 2233.99 0 0 0 464714 15
2 2630.32 2340.32 2498.1 -1 0 0 342064 15
2 2769.73 2646.29 2163.57 -1 0 0 481480 16
2 2391.18 2137.96 2777.77 0 0 -1 421153 14
2 2829.62 2854.43 2168.85 -1 0 0 394307 16
2 2537.97 2389.88 2209.59 0 1 0 436704 14
2 2155.49 2786.48 2257.06 0 0 0 386718 12
2 2627.61 2498.63 2674.04 -1 0 -1 374139 14
2 2718.81 2581.88 2149.86 -1 0 0 428371 13
2 2349.23 2552.79 2326.34 0 0 0 449407 16
2 2793.21 2650.02 2253.87 -1 0 0 462275 14
2 2695.38 2644.53 2200.04 -1 0 0 427252 13
2 2151.72 2749.06 2778.49 0 0 -1 456920 15
2 2161.52 2149.71 2185.91 0 1 0 403134 15
2 2702.71 2355.23 2377.1 0 0 0 360764 15
2 2767.35 2788.59 2177.65 -1 0 0 423919 14
2 2363.42 2247.46 2276.29 0 1 0 418417 15
2 2347.01 2463.12 2494.37 0 0 0 428814 15
2 2309.71 2501.19 2389.52 -1 -1 0 407759 15
2 2628.48 2408.5 2406.53 -1 0 1 355951 15
2 2514.78 2626.94 2643.9 0 -1 0 401540 15
2 2473.96 2185.03 2445.34 0 0 1 403867 15
2 2758.36 2200.99 2840.43 -1 0 0 438111 16
2 2844.32 2686.03 2772.59 -1 -1 -1 418934 12
2 2714.47 2159.92 2641.27 -1 0 0 414222 13
2 2863.36 2497.25 2477.95 -1 0 0 438814 15
2 2163.84 2565.28 2452.55 0 0 0 432003 14
2 2525.72 2261.77 2267.71 -1 0 1 402363 14
2 2527.36 2294.16 2410.07 -1 0 0 393770 13
2 2255.47 2140.65 2386.01 0 0 0 367657 14
2 2599.1 2257.52 2702.38 -1 0 0 444125 14
2 2623.63 2693.25 2295.6 -1 -1 0 475174 15
2 2533.38 2788.03 2670.08 -1 -1 0 419959 16
2 2783.61 2207.68 2762.26 -1 0 0 436903 14
2 2689.08 2289.27 2465.68 -1 0 1 382982 15
2 2864.06 2514.49 2283.88 -1 0 0 439175 13
2 2777.52 2197.46 2678.96 0 0 -1 437522 13
2 2462.91 2836.08 2423.06 0 -1 0 413175 12
2 2641.03 2601.13 2131.34 -1 -1 1 418943 14
2 2653.49 2526.91 2831.21 -1 0 -1 392555 15
2 2276.47 2423.2 2512.98 0 0 0 432850 15
2 2735.46 2514.83 2844.65 -1 0 0 434983 16
2 2629.44 2542.86 2753.81 -1 0 0 402970 15
2 2766.06 2184.57 2215.17 -1 0 1 439029 16
2 2619.12 2661.84 2373.44 0 0 1 434350 14
2 2723.4 2375.95 2860.86 -1 0 0 433691 14
2 2543.45 2171.3 2352.88 0 0 0 413277 15
2 2743.25 2587.3 2235.61 -1 0 0 437423 15
2 2729.9 2148.29 2782.26 -1 0 0 477283 15
2 2588.7 2399.03 2748.02 -1 0 0 440738 13
2 2604.33 2576.99 2682.74 0 -1 0 386778 15
2 2785.81 2620.13 2454.95 -1 0 0 415971 14
2 2546.27 2509.08 2658.01 0 0 0 400932 16
2 2315.03 2767.83 2438.36 0 -1 0 434002 14
2 2408.38 2521.42 2493.9 0 0 0 403040 14
2 2814.62 2669.59 2394.76 -1 0 0 432850 14
2 2692.97 2514.61 2463.07 -1 0 0 408440 15
2 2664.81 2775.95 2719.55 -1 -1 0 484068 16
2 2723.62 2716.18 2176.1 -1 -1 1 435983 15
2 2795.32 2355.76 2504.23 -1 0 1 371788 15
2 2241.28 2512.29 2659.5 0 0 0 434611 15
2 2802.09 2609.97 2693.19 -2 0 0 429293 14
2 2372.03 2200.89 2727.4 0 0 0 448124 16
2 2168.98 2267.46 2796.38 0 0 0 413909 13
2 2179.42 2271.66 2389.06 -1 0 0 442469 15
2 2719.35 2664.88 2500.78 -1 0 0 410841 16
2 2373.4 2215.96 2197.2 0 0 0 435045 14
2 2438.14 2476.13 2766.1 -1 0 -1 400325 14
2 2408.39 2213.49 2802.59 0 0 0 433552 13
2 2742.31 2778.76 2690.18 0 -1 0 434009 13
2 2730.73 2563.13 2313.81 -1 0 0 408197 13
2 2279.67 2594.83 2555.57 0 0 0 423126 13
2 2810.53 2452.71 2299.7 -1 0 0 429603 14
2 2235.78 2254.01 2220.79 0 1 0 444094 15
2 2179.81 2850.46 2368.77 0 0 0 457317 15
2 2828.72 2343.46 2809.91 -1 0 0 419836 13
2 2565.58 2860.37 2643.38 0 -1 0 425488 14
2 2613.73 2225.99 2585.72 0 0 0 428024 15
2 2783.43 2322.17 2132.76 -1 0 1 430791 14
2 2405.6 2757.74 2177.11 0 -1 1 454998 15
2 2652.85 2226.48 2843.41 -1 0 0 437112 14
2 2770.57 2737.17 2407.34 -1 0 0 430912 14
2 2841.27 2580.09 2504.4 -1 0 0 434407 14
2 2673.89 2435.25 2567.42 0 0 0 326586 14
2 2504.59 2317.2 2548.15 0 0 0 442062 13
2 2363.55 2325.54 2820.39 0 -1 0 441478 13
2 2819.27 2609.92 2774.24 -1 -1 0 500213 16
2 2441.76 2428.4 2650.23 0 0 0 395841 14
2 2714.29 2250.77 2634.84 -1 0 0 434034 17
2 2524.56 2242.98 2576.4 0 0 0 471751 15
2 2684.21 2553.05 2695.31 -1 -1 0 409655 14
2 2670.26 2438.55 2849.99 -1 0 0 404201 15
2 2747.63 2862.85 2704.94 -1 -1 0 465408 16
2 2800.05 2342.07 2733.8 -1 0 0 404059 14
2 2444.44 2605.66 2496.6 0 -1 0 455122 16
2 2297.95 2517.4 2534.1 0 -1 0 431202 15
2 2192.91 2840.09 2605.03 0 -1 0 442335 14
2 2151.21 2586.87 2308.13 0 0 0 454331 15
2 2587.31 2761.28 2767.04 -1 -1 0 440424 16
2 2280.59 2360.74 2312.51 0 0 1 405685 15
2 2867.46 2763.74 2518.62 -1 0 0 370024 16
2 2663.4 2387.89 2782.25 -1 -1 0 465238 16
2 2555.28 2715.14 2379.48 0 -1 0 441126 14
2 2379.42 2518.1 2175.8 0 0 1 441329 15
2 2464.01 2154.81 2369.33 0 0 0 407532 15
2 2303.82 2162.68 2693.11 0 0 0 451642 14
2 2862.29 2555.74 2699.79 -1 -1 0 423229 14
2 2592.18 2303.66 2563.4 -1 0 0 422575 15
2 2430.6 2182.26 2243.16 0 0 0 406457 15
2 2590.46 2833 2568.24 0 -1 0 438185 15
2 2173.89 2282.15 2268.48 0 0 1 480711 16
2 2582.25 2770.47 2515.05 0 -1 0 454325 14
2 2289.58 2796.62 2511.93 0 -1 0 411775 14
2 2671.6 2600 2796.77 -1 0 0 441700 16
2 2273.71 2479.92 2830.03 0 0 0 451372 14
2 2803.5 2371.91 2285.84 -1 0 1 446153 14
2 2709.53 2819.94 2628.04 0 -1 0 411523 14
2 2773.02 2676.83 2817.7 -1 -1 0 452989 15
2 2222.67 2324.49 2612.36 0 0 0 352978 15
2 2828.8 2468.67 2408.36 -1 0 0 404050 15
2 2581.15 2657.68 2685.51 -1 -1 0 391335 15
2 2141.49 2456.81 2546.16 0 0 0 407282 12
2 2764.21 2296.73 2795.65 -1 0 0 441570 14
2 2655.37 2429.53 2707.9 -1 0 0 416130 17
2 2767.24 2256.59 2179.43 -1 0 1 422265 13
2 2320.5 2721.63 2505.5 0 -1 0 444861 15
2 2616.79 2254.62 2445.13 0 0 0 370594 14
2 2543.24 2501.82 2567.22 -1 -1 1 381565 16
2 2803.42 2499.6 2678.57 -2 0 -1 372207 15
2 2319.31 2133.96 2617.68 0 0 -1 463199 14
2 2180 2699.91 2641.06 0 -1 -1 411654 14
2 2369.98 2357.16 2744.04 0 1 -1 439551 15
2 2581.03 2545.28 2351.95 0 0 0 472271 16
2 2508.93 2368.72 2830.63 0 0 -1 444958 13
2 2445.38 2547.28 2290.6 0 0 0 449867 14
2 2682.22 2439.32 2275.11 0 0 0 413791 15
2 2569.98 2658.57 2438.6 0 0 0 432415 14
2 2413.8 2423.24 2377.55 0 0 0 448131 15
2 2282.07 2237.9 2487.8 0 0 -1 410950 14
2 2466.26 2235.23 2747.92 0 1 -1 429468 14
2 2294.27 2448.1 2756.19 0 0 -1 419173 15
2 2446.74 2549.62 2208.01 0 0 0 418265 14
2 2263.54 2290.7 2546.67 0 0 -1 386171 15
2 2860.53 2202.09 2791.78 0 1 -1 429926 15
2 2311.99 2561.8 2183.71 1 0 0 453755 17
2 2702.83 2705 2700.21 0 0 0 422804 14
2 2533.83 2554.73 2866.58 0 0 -1 338179 14
2 2185.04 2581.66 2846.31 1 0 -1 491211 16
2 2784.47 2348.24 2362.31 0 0 0 422531 14
2 2636.41 2328.17 2417.67 0 0 0 351735 14
2 2720.52 2690.63 2264.38 0 0 0 456155 15
2 2491.3 2762.73 2398.57 0 0 0 438840 14
2 2143.29 2170.95 2496.2 0 1 0 416766 13
2 2528.78 2440.5 2790.23 0 0 -1 445367 16
2 2408.06 2485.61 2246.43 0 0 0 444722 15
2 2433.2 2556.01 2786.36 0 0 -1 421921 14
2 2382.56 2597.75 2838.82 0 0 -1 441514 15
2 2843.29 2286.84 2177.54 0 1 1 414250 13
2 2841.98 2417.78 2474.02 0 0 -1 418847 15
2 2168.23 2488.83 2691.12 0 0 -1 376292 16
2 2219.57 2446.23 2144.21 0 0 0 454309 15
2 2853.49 2218.74 2700.16 0 0 -1 430642 15
2 2702.11 2658.12 2859.27 -1 0 -1 461855 15
2 2709.03 2532.27 2770.13 0 0 -1 406950 14
2 2852.91 2382.48 2687.2 0 0 0 330875 16
2 2172.97 2676.89 2157.61 1 0 0 449713 15
2 2412.17 2225.99 2479.29 0 0 0 412269 14
2 2862.95 2338.11 2240.23 0 1 0 457676 14
2 2360.85 2673.16 2813.92 0 0 -1 434669 14
2 2341.56 2334.99 2160.96 0 0 0 438176 15
2 2544.94 2506.84 2414.88 0 0 0 430633 14
2 2812.87 2747.29 2724.42 0 0 -1 431826 14
2 2855.59 2815.45 2827.28 0 0 -1 407544 14
2 2207.58 2797.91 2526.04 1 0 0 402454 15
2 2288.14 2484.81 2167.98 1 0 0 424599 13
2 2683.31 2507.02 2609.48 0 0 0 430780 16
2 2612.72 2589.85 2414.49 0 0 0 448305 16
2 2449.55 2768.04 2766.15 0 0 -1 396733 14
2 2845.79 2419 2231.88 0 1 0 412932 14
2 2349.26 2370.83 2635.79 0 0 0 376500 16
2 2584.55 2687.98 2522.45 0 0 -1 441245 14
2 2447.13 2645.69 2849.13 0 0 -1 419891 14
2 2592.99 2279.42 2863.43 0 0 -1 461770 15
2 2516.09 2419.91 2461.88 0 0 -1 409772 15
2 2418.43 2447.23 2174.76 0 0 0 444192 14
2 2207.95 2397.72 2352.49 0 1 0 425033 14
2 2489.94 2506.65 2820.19 0 1 -1 423465 15
2 2847.54 2491.23 2748.14 0 0 -1 368868 14
2 2520.5 2486.5 2338.47 0 0 0 415911 16
2 2473.94 2758.97 2224.82 0 0 0 441458 14
2 2215.82 2526.4 2162.19 0 0 0 456434 15
2 2512.51 2752.42 2152.83 0 -1 0 422124 14
2 2330.19 2425.02 2419.92 1 0 0 436166 16
2 2527.99 2550.8 2289.17 0 0 0 430656 15
2 2528.32 2547.82 2205.5 0 0 0 401424 13
2 2535.78 2583.46 2443.65 0 0 0 431767 14
2 2754.23 2504.47 2406.1 0 0 0 406214 15
2 2474.17 2691.84 2786.84 0 0 -1 425970 13
2 2331.14 2847.56 2464.51 0 0 0 406002 14
2 2672.21 2759.79 2287.53 0 0 0 448502 14
2 2487.77 2616.6 2181.71 0 0 0 424160 14
2 2418.88 2816.44 2236.1 0 0 0 457935 14
2 2233.39 2500.03 2740.38 1 -1 -1 470924 15
2 2663.47 2670.29 2625.41 0 -1 -1 371797 13
2 2334.67 2532.17 2850.63 0 0 -1 436232 15
2 2774.91 2383.81 2185.9 -1 0 0 400716 14
2 2379.32 2860.67 2530.82 0 0 -1 424662 16
2 2517.82 2146.24 2851.85 0 0 -1 408541 12
2 2500.09 2433.93 2540.57 0 0 -1 395862 17
2 2220.34 2158.25 2315.28 1 1 0 381114 14
2 2339.5 2427.43 2198.09 1 0 0 448554 14
2 2393.49 2713.16 2748.49 0 0 -1 455041 14
2 2485.18 2617.77 2306.92 0 0 0 416901 13
2 2284.11 2682.25 2444.86 0 0 -1 408377 13
2 2498.87 2238.25 2673.26 0 1 -1 438872 14
2 2383.51 2423.45 2792.21 0 0 -1 418588 14
2 2160.38 2865.53 2271.28 1 0 0 395440 14
2 2802.96 2203.96 2393.36 0 0 -1 416662 12
2 2267.6 2644.37 2374.58 0 0 0 430908 15
2 2306.13 2734.57 2612.26 0 0 -1 402052 15
2 2616.12 2149.36 2240.6 0 1 0 419151 14
2 2339.54 2653.04 2737.68 0 0 -1 402969 12
2 2846.94 2400.29 2349.55 -1 1 0 444010 14
2 2178.83 2391.11 2207.11 0 0 0 430809 13
2 2576.48 2793.78 2399.38 0 0 0 425125 14
2 2488.79 2491.55 2249.58 0 0 0 424623 13
2 2484.02 2683.77 2255.07 0 0 0 424802 14
2 2803.82 2781.68 2469.08 0 0 0 392650 12
2 2746.09 2848.34 2228.74 0 0 0 434089 14
2 2651.08 2647.46 2546.17 0 -1 -1 369837 16
2 2681.99 2507.25 2163.27 1 -1 1 368373 13
2 2432.16 2621.22 2244.32 0 0 0 448304 16
2 2852.64 2368.68 2165.17 0 0 -1 438741 15
2 2731.21 2638.48 2661.7 -1 0 -1 420985 14
2 2284.91 2320.48 2844.39 0 0 -1 422928 15
2 2763.3 2271.34 2715.16 0 1 -1 447858 14
2 2741.95 2250.47 2258.35 0 1 1 437515 15
2 2569.52 2356.22 2142.15 0 0 0 421348 12
2 2551.59 2814.65 2861.76 0 0 -1 462249 15
2 2612.52 2174.33 2454.06 0 1 0 413303 14
2 2866.04 2636.12 2449.36 0 0 -1 431097 15
2 2837.15 2498.12 2208.37 0 0 0 409674 14
2 2690.17 2691.03 2342.21 0 0 1 413950 13
2 2841.2 2154.3 2646.92 0 0 0 440367 15
2 2603.4 2536.29 2167.12 0 0 1 353123 14
2 2280.95 2204.39 2282.77 1 0 1 409028 14
2 2666.6 2854.65 2689.2 0 -1 0 455925 16
2 2407.21 2656.25 2691.46 0 0 -1 436504 12
2 2586.08 2732.29 2844.85 0 -1 0 429693 14
2 2630.59 2696.3 2739.99 0 -1 0 383976 12
2 2469.49 2378.28 2592.12 0 0 0 403890 16
2 2673.22 2295.26 2250.25 0 0 1 458699 16
2 2433.59 2274.58 2541.47 0 0 0 467065 17
2 2400.8 2639.33 2562.42 0 -1 0 407388 13
2 2760.98 2388.22 2788.8 0 0 0 410908 15
2 2799.78 2426.41 2640.37 0 0 0 361242 15
2 2394.79 2387.28 2865.68 0 0 -1 428574 14
2 2495.71 2554.08 2609.28 0 -1 0 365402 16
2 2739.91 2243.25 2526.84 0 0 1 348056 15
2 2653.31 2711.83 2221.36 0 -1 1 444388 14
2 2523.99 2813.22 2750.34 0 -1 0 414511 13
2 2240.83 2747.61 2468.72 0 -1 0 396967 14
2 2661.33 2362.69 2296.65 0 0 1 370131 15
2 2604.36 2459.99 2603.35 0 0 0 366611 14
2 2663.83 2743.3 2797.01 0 -1 0 426756 15
2 2211.17 2320.19 2330.62 1 0 0 438607 13
2 2702.04 2672.76 2776.22 0 -1 0 426643 14
2 2490.07 2188.4 2526.5 0 0 0 415558 16
2 2557.93 2685.39 2781.02 0 -1 0 437475 15
2 2727.74 2316.18 2308.79 0 0 1 427909 14
2 2296.63 2324.64 2764.33 0 0 0 397704 15
2 2478.6 2304.26 2627.26 0 0 0 460406 14
2 2343.64 2183.62 2492.42 0 0 0 417556 14
2 2146.02 2314.74 2857.15 1 0 0 424525 14
2 2628.11 2326.77 2738.29 0 0 0 433699 13
2 2297.31 2131.59 2538.53 0 0 0 465221 16
2 2794.45 2270.63 2637.79 0 0 0 413008 14
2 2681.36 2148.7 2849.08 0 0 0 474705 16
2 2245.69 2222.38 2691.06 0 0 0 427709 14
2 2754.06 2338.08 2666.11 0 0 0 426874 16