LAMMPS (23 Jun 2022 - Update 1)
OMP_NUM_THREADS environment is not set. Defaulting to 1 thread. (src/comm.cpp:98)
  using 1 OpenMP thread(s) per MPI task
###

# Read restart info
read_restart ${read_res}
read_restart ./trial6/1090/equpmf81.res
Reading restart file ...
  restart file = 23 Jun 2022, LAMMPS = 23 Jun 2022
  restoring atom style atomic from restart
  orthogonal box = (1631.6304 1631.6304 1631.6304) to (2368.3696 2368.3696 2368.3696)
  1 by 2 by 2 MPI processor grid
  restoring pair style table from restart
  1000 atoms
  read_restart CPU = 0.083 seconds

# Settings
pair_style table/pgn spline 10941
pair_coeff 1 1 N20e.txt DE_GNP 308 72.9   # 1.35 * r
pair_coeff 2 2 N100e.txt DE_GNP 473.9 111.78
WARNING: 20 of 10941 force values in table DE_GNP are inconsistent with -dE/dr.
WARNING:  Should only be flagged at inflection points (src/pair_table_pgn.cpp:478)
pair_coeff 1 2 mixed_potentiale.txt DE_GNP 391.2 92.95
WARNING: 1564 of 10941 force values in table DE_GNP are inconsistent with -dE/dr.
WARNING:  Should only be flagged at inflection points (src/pair_table_pgn.cpp:478)

# Neighbor list
neighbor 2.0 bin
neigh_modify delay 0 every 1 check no once yes

# Temperature
variable T equal ${Temp}
variable T equal 300

# Deformation
reset_timestep 0
variable tmp equal "lx"
variable L0 equal ${tmp}
variable L0 equal 736.73927971409
variable strain equal "(lx - v_L0)/v_L0"
variable stp equal "step"
variable tmpe equal "temp"
variable p1 equal "v_strain"
variable p2 equal "-pxx*1.01325/10000"
variable p3 equal "-pyy*1.01325/10000"
variable p4 equal "-pzz*1.01325/10000"
variable p5 equal "lx"
variable p6 equal "ly"
variable p7 equal "lz"
variable p8 equal "press"
variable p9 equal "epair"
variable p10 equal "etotal"

# Thermo
thermo_style custom step temp v_p1 v_p2 v_p3 v_p4 press lx ly lz vol density epair pe ke etotal pxx pyy pzz pxy pxz pyz spcpu
thermo ${ts_save}
thermo 1000

# Dump
# dump 1 all custom 2000 ./${N20}${N100}/tensile/trajectory/trajectory_${usic}_${trial}_*.tensile.custom id type x y z ix iy iz
# dump_modify 1 sort id
dump 2 all cfg 50000 ./trial${trial}/${N20}${N100}/tensile/trajectory/dumpten.tens_${usic}_${trial}_*.cfg mass type xs ys zs fx fy fz
dump 2 all cfg 50000 ./trial6/${N20}${N100}/tensile/trajectory/dumpten.tens_${usic}_${trial}_*.cfg mass type xs ys zs fx fy fz
dump 2 all cfg 50000 ./trial6/10${N100}/tensile/trajectory/dumpten.tens_${usic}_${trial}_*.cfg mass type xs ys zs fx fy fz
dump 2 all cfg 50000 ./trial6/1090/tensile/trajectory/dumpten.tens_${usic}_${trial}_*.cfg mass type xs ys zs fx fy fz
dump 2 all cfg 50000 ./trial6/1090/tensile/trajectory/dumpten.tens_1_${trial}_*.cfg mass type xs ys zs fx fy fz
dump 2 all cfg 50000 ./trial6/1090/tensile/trajectory/dumpten.tens_1_6_*.cfg mass type xs ys zs fx fy fz
dump_modify 2 element N20 N100

fix 1 all nvt temp ${T} ${T} 100
fix 1 all nvt temp 300 ${T} 100
fix 1 all nvt temp 300 300 100
fix 2 all deform 1 x erate ${strain_rate} y erate ${strain_rate} z erate ${strain_rate} units box
fix 2 all deform 1 x erate 5e-6 y erate ${strain_rate} z erate ${strain_rate} units box
fix 2 all deform 1 x erate 5e-6 y erate 5e-6 z erate ${strain_rate} units box
fix 2 all deform 1 x erate 5e-6 y erate 5e-6 z erate 5e-6 units box
fix             def1 all print ${ts_save} "${p1} ${p2} ${p3} ${p4}" file ./tensile/${trial}/tensile${N20}${N100}_${usic}_${trial}.txt screen no
fix             def1 all print 1000 "${p1} ${p2} ${p3} ${p4}" file ./tensile/${trial}/tensile${N20}${N100}_${usic}_${trial}.txt screen no
fix             def1 all print 1000 "${p1} ${p2} ${p3} ${p4}" file ./tensile/6/tensile${N20}${N100}_${usic}_${trial}.txt screen no
fix             def1 all print 1000 "${p1} ${p2} ${p3} ${p4}" file ./tensile/6/tensile10${N100}_${usic}_${trial}.txt screen no
fix             def1 all print 1000 "${p1} ${p2} ${p3} ${p4}" file ./tensile/6/tensile1090_${usic}_${trial}.txt screen no
fix             def1 all print 1000 "${p1} ${p2} ${p3} ${p4}" file ./tensile/6/tensile1090_1_${trial}.txt screen no
fix             def1 all print 1000 "${p1} ${p2} ${p3} ${p4}" file ./tensile/6/tensile1090_1_6.txt screen no

timestep       		${ts}
timestep       		0.1
run				${steps_tensile}
run				6000000
Generated 0 of 1 mixed pair_coeff terms from geometric mixing rule
Unused restart file global fix info:
  fix style: npt, fix ID: 5
Neighbor list info ...
  update every 1 steps, delay 0 steps, check no
  max neighbors/atom: 2000, page size: 100000
  master list distance cutoff = 113.78
  ghost atom cutoff = 113.78
  binsize = 56.89, bins = 13 13 13
  1 neighbor lists, perpetual/occasional/extra = 1 0 0
  (1) pair table/pgn, perpetual
      attributes: half, newton on
      pair build: half/bin/atomonly/newton
      stencil: half/bin/3d
      bin: standard
Per MPI rank memory allocation (min/avg/max) = 3.838 | 3.839 | 3.839 Mbytes
   Step          Temp           v_p1           v_p2           v_p3           v_p4          Press            Lx             Ly             Lz           Volume        Density         E_pair         PotEng         KinEng         TotEng          Pxx            Pyy            Pzz            Pxy            Pxz            Pyz           S/CPU     
         0   315.11078      4.6293244e-16  0.013239485   -0.021221468   -0.0065631372   47.849724      736.73928      736.73928      736.73928      3.9989086e+08  1.6694258     -53501965      -53501965       938.34609     -53501027      -130.66356      209.43961      64.773128      57.083823      31.167885     -81.446979      0            
      1000   317.09464      0.0005         0.023088216   -0.010900207    0.0037656023  -52.483301      737.10765      737.10765      737.10765      4.0049099e+08  1.6669242     -53502005      -53502005       944.2537      -53501060      -227.86298      107.57668     -37.163605      55.898952      30.842144     -80.342941      16178.259    
      2000   342.61609      0.001          0.032491292   -0.0010894239   0.013611785   -148.0834       737.47602      737.47602      737.47602      4.0109173e+08  1.6644275     -53501281      -53501281       1020.2522     -53500261      -320.66412      10.751778     -134.33787      55.548564      30.554464     -79.296142      18064.342    
      3000   372.18617      0.0015         0.041441149    0.0083635517   0.02279177    -238.82382      737.84439      737.84439      737.84439      4.0169307e+08  1.6619359     -53499822      -53499822       1108.3069     -53498713      -408.99234     -82.541837     -224.93729      55.372384      30.963554     -78.203957      18009.025    
      4000   396.6236       0.002          0.050189532    0.017727782    0.031787222   -328.00242      738.21276      738.21276      738.21276      4.02295e+08    1.6594492     -53497630      -53497630       1181.0773     -53496449      -495.33217     -174.95961     -313.71549      54.922867      31.285226     -77.323599      17419.128    
      5000   411.16933      0.0025         0.058852067    0.02709027     0.040913386   -417.32288      738.58113      738.58113      738.58113      4.0289754e+08  1.6569675     -53494689      -53494689       1224.392      -53493464      -580.82474     -267.36018     -403.78372      53.965425      31.116176     -76.643712      18161.514    
      6000   416.53326      0.003          0.067471969    0.036402592    0.050048978   -506.36907      738.9495       738.9495       738.9495       4.0350068e+08  1.6544907     -53490984      -53490984       1240.3649     -53489744      -665.89656     -359.26565     -493.94501      52.616998      31.182687     -76.174083      17799.619    
      7000   415.28885      0.0035         0.076053109    0.045556082    0.059044565   -594.30465      739.31787      739.31787      739.31787      4.0410442e+08  1.6520188     -53486514      -53486514       1236.6593     -53485277      -750.58583     -449.60357     -582.72455      51.154478      31.477115     -75.815781      18001.763    
      8000   410.14189      0.004          0.084562423    0.054509479    0.067831662   -680.6598       739.68624      739.68624      739.68624      4.0470877e+08  1.6495519     -53481277      -53481277       1221.3325     -53480055      -834.56623     -537.96673     -669.44645      49.525932      31.411268     -75.138266      17832.841    
      9000   403.55722      0.0045         0.092897791    0.063275558    0.076480142   -765.37048      740.05461      740.05461      740.05461      4.0531371e+08  1.6470899     -53475279      -53475279       1201.7245     -53474077      -916.82991     -624.4812      -754.80032      48.357698      30.928419     -74.136297      17793.259    
     10000   397.12857      0.005          0.10101827     0.071872559    0.084967655   -848.28845      740.42298      740.42298      740.42298      4.0591926e+08  1.6446328     -53468532      -53468532       1182.5811     -53467350      -996.97277     -709.32701     -838.56556      47.757371      30.167661     -72.910687      18014.298    
     11000   391.27614      0.0055         0.10903092     0.080387963    0.093268348   -929.96869      740.79135      740.79135      740.79135      4.0652541e+08  1.6421805     -53461043      -53461043       1165.1535     -53459878      -1076.0515     -793.36751     -920.48702      47.289038      29.79322      -71.618305      18040.721    
     12000   386.03165      0.006          0.11690962     0.088820997    0.10140946    -1010.4123      741.15972      741.15972      741.15972      4.0713217e+08  1.6397332     -53452826      -53452826       1149.5363     -53451676      -1153.8082     -876.59509     -1000.8336      46.868362      30.298286     -70.553054      17907.437    
     13000   381.39951      0.0065         0.12448534     0.097040879    0.1092965     -1088.3221      741.52809      741.52809      741.52809      4.0773953e+08  1.6372907     -53443899      -53443899       1135.7426     -53442763      -1228.5747     -957.71901     -1078.6726      46.438865      30.821961     -69.850943      18026.378    
     14000   377.56127      0.007          0.13177023     0.10496855     0.11699106    -1163.6807      741.89645      741.89645      741.89645      4.0834749e+08  1.634853      -53434273      -53434273       1124.313      -53433149      -1300.471      -1035.959      -1154.6119      45.461729      30.975305     -69.435652      18003.055    
     15000   374.47878      0.0075         0.13898252     0.11264232     0.12456724    -1237.5757      742.26482      742.26482      742.26482      4.0895605e+08  1.6324202     -53423967      -53423967       1115.1338     -53422852      -1371.6508     -1111.6932     -1229.383       43.603915      30.619624     -69.232012      17975.474    
     16000   371.91772      0.008          0.14616166     0.12021869     0.13201378    -1310.6148      742.63319      742.63319      742.63319      4.0956522e+08  1.6299922     -53412994      -53412994       1107.5075     -53411886      -1442.5035     -1186.4662     -1302.8747      41.932854      29.379743     -68.754076      17772.355    
     17000   369.9605       0.0085         0.15330758     0.12780547     0.1394119     -1383.4195      743.00156      743.00156      743.00156      4.10175e+08    1.627569      -53401364      -53401364       1101.6792     -53400263      -1513.0282     -1261.3419     -1375.8885      41.358532      27.943233     -67.683462      17868.273    
     18000   368.67748      0.009          0.16028924     0.13532226     0.1466904     -1455.0601      743.36993      743.36993      743.36993      4.1078538e+08  1.6251507     -53389086      -53389086       1097.8586     -53387988      -1581.9318     -1335.5269     -1447.7216      40.99845       27.025143     -66.383126      18104.934    
     19000   367.94902      0.0095         0.16697271     0.14250717     0.15370622    -1523.7638      743.7383       743.7383       743.7383       4.1139636e+08  1.6227371     -53376172      -53376172       1095.6894     -53375077      -1647.8925     -1406.4364     -1516.9624      40.555266      27.239079     -65.399737      18119.259    
     20000   367.7576       0.01           0.173446       0.14941789     0.16054847    -1590.303       744.10667      744.10667      744.10667      4.1200795e+08  1.6203283     -53362645      -53362645       1095.1193     -53361550      -1711.7789     -1474.6399     -1584.4902      40.532961      28.441481     -64.442845      17663.03     
     21000   368.06609      0.0105         0.17981248     0.15628927     0.16726958    -1655.9629      744.47504      744.47504      744.47504      4.1262015e+08  1.6179242     -53348514      -53348514       1096.038      -53347418      -1774.6112     -1542.4552     -1650.8224      40.129109      29.279034     -62.937019      17952.908    
     22000   369.04135      0.011          0.18605084     0.16313639     0.17382359    -1720.5718      744.84341      744.84341      744.84341      4.1323295e+08  1.6155249     -53333784      -53333784       1098.9421     -53332685      -1836.179      -1610.031      -1715.5054      38.928371      29.176502     -61.229395      17958.543    
     23000   370.35097      0.0115         0.19218778     0.16981665     0.18021563    -1783.7653      745.21178      745.21178      745.21178      4.1384636e+08  1.6131304     -53318474      -53318474       1102.842      -53317371      -1896.7459     -1675.96       -1778.59        37.109229      28.453929     -60.093118      18205.789    
     24000   371.6701       0.012          0.19812995     0.1762529      0.18639223    -1844.8066      745.58015      745.58015      745.58015      4.1446037e+08  1.6107405     -53302602      -53302602       1106.7701     -53301495      -1955.3906     -1739.4809     -1839.5483      35.151477      27.63442      -59.832251      17511.429    
     25000   373.00263      0.0125         0.20394149     0.18253644     0.19241957    -1904.4247      745.94852      745.94852      745.94852      4.1507499e+08  1.6083554     -53286181      -53286181       1110.7381     -53285071      -2012.746      -1801.4946     -1899.0335      33.925944      27.332059     -59.857231      17790.081    
     26000   374.60501      0.013          0.20960423     0.18870532     0.19832033    -1962.7597      746.31689      746.31689      746.31689      4.1569022e+08  1.605975      -53269224      -53269224       1115.5098     -53268108      -2068.6329     -1862.3767     -1957.2695      33.259017      27.683672     -59.261879      17622.937    
     27000   376.42246      0.0135         0.215077       0.19472517     0.20413885    -2019.7089      746.68526      746.68526      746.68526      4.1630606e+08  1.6035993     -53251733      -53251733       1120.9218     -53250612      -2122.6449     -1921.788      -2014.6938      32.69517       28.136111     -57.914611      17882.42     
     28000   378.04568      0.014          0.22039427     0.20061467     0.20993658    -2075.6494      747.05363      747.05363      747.05363      4.1692251e+08  1.6012283     -53233718      -53233718       1125.7555     -53232592      -2175.1223     -1979.9128     -2071.913       32.342913      28.262599     -56.640551      18106.198    
     29000   379.68152      0.0145         0.22565324     0.20645137     0.21562311    -2130.8585      747.422        747.422        747.422        4.1753956e+08  1.598862      -53215193      -53215193       1130.6267     -53214062      -2227.0243     -2037.5166     -2128.0346      31.871415      28.359647     -56.056883      18084.991    
     30000   381.72324      0.015          0.23091551     0.21214257     0.22107043    -2184.8129      747.79037      747.79037      747.79037      4.1815722e+08  1.5965003     -53196174      -53196174       1136.7066     -53195037      -2278.9589     -2093.6844     -2181.7955      30.92076       28.08567      -55.173114      17906.048    
     31000   383.92431      0.0155         0.23611352     0.2176239      0.22629439    -2237.1307      748.15874      748.15874      748.15874      4.1877549e+08  1.5941432     -53176665      -53176665       1143.261      -53175522      -2330.2592     -2147.7809     -2233.352       29.826005      27.278324     -53.483575      17777.739    
     32000   385.90114      0.016          0.24106074     0.22291047     0.23133924    -2287.3935      748.52711      748.52711      748.52711      4.1939437e+08  1.5917908     -53156683      -53156683       1149.1477     -53155534      -2379.0845     -2199.9553     -2283.1408      29.039213      26.429471     -52.016066      17826.277    
     33000   387.81692      0.0165         0.24573123     0.22800322     0.23628027    -2335.7668      748.89548      748.89548      748.89548      4.2001386e+08  1.5894431     -53136240      -53136240       1154.8526     -53135085      -2425.1787     -2250.2168     -2331.905       28.089893      25.985783     -51.272165      17896.038    
     34000   389.91192      0.017          0.25033333     0.23301347     0.24111884    -2383.3066      749.26385      749.26385      749.26385      4.2063396e+08  1.5870999     -53115347      -53115347       1161.0911     -53114185      -2470.5979     -2299.6641     -2379.6579      26.797026      26.047877     -51.059474      17985.806    
     35000   391.93431      0.0175         0.25491651     0.23807639     0.2458528     -2430.6134      749.63222      749.63222      749.63222      4.2125467e+08  1.5847614     -53094011      -53094011       1167.1135     -53092844      -2515.8304     -2349.6313     -2426.3785      25.732781      26.023424     -50.495794      17956.406    
     36000   393.73233      0.018          0.25932773     0.24304042     0.25053849    -2476.8702      750.00059      750.00059      750.00059      4.2187599e+08  1.5824274     -53072243      -53072243       1172.4676     -53071070      -2559.3657     -2398.6224     -2472.6226      25.040109      25.672741     -49.008152      17958.871    
     37000   395.33769      0.0185         0.26363151     0.2477904      0.25513178    -2521.7656      750.36896      750.36896      750.36896      4.2249792e+08  1.580098      -53050048      -53050048       1177.2481     -53048871      -2601.8407     -2445.5011     -2517.9549      24.614154      25.483316     -47.599222      18153.877    
     38000   396.77516      0.019          0.26786771     0.25236612     0.2594231     -2564.8719      750.73733      750.73733      750.73733      4.2312046e+08  1.5777732     -53027438      -53027438       1181.5287     -53026257      -2643.6488     -2490.66       -2560.3069      24.110281      25.371245     -46.857599      17950.58     
     39000   398.32653      0.0195         0.2719825      0.25674913     0.26347913    -2606.1708      751.1057       751.1057       751.1057       4.2374361e+08  1.5754529     -53004430      -53004430       1186.1484     -53003244      -2684.2586     -2533.9169     -2600.3368      24.075413      25.438526     -45.796594      18237.776    
     40000   400.25496      0.02           0.27597815     0.26110112     0.26752553    -2646.944       751.47407      751.47407      751.47407      4.2436738e+08  1.5731372     -52981030      -52981030       1191.8909     -52979838      -2723.6926     -2576.8677     -2640.2717      24.339523      25.098264     -44.406163      17914.891    
     41000   402.28912      0.0205         0.27974098     0.26539661     0.27158607    -2686.8119      751.84243      751.84243      751.84243      4.2499175e+08  1.5708261     -52957249      -52957249       1197.9483     -52956051      -2760.8288     -2619.2609     -2680.3462      23.730929      24.374445     -43.245535      18140.873    
     42000   404.24867      0.021          0.2832781      0.26944755     0.27555169    -2724.8206      752.2108       752.2108       752.2108       4.2561674e+08  1.5685194     -52933097      -52933097       1203.7835     -52931893      -2795.7375     -2659.2405     -2719.4837      22.360848      23.788692     -42.566231      17857.431    
     43000   405.91616      0.0215         0.2868096      0.2733471      0.27935684    -2761.7848      752.57917      752.57917      752.57917      4.2624234e+08  1.5662173     -52908587      -52908587       1208.749      -52907378      -2830.5906     -2697.7261     -2757.0376      21.141416      23.644899     -41.7405        17941.726    
     44000   407.30356      0.022          0.29033121     0.27716831     0.28294509    -2797.7452      752.94754      752.94754      752.94754      4.2686855e+08  1.5639197     -52883732      -52883732       1212.8805     -52882520      -2865.3463     -2735.4386     -2792.4509      20.655171      24.160811     -41.079168      17944.613    
     45000   408.42581      0.0225         0.29376761     0.28087029     0.28636712    -2832.4863      753.31591      753.31591      753.31591      4.2749538e+08  1.5616265     -52858534      -52858534       1216.2223     -52857318      -2899.2609     -2771.9743     -2826.2238      20.825371      24.891378     -40.984088      18032.188    
     46000   409.1995       0.023          0.29695615     0.28445533     0.28966932    -2865.6331      753.68428      753.68428      753.68428      4.2812282e+08  1.5593379     -52832998      -52832998       1218.5262     -52831779      -2930.7294     -2807.3559     -2858.8139      20.464923      25.093242     -40.738318      18280.173    
     47000   409.94529      0.0235         0.29997586     0.28788413     0.2929141     -2897.5215      754.05265      754.05265      754.05265      4.2875087e+08  1.5570537     -52807145      -52807145       1220.7471     -52805924      -2960.5316     -2841.1955     -2890.8374      20.090857      24.51472      -39.478709      17960.115    
     48000   411.05619      0.024          0.30293429     0.29122277     0.29612579    -2928.8028      754.42102      754.42102      754.42102      4.2937954e+08  1.554774      -52780989      -52780989       1224.0551     -52779764      -2989.729      -2874.1453     -2922.5343      19.945191      23.68501      -37.500271      18137.842    
     49000   412.70271      0.0245         0.30583574     0.29455638     0.29928913    -2959.7212      754.78939      754.78939      754.78939      4.3000882e+08  1.5524987     -52754528      -52754528       1228.9582     -52753299      -3018.3641     -2907.0454     -2953.7541      19.151928      23.543162     -35.89454       17978.922    
     50000   414.52715      0.025          0.30868096     0.29772577     0.30243409    -2989.8538      755.15776      755.15776      755.15776      4.3063872e+08  1.5502278     -52727770      -52727770       1234.3911     -52726536      -3046.4442     -2938.3249     -2984.7924      17.768579      23.845716     -35.082104      17590.191    
     51000   415.90427      0.0255         0.31145896     0.30072132     0.30538335    -3018.5497      755.52613      755.52613      755.52613      4.3126923e+08  1.5479614     -52700722      -52700722       1238.4919     -52699483      -3073.8609     -2967.8887     -3013.8994      17.025868      23.53757      -34.646249      17912.762    
     52000   416.91233      0.026          0.314045       0.30354127     0.30793173    -3044.7175      755.8945       755.8945       755.8945       4.3190035e+08  1.5456994     -52673403      -52673403       1241.4937     -52672161      -3099.3832     -2995.7194     -3039.0499      16.886368      22.432366     -33.957624      17847.802    
     53000   418.02231      0.0265         0.31635915     0.30615518     0.31021492    -3068.4406      756.26287      756.26287      756.26287      4.3253209e+08  1.5434418     -52645835      -52645835       1244.7991     -52644590      -3122.2221     -3021.5167     -3061.5832      16.435846      21.750939     -33.424173      17370.383    
     54000   419.10077      0.027          0.31859032     0.30870032     0.31257037    -3091.9023      756.63124      756.63124      756.63124      4.3316445e+08  1.5411886     -52618026      -52618026       1248.0105     -52616778      -3144.242      -3046.6353     -3084.8297      15.952353      22.05603      -33.175484      17908.426    
     55000   419.4424       0.0275         0.32089053     0.31131594     0.31508784    -3116.356       756.99961      756.99961      756.99961      4.3379742e+08  1.5389398     -52589967      -52589967       1249.0278     -52588718      -3166.9433     -3072.4494     -3109.6752      15.464885      22.67079      -32.313183      18119.116    
     56000   419.39731      0.028          0.32311068     0.31379305     0.31750211    -3139.7511      757.36798      757.36798      757.36798      4.3443101e+08  1.5366954     -52561654      -52561654       1248.8936     -52560406      -3188.8545     -3096.8966     -3133.5022      14.701659      22.863721     -30.786126      17975.534    
     57000   419.96311      0.0285         0.32512782     0.31604822     0.31971903    -3161.099       757.73635      757.73635      757.73635      4.3506522e+08  1.5344553     -52533116      -52533116       1250.5784     -52531865      -3208.7622     -3119.1534     -3155.3815      13.913812      22.815854     -29.446604      18119.293    
     58000   420.93334      0.029          0.32707773     0.31826026     0.32184785    -3181.794       758.10472      758.10472      758.10472      4.3570004e+08  1.5322196     -52504371      -52504371       1253.4676     -52503118      -3228.0062     -3140.9846     -3176.3914      13.63902       22.546715     -28.548532      17957.032    
     59000   421.70698      0.0295         0.32893318     0.32046095     0.32384135    -3201.6958      758.47309      758.47309      758.47309      4.3633548e+08  1.5299882     -52475420      -52475420       1255.7714     -52474164      -3246.3181     -3162.7037     -3196.0656      13.589057      21.787258     -27.341094      18118.168    
     60000   422.49632      0.03           0.33051131     0.32259176     0.32560175    -3219.6885      758.84146      758.84146      758.84146      4.3697154e+08  1.5277611     -52446268      -52446268       1258.1219     -52445010      -3261.893      -3183.7331     -3213.4395      13.39806       20.984328     -25.710966      17923.692    
     61000   423.20914      0.0305         0.33183855     0.32454662     0.3272446     -3235.8904      759.20983      759.20983      759.20983      4.3760821e+08  1.5255384     -52416928      -52416928       1260.2446     -52415668      -3274.9919     -3203.0261     -3229.6531      13.261062      20.379266     -24.389005      17829.873    
     62000   423.6879       0.031          0.33322564     0.32631663     0.32893254    -3251.8293      759.5782       759.5782       759.5782       4.3824551e+08  1.52332       -52387410      -52387410       1261.6702     -52386148      -3288.6813     -3220.4947     -3246.3118      12.96727       20.105693     -23.623511      18071.328    
     63000   423.9639       0.0315         0.33476877     0.32797737     0.33055384    -3267.7029      759.94657      759.94657      759.94657      4.3888342e+08  1.5211058     -52357718      -52357718       1262.4921     -52356456      -3303.9109     -3236.885      -3262.3128      12.009817      20.041003     -23.252476      17926.404    
     64000   424.29844      0.032          0.33615469     0.32954316     0.33198578    -3282.124       760.31494      760.31494      760.31494      4.3952195e+08  1.518896      -52327861      -52327861       1263.4883     -52326597      -3317.5889     -3252.3381     -3276.4449      10.420312      19.869585     -22.702121      18106.904    
     65000   424.88488      0.0325         0.33716976     0.33106492     0.33328433    -3294.7414      760.68331      760.68331      760.68331      4.401611e+08   1.5166904     -52297855      -52297855       1265.2346     -52296589      -3327.6069     -3267.3567     -3289.2606      9.5259828      19.667044     -21.435979      17918.695    
     66000   425.38182      0.033          0.33795005     0.33243744     0.33448907    -3305.7869      761.05168      761.05168      761.05168      4.4080087e+08  1.5144891     -52267713      -52267713       1266.7144     -52266446      -3335.3076     -3280.9025     -3301.1505      9.7128406      19.737138     -19.737333      17897.5      
     67000   425.61983      0.0335         0.33873658     0.33362267     0.33563385    -3316.0395      761.42005      761.42005      761.42005      4.4144126e+08  1.5122921     -52237441      -52237441       1267.4232     -52236173      -3343.0702     -3292.5997     -3312.4485      10.196399      19.763947     -18.518253      17949.67     
     68000   425.89364      0.034          0.33960154     0.33480304     0.33669012    -3326.2429      761.78842      761.78842      761.78842      4.4208226e+08  1.5100993     -52207048      -52207048       1268.2385     -52205779      -3351.6066     -3304.2491     -3322.8731      10.521273      19.448321     -18.178417      18177.54     
     69000   426.17241      0.0345         0.34045881     0.33609527     0.33763277    -3336.4153      762.15678      762.15678      762.15678      4.4272389e+08  1.5079108     -52176538      -52176538       1269.0687     -52175269      -3360.0672     -3317.0024     -3332.1764      10.582972      18.41246      -17.64995       18015.264    
     70000   426.15682      0.035          0.34121335     0.33726957     0.33858584    -3345.8961      762.52515      762.52515      762.52515      4.4336614e+08  1.5057264     -52145912      -52145912       1269.0223     -52144643      -3367.5139     -3328.5919     -3341.5824      9.6741356      17.563797     -16.173546      18161.977    
     71000   426.07761      0.0355         0.341761       0.33813463     0.33944483    -3353.3694      762.89352      762.89352      762.89352      4.4400901e+08  1.5035463     -52115172      -52115172       1268.7864     -52113904      -3372.9188     -3337.1293     -3350.06        8.0774681      17.521085     -14.80725       17959.332    
     72000   426.58826      0.036          0.34204693     0.33879063     0.34004735    -3358.4502      763.26189      763.26189      763.26189      4.446525e+08   1.5013704     -52084347      -52084347       1270.307      -52083076      -3375.7408     -3343.6036     -3356.0064      7.2606381      17.693244     -14.319795      18080.316    
     73000   427.21452      0.0365         0.34225988     0.33941713     0.34055759    -3362.8904      763.63026      763.63026      763.63026      4.4529662e+08  1.4991987     -52053450      -52053450       1272.1719     -52052178      -3377.8424     -3349.7866     -3361.0421      7.5351285      17.444618     -13.828018      18280.133    
     74000   426.89264      0.037          0.34246072     0.3399962      0.34099651    -3366.9         763.99863      763.99863      763.99863      4.4594135e+08  1.4970312     -52022483      -52022483       1271.2134     -52021211      -3379.8245     -3355.5016     -3365.3739      8.0357644      16.862183     -12.611412      17925.961    
     75000   426.11339      0.0375         0.34250443     0.34041256     0.34127369    -3369.3254      764.367        764.367        764.367        4.4658671e+08  1.4948679     -51991458      -51991458       1268.8929     -51990189      -3380.2559     -3359.6108     -3368.1094      7.5984189      16.920365     -11.281721      18113.542    
     76000   425.74066      0.038          0.3424458      0.34073736     0.34142499    -3370.6988      764.73537      764.73537      764.73537      4.4723269e+08  1.4927087     -51960388      -51960388       1267.783      -51959121      -3379.6773     -3362.8163     -3369.6027      6.4349263      17.442772     -10.18024       17945.819    
     77000   425.49898      0.0385         0.34240594     0.34116513     0.34164721    -3372.7059      765.10374      765.10374      765.10374      4.4787929e+08  1.4905537     -51929265      -51929265       1267.0633     -51927998      -3379.2839     -3367.038      -3371.7958      5.2692838      17.31746      -9.297647       18268.581    
     78000   424.89755      0.039          0.3423254      0.34162012     0.34191296    -3374.812       765.47211      765.47211      765.47211      4.4852651e+08  1.4884028     -51898090      -51898090       1265.2724     -51896825      -3378.489      -3371.5285     -3374.4185      4.4159373      16.366973     -8.4354079      17925.534    
     79000   424.4081       0.0395         0.3421074      0.34189668     0.3419754     -3375.2101      765.84048      765.84048      765.84048      4.4917436e+08  1.4862561     -51866876      -51866876       1263.8148     -51865612      -3376.3375     -3374.2579     -3375.0348      3.8541912      15.596008     -7.2065746      18250.225    
     80000   424.49256      0.04           0.34179239     0.34191175     0.34172589    -3373.4025      766.20885      766.20885      766.20885      4.4982283e+08  1.4841135     -51835647      -51835647       1264.0664     -51834383      -3373.2286     -3374.4067     -3372.5724      3.7775113      15.103876     -5.7403435      18002.878    
     81000   424.86526      0.0405         0.34135647     0.34171205     0.34129058    -3369.8795      766.57722      766.57722      766.57722      4.5047192e+08  1.481975      -51804416      -51804416       1265.1762     -51803150      -3368.9264     -3372.4358     -3368.2762      3.6289659      14.919595     -4.442128       17883.698    
     82000   424.80637      0.041          0.3407686      0.34146959     0.34081771    -3365.5922      766.94559      766.94559      766.94559      4.5112164e+08  1.4798406     -51773192      -51773192       1265.0008     -51771927      -3363.1246     -3370.0428     -3363.6092      2.9977674      15.391638     -3.4029289      18132.372    
     83000   424.04875      0.0415         0.34009512     0.34123071     0.34036651    -3361.1065      767.31396      767.31396      767.31396      4.5177199e+08  1.4777103     -51741981      -51741981       1262.7448     -51740718      -3356.4779     -3367.6853     -3359.1563      2.3493883      15.836404     -2.8566509      18047.654    
     84000   422.83974      0.042          0.33945986     0.34093517     0.33993449    -3356.6232      767.68233      767.68233      767.68233      4.5242296e+08  1.4755841     -51710775      -51710775       1259.1445     -51709516      -3350.2084     -3364.7685     -3354.8926      1.7877547      15.183645     -2.5813752      18110.104    
     85000   421.85429      0.0425         0.33876        0.34055744     0.33942024    -3351.3864      768.0507       768.0507       768.0507       4.5307455e+08  1.473462      -51679572      -51679572       1256.21       -51678316      -3343.3012     -3361.0407     -3349.8173      1.4730616      13.933759     -1.4330625      17733.636    
     86000   421.4354       0.043          0.33799069     0.34011331     0.33879413    -3345.3347      768.41907      768.41907      768.41907      4.5372677e+08  1.4713439     -51648395      -51648395       1254.9626     -51647140      -3335.7087     -3356.6573     -3343.6381      0.61085294     13.245435      0.57037253     17982.39     
     87000   421.06427      0.0435         0.33716072     0.339609       0.33799087    -3338.3028      768.78744      768.78744      768.78744      4.5437961e+08  1.4692299     -51617258      -51617258       1253.8575     -51616004      -3327.5176     -3351.6802     -3335.7105     -0.72104578     12.908961      2.2810609      17905.601    
     88000   420.30028      0.044          0.33609853     0.33890026     0.33693951    -3329.0182      769.15581      769.15581      769.15581      4.5503308e+08  1.46712       -51586169      -51586169       1251.5824     -51584918      -3317.0346     -3344.6855     -3325.3344     -1.4754048      12.846193      3.0134935      18172.294    
     89000   419.35712      0.0445         0.33481516     0.33796547     0.33577783    -3317.8994      769.52418      769.52418      769.52418      4.5568718e+08  1.4650141     -51555144      -51555144       1248.7739     -51553895      -3304.3687     -3335.4599     -3313.8695     -1.6096191      12.855758      3.2725134      17974.606    
     90000   418.26662      0.045          0.3335175      0.33696571     0.33469669    -3306.7848      769.89255      769.89255      769.89255      4.563419e+08   1.4629122     -51524193      -51524193       1245.5266     -51522947      -3291.5618     -3325.593      -3303.1995     -1.5616999      12.692041      3.5372114      17984.061    
     91000   417.08431      0.0455         0.33225109     0.3359801      0.33366025    -3295.9666      770.26092      770.26092      770.26092      4.5699725e+08  1.4608143     -51493311      -51493311       1242.0059     -51492069      -3279.0633     -3315.8658     -3292.9706     -1.6286476      12.576773      4.3039509      18152.9      
     92000   416.03109      0.046          0.33093996     0.33498277     0.33248125    -3284.4937      770.62929      770.62929      770.62929      4.5765323e+08  1.4587205     -51462504      -51462504       1238.8695     -51461265      -3266.1235     -3306.0228     -3281.3348     -1.7804647      11.991521      6.3306513      17943.577    
     93000   414.92554      0.0465         0.32960863     0.33390294     0.33112207    -3272.0903      770.99766      770.99766      770.99766      4.5830983e+08  1.4566306     -51431774      -51431774       1235.5774     -51430539      -3252.9842     -3295.3658     -3267.9207     -2.6009887      10.861252      8.4714383      18095.458    
     94000   413.56211      0.047          0.32818474     0.33269681     0.32966264    -3258.637       771.36603      771.36603      771.36603      4.5896706e+08  1.4545447     -51401134      -51401134       1231.5173     -51399902      -3238.9316     -3283.4622     -3253.5173     -4.199845       9.7298421      9.1664143      18086.977    
     95000   412.22567      0.0475         0.32656354     0.33133387     0.32811287    -3243.7216      771.7344       771.7344       771.7344       4.5962492e+08  1.4524628     -51370602      -51370602       1227.5377     -51369375      -3222.9316     -3270.0111     -3238.2223     -5.7373634      9.5462058      8.8854419      18096.099    
     96000   411.27152      0.048          0.32478812     0.32980031     0.32655433    -3227.7087      772.10277      772.10277      772.10277      4.6028341e+08  1.4503849     -51340190      -51340190       1224.6964     -51338965      -3205.4095     -3254.876      -3222.8407     -6.2019493      9.8341783      9.5429586      18064.94     
     97000   410.55253      0.0485         0.32304783     0.32823778     0.3250226     -3211.8043      772.47113      772.47113      772.47113      4.6094253e+08  1.448311      -51309899      -51309899       1222.5553     -51308676      -3188.2342     -3239.455      -3207.7236     -6.2580959      9.6997358      11.387347      18152.072    
     98000   409.34148      0.049          0.32135538     0.32672277     0.32339017    -3195.8823      772.8395       772.8395       772.8395       4.6160227e+08  1.446241      -51279727      -51279727       1218.949      -51278508      -3171.5311     -3224.503      -3191.6128     -6.9518508      8.5156018      12.995463      17941.599    
     99000   407.68639      0.0495         0.31956411     0.3251953      0.32160194    -3179.0816      773.20787      773.20787      773.20787      4.6226265e+08  1.4441749     -51249673      -51249673       1214.0204     -51248459      -3153.8525     -3209.4281     -3173.9643     -8.2154197      6.5696856      13.628638      17987.791    
    100000   406.18564      0.05           0.31768133     0.32351407     0.31973972    -3161.2308      773.57624      773.57624      773.57624      4.6292365e+08  1.4421128     -51219756      -51219756       1209.5515     -51218546      -3135.271      -3192.8357     -3155.5857     -8.8587084      4.9999232      14.242127      14693.242    
    101000   404.99161      0.0505         0.31577796     0.32170421     0.31789519    -3142.9471      773.94461      773.94461      773.94461      4.6358529e+08  1.4400546     -51189979      -51189979       1205.9958     -51188773      -3116.4861     -3174.9737     -3137.3816     -9.0146731      4.5808376      15.057105      16130.328    
    102000   403.64735      0.051          0.31383242     0.31992779     0.31605079    -3124.6352      774.31298      774.31298      774.31298      4.6424755e+08  1.4380003     -51160346      -51160346       1201.9929     -51159144      -3097.2851     -3157.4418     -3119.1788     -9.553221       5.2086602      15.946656      18237.701    
    103000   402.18891      0.0515         0.31177863     0.3180676      0.31403071    -3105.1137      774.68135      774.68135      774.68135      4.6491045e+08  1.4359499     -51130866      -51130866       1197.6499     -51129668      -3077.0158     -3139.0832     -3099.2422     -10.368123      5.525375       16.870465      17922.372    
    104000   400.84346      0.052          0.30968208     0.31600865     0.31194217    -3084.5724      775.04972      775.04972      775.04972      4.6557397e+08  1.4339034     -51101547      -51101547       1193.6434     -51100353      -3056.3245     -3118.7629     -3078.6299     -11.301781      4.2020549      17.811305      18040.96     
    105000   399.42484      0.0525         0.30752685     0.31383625     0.3098181     -3063.348       775.41809      775.41809      775.41809      4.6623813e+08  1.4318608     -51072397      -51072397       1189.419      -51071208      -3035.054      -3097.323      -3057.6669     -12.205749      1.850064       18.392341      18011.145    
    106000   398.0365       0.053          0.30533814     0.31175738     0.3075876     -3041.9709      775.78646      775.78646      775.78646      4.6690292e+08  1.4298221     -51043416      -51043416       1185.2847     -51042231      -3013.4531     -3076.8061     -3035.6536     -12.89116       0.36496211     18.966158      17919.739    
    107000   396.51267      0.0535         0.30313583     0.30978948     0.30541229    -3021.0958      776.15483      776.15483      776.15483      4.6756834e+08  1.4277873     -51014609      -51014609       1180.747      -51013428      -2991.718      -3057.3844     -3014.1849     -13.378854     -0.31231942     19.739237      18171.659    
    108000   394.81252      0.054          0.30090599     0.3077306      0.30321198    -2999.7486      776.5232       776.5232       776.5232       4.6823439e+08  1.4257563     -50985978      -50985978       1175.6843     -50984803      -2969.7113     -3037.0649     -2992.4696     -13.442061     -1.0711386      20.450306      17879.763    
    109000   393.36523      0.0545         0.29870764     0.30549044     0.30089069    -2977.5105      776.89157      776.89157      776.89157      4.6890107e+08  1.4237291     -50957524      -50957524       1171.3745     -50956353      -2948.0152     -3014.9562     -2969.5602     -13.135381     -1.7014282      20.887672      18219.76     
    110000   392.28914      0.055          0.2964304      0.30309385     0.29848968    -2954.2361      777.25994      777.25994      777.25994      4.6956839e+08  1.4217058     -50929260      -50929260       1168.1701     -50928092      -2925.5405     -2991.3037     -2945.8641     -13.720443     -2.1621136      21.320767      17809.79     
    111000   391.08569      0.0555         0.29406302     0.30069255     0.29613011    -2930.786       777.62831      777.62831      777.62831      4.7023634e+08  1.4196864     -50901192      -50901192       1164.5864     -50900028      -2902.1764     -2967.6047     -2922.5769     -15.187312     -3.4168576      22.322145      18111.851    
    112000   389.42659      0.056          0.29164532     0.29835641     0.29379087    -2907.4516      777.99668      777.99668      777.99668      4.7090492e+08  1.4176707     -50873325      -50873325       1159.6459     -50872165      -2878.3155     -2944.5488     -2899.4905     -16.24723      -4.8253572      23.446077      17957.789    
    113000   387.7399       0.0565         0.28920747     0.29604621     0.29141115    -2884.0031      778.36505      778.36505      778.36505      4.7157414e+08  1.4156589     -50845654      -50845654       1154.6232     -50844499      -2854.2558     -2921.7489     -2876.0045     -16.427526     -5.5377161      24.031059      18143.201    
    114000   386.31739      0.057          0.28681465     0.29370996     0.28897405    -2860.4282      778.73342      778.73342      778.73342      4.7224399e+08  1.4136509     -50818179      -50818179       1150.3872     -50817029      -2830.6405     -2898.6919     -2851.9521     -16.108539     -6.1266952      23.801628      18027.901    
    115000   384.99287      0.0575         0.28452082     0.29131229     0.28650991    -2836.888       779.10179      779.10179      779.10179      4.7291447e+08  1.4116466     -50790898      -50790898       1146.443      -50789752      -2808.0022     -2875.0288     -2827.633      -15.511887     -6.8177559      23.320222      17984.763    
    116000   383.66143      0.058          0.28228912     0.28885618     0.28408519    -2813.4895      779.47016      779.47016      779.47016      4.7358559e+08  1.4096462     -50763816      -50763816       1142.4782     -50762673      -2785.977      -2850.7888     -2803.7028     -14.714025     -7.1963667      23.330837      18039.982    
    117000   382.45989      0.0585         0.27992069     0.28633211     0.2817109     -2789.5837      779.83853      779.83853      779.83853      4.7425734e+08  1.4076495     -50736937      -50736937       1138.9002     -50735798      -2762.6025     -2825.8782     -2780.2704     -14.468499     -7.5893547      23.796207      17936.452    
    118000   381.33502      0.059          0.27749064     0.28391615     0.27933543    -2765.8268      780.2069       780.2069       780.2069       4.7492973e+08  1.4056566     -50710264      -50710264       1135.5506     -50709129      -2738.6197     -2802.0346     -2756.8263     -14.857471     -8.4017319      23.936896      18096.473    
    119000   379.83503      0.0595         0.27506018     0.28165734     0.27689949    -2742.3867      780.57527      780.57527      780.57527      4.7560275e+08  1.4036675     -50683796      -50683796       1131.0839     -50682665      -2714.6329     -2779.7418     -2732.7855     -15.454159     -9.3566083      23.812963      17979.351    
    120000   377.7624       0.06           0.27257997     0.27930413     0.27439013    -2718.2309      780.94364      780.94364      780.94364      4.7627641e+08  1.4016821     -50657527      -50657527       1124.9119     -50656402      -2690.1552     -2756.5175     -2708.02       -15.896408     -9.9968228      23.449627      17857.69     
    121000   375.79651      0.0605         0.27011535     0.27673107     0.27187977    -2693.3998      781.31201      781.31201      781.31201      4.769507e+08   1.3997005     -50631461      -50631461       1119.0578     -50630342      -2665.8313     -2731.1233     -2683.2447     -16.365912     -10.250039      22.877505      17929.625    
    122000   374.34905      0.061          0.2677591      0.27401014     0.26943946    -2668.6691      781.68038      781.68038      781.68038      4.7762563e+08  1.3977226     -50605606      -50605606       1114.7475     -50604491      -2642.5769     -2704.2698     -2659.1607     -16.215398     -10.312444      22.575935      18180.164    
    123000   373.12246      0.0615         0.26539958     0.27133768     0.26705347    -2644.2659      782.04875      782.04875      782.04875      4.783012e+08   1.3957484     -50579959      -50579959       1111.095      -50578848      -2619.2902     -2677.8947     -2635.6128     -15.174222     -10.304162      22.690612      17772.802    
    124000   371.71624      0.062          0.2629826      0.26889775     0.26470741    -2620.57        782.41712      782.41712      782.41712      4.789774e+08   1.3937779     -50554522      -50554522       1106.9075     -50553415      -2595.4364     -2653.8145     -2612.459      -14.048576     -10.301425      22.727046      17928.883    
    125000   370.32079      0.0625         0.26056688     0.26658026     0.26232908    -2597.1748      782.78548      782.78548      782.78548      4.7965424e+08  1.3918111     -50529296      -50529296       1102.7521     -50528193      -2571.5951     -2630.9426     -2588.9867     -13.211102     -10.481183      22.333524      18085.427    
    126000   369.16051      0.063          0.25833487     0.26427532     0.2599756     -2574.5071      783.15385      783.15385      783.15385      4.8033172e+08  1.3898481     -50504272      -50504272       1099.297      -50503173      -2549.567      -2608.1946     -2565.7597     -13.270145     -10.568175      21.633476      18027.55     
    127000   368.04966      0.0635         0.25624122     0.26191779     0.25771373    -2552.4229      783.52222      783.52222      783.52222      4.8100984e+08  1.3878887     -50479444      -50479444       1095.989      -50478348      -2528.9043     -2584.9276     -2543.4368     -14.288768     -10.499109      20.716992      18116.108    
    128000   367.04684      0.064          0.25401529     0.25947656     0.25547705    -2529.711       783.89059      783.89059      783.89059      4.8168859e+08  1.385933      -50454806      -50454806       1093.0028     -50453713      -2506.936      -2560.8346     -2521.3624     -15.332893     -10.881577      20.155399      17947.262    
    129000   366.04074      0.0645         0.25166195     0.25708778     0.25330443    -2506.9633      784.25896      784.25896      784.25896      4.8236798e+08  1.383981      -50430360      -50430360       1090.0068     -50429270      -2483.7103     -2537.2591     -2499.9204     -15.066957     -10.990951      20.001807      18245.063    
    130000   364.7311       0.065          0.2494166      0.25482361     0.25116636    -2485.0944      784.62733      784.62733      784.62733      4.8304801e+08  1.3820326     -50406106      -50406106       1086.1069     -50405020      -2461.5505     -2514.9135     -2478.8192     -13.686739     -10.307943      20.145431      17888.864    
    131000   363.17885      0.0655         0.24742552     0.25263        0.24900268    -2464.2099      784.9957       784.9957       784.9957       4.8372868e+08  1.380088      -50382036      -50382036       1081.4846     -50380954      -2441.9001     -2493.2642     -2457.4654     -12.673712     -9.4302068      20.381124      18126.242    
    132000   361.78472      0.066          0.24554783     0.25046246     0.24682751    -2443.7464      785.36407      785.36407      785.36407      4.8440999e+08  1.3781469     -50358145      -50358145       1077.3331     -50357067      -2423.3687     -2471.8723     -2435.9981     -12.58492      -8.7982237      20.121108      17878.798    
    133000   360.75081      0.0665         0.24353599     0.24833557     0.24472893    -2423.2272      785.73244      785.73244      785.73244      4.8509194e+08  1.3762095     -50334435      -50334435       1074.2543     -50333360      -2403.5134     -2450.8815     -2415.2868     -12.755911     -8.4728958      19.206533      18104.674    
    134000   359.60021      0.067          0.24148631     0.24617263     0.24280129    -2403.0273      786.10081      786.10081      786.10081      4.8577452e+08  1.3742757     -50310899      -50310899       1070.828      -50309828      -2383.2846     -2429.535      -2396.2624     -12.565645     -8.7927882      18.428992      18067.363    
    135000   358.06527      0.0675         0.23951662     0.24395038     0.24094595    -2383.1333      786.46918      786.46918      786.46918      4.8645775e+08  1.3723455     -50287532      -50287532       1066.2572     -50286466      -2363.8452     -2407.603      -2377.9517     -12.402774     -9.7061677      18.345555      17873.099    
    136000   356.30934      0.068          0.23762755     0.24183774     0.23903192    -2363.672       786.83755      786.83755      786.83755      4.8714162e+08  1.370419      -50264330      -50264330       1061.0284     -50263269      -2345.2015     -2386.7529     -2359.0616     -12.300411     -9.9121263      17.907406      18025.422    
    137000   354.77396      0.0685         0.23578501     0.23992681     0.23707978    -2344.902       787.20592      787.20592      787.20592      4.8782613e+08  1.368496      -50241288      -50241288       1056.4563     -50240232      -2327.0171     -2367.8935     -2339.7955     -11.796223     -8.5500783      16.678796      17945.05     
    138000   353.67688      0.069          0.23400021     0.23812749     0.23522389    -2327.0058      787.57429      787.57429      787.57429      4.8851127e+08  1.3665767     -50218399      -50218399       1053.1894     -50217346      -2309.4025     -2350.1356     -2321.4793     -11.132403     -6.9695273      15.476738      17867.214    
    139000   352.759        0.0695         0.23226878     0.23626388     0.23344751    -2309.3352      787.94266      787.94266      787.94266      4.8919706e+08  1.3646609     -50195665      -50195665       1050.4561     -50194615      -2292.3146     -2331.7432     -2303.9478     -10.579044     -6.6097012      15.295097      17901.936    
    140000   351.85115      0.07           0.23046359     0.23421785     0.23160549    -2290.6059      788.31103      788.31103      788.31103      4.898835e+08   1.3627488     -50173093      -50173093       1047.7526     -50172045      -2274.4988     -2311.5505     -2285.7685     -10.225744     -7.0646208      15.400656      18153.224    
    141000   350.86212      0.0705         0.22868176     0.23215501     0.22973446    -2271.8027      788.6794       788.6794       788.6794       4.9057057e+08  1.3608401     -50150685      -50150685       1044.8075     -50149641      -2256.9135     -2291.1918     -2267.3028     -9.5516773     -7.4794826      15.293937      17921.839    
    142000   349.79293      0.071          0.22700419     0.2303225      0.22793029    -2254.3202      789.04777      789.04777      789.04777      4.9125829e+08  1.3589351     -50128434      -50128434       1041.6236     -50127392      -2240.3572     -2273.1063     -2249.4971     -8.5745927     -7.0159664      14.757609      18018.45     
    143000   348.73815      0.0715         0.22540161     0.22866995     0.22628075    -2238.1851      789.41614      789.41614      789.41614      4.9194664e+08  1.3570336     -50106322      -50106322       1038.4826     -50105283      -2224.5409     -2256.7969     -2233.2174     -7.7900576     -6.0889976      13.482791      18093.352    
    144000   347.71343      0.072          0.22383204     0.22706372     0.22474155    -2222.6739      789.78451      789.78451      789.78451      4.9263564e+08  1.3551356     -50084341      -50084341       1035.4312     -50083305      -2209.0504     -2240.9447     -2218.0266     -7.5288358     -5.8775723      12.352043      17861.789    
    145000   346.58091      0.0725         0.22226879     0.22541016     0.22320714    -2207.0437      790.15288      790.15288      790.15288      4.9332529e+08  1.3532412     -50062490      -50062490       1032.0588     -50061458      -2193.6224     -2224.6253     -2202.8832     -7.5120028     -6.0847493      12.183417      18084.598    
    146000   345.19972      0.073          0.2207664      0.2236685      0.2217069     -2191.4362      790.52125      790.52125      790.52125      4.9401558e+08  1.3513504     -50040769      -50040769       1027.9458     -50039741      -2178.795      -2207.4365     -2188.077      -7.6243817     -5.5804634      12.369666      17938.859    
    147000   343.49639      0.0735         0.21933293     0.22199268     0.22026669    -2176.4695      790.88962      790.88962      790.88962      4.9470651e+08  1.349463      -50019174      -50019174       1022.8736     -50018151      -2164.6478     -2190.8974     -2173.8632     -7.5706187     -4.6746475      11.978017      18087.833    
    148000   342.04435      0.074          0.21793017     0.22045481     0.21873461    -2161.7554      791.25799      791.25799      791.25799      4.9539808e+08  1.3475791     -49997700      -49997700       1018.5497     -49996681      -2150.8036     -2175.7198     -2158.7428     -6.9668624     -4.2586577      11.005468      17966.713    
    149000   341.29066      0.0745         0.21652384     0.21905897     0.21714085    -2147.2939      791.62636      791.62636      791.62636      4.960903e+08   1.3456988     -49976346      -49976346       1016.3053     -49975329      -2136.9242     -2161.9439     -2143.0136     -6.0642495     -4.0008415      10.242604      18123.544    
    150000   340.80091      0.075          0.21514002     0.21775597     0.21569627    -2133.7027      791.99473      791.99473      791.99473      4.9678316e+08  1.343822      -49955113      -49955113       1014.8469     -49954098      -2123.267      -2149.0843     -2128.7567     -5.3466375     -3.5641568      10.103156      17327.114    
    151000   339.82987      0.0755         0.21380176     0.21639626     0.21439687    -2120.5523      792.3631       792.3631       792.3631       4.9747667e+08  1.3419486     -49933996      -49933996       1011.9553     -49932984      -2110.0593     -2135.665      -2115.9326     -5.0024582     -3.3203853      10.34193       17823.64     
    152000   338.29118      0.076          0.21259297     0.21498834     0.21314659    -2107.8309      792.73146      792.73146      792.73146      4.9817082e+08  1.3400787     -49912983      -49912983       1007.3734     -49911976      -2098.1295     -2121.77       -2103.5933     -4.9475275     -3.129756       10.212311      18215.667    
    153000   336.79353      0.0765         0.21138848     0.21356415     0.21187003    -2094.9836      793.09983      793.09983      793.09983      4.9886562e+08  1.3382123     -49892072      -49892072       1002.9136     -49891069      -2086.2421     -2107.7143     -2090.9946     -4.52052       -3.176443       9.8796133      17789.651    
    154000   335.70854      0.077          0.21009662     0.21220274     0.21066128    -2082.2786      793.4682       793.4682       793.4682       4.9956107e+08  1.3363494     -49871260      -49871260       999.68272     -49870261      -2073.4924     -2094.2782     -2079.0652     -4.2080446     -3.3103856      9.3860053      18235.455    
    155000   334.94247      0.0775         0.20883085     0.21095817     0.20951964    -2070.2645      793.83657      793.83657      793.83657      5.0025716e+08  1.3344899     -49850550      -49850550       997.40148     -49849553      -2061.0003     -2081.9952     -2067.7981     -4.225882      -2.8237625      9.000916       17977.377    
    156000   334.35123      0.078          0.2077615      0.2097694      0.20833656    -2058.9439      794.20494      794.20494      794.20494      5.009539e+08   1.3326339     -49829943      -49829943       995.64086     -49828948      -2050.4466     -2070.263      -2056.122      -4.4025556     -2.2764404      8.3945919      17751.864    
    157000   333.71287      0.0785         0.2068852      0.20862603     0.20716119    -2048.433       794.57331      794.57331      794.57331      5.0165128e+08  1.3307813     -49809428      -49809428       993.73994     -49808435      -2041.7982     -2058.9788     -2044.522      -4.4692794     -1.9249603      7.6070264      17896.779    
    158000   332.75214      0.079          0.20592331     0.20753958     0.20600643    -2037.8956      794.94168      794.94168      794.94168      5.0234931e+08  1.3289321     -49788999      -49788999       990.87904     -49788008      -2032.3051     -2048.2564     -2033.1254     -4.0487074     -1.4925044      7.5754631      18117.4      
    159000   331.79106      0.0795         0.20475086     0.20643318     0.20484291    -2026.5711      795.31005      795.31005      795.31005      5.0304799e+08  1.3270864     -49768656      -49768656       988.01712     -49767668      -2020.7338     -2037.3371     -2021.6423     -3.1984345     -1.0676237      8.5662583      17913.453    
    160000   331.07375      0.08           0.20353608     0.20532022     0.20373808    -2015.2788      795.67842      795.67842      795.67842      5.0374731e+08  1.325244      -49748400      -49748400       985.88111     -49747415      -2008.7449     -2026.353      -2010.7385     -2.7287057     -0.59904743     9.3493327      17977.53     
    161000   330.34846      0.0805         0.20240132     0.20416376     0.20272696    -2004.415       796.04679      796.04679      796.04679      5.0444729e+08  1.3234051     -49728231      -49728231       983.72129     -49727247      -1997.5457     -2014.9397     -2000.7595     -3.0209835     -0.23902772     9.0498969      18032.523    
    162000   329.41929      0.081          0.20140324     0.20307525     0.20175477    -1994.3523      796.41516      796.41516      796.41516      5.0514791e+08  1.3215696     -49708139      -49708139       980.95439     -49707158      -1987.6954     -2004.1969     -1991.1647     -3.2559611     -0.21820517     8.1280331      17814.692    
    163000   328.55914      0.0815         0.2005088      0.20211603     0.20074697    -1984.9389      796.78353      796.78353      796.78353      5.0584918e+08  1.3197375     -49688126      -49688126       978.39303     -49687147      -1978.868      -1994.7302     -1981.2186     -3.1388203     -0.24586962     7.3982617      18023.018    
    164000   328.2319       0.082          0.19969666     0.20125283     0.19971576    -1976.0351      797.1519       797.1519       797.1519       5.0655109e+08  1.3179088     -49668188      -49668188       977.41856     -49667210      -1970.8528     -1986.211      -1971.0413     -2.9833866     -0.19511264     7.3392608      17940.745    
    165000   327.77736      0.0825         0.19892187     0.20043661     0.19885225    -1967.9603      797.52027      797.52027      797.52027      5.0725366e+08  1.3160834     -49648314      -49648314       976.065       -49647338      -1963.2063     -1978.1555     -1962.5191     -2.6207231     -0.45042536     7.6175355      18115.527    
    166000   326.80591      0.083          0.19806148     0.19945091     0.19803918    -1959.2123      797.88864      797.88864      797.88864      5.0795688e+08  1.3142614     -49628507      -49628507       973.17221     -49627534      -1954.7148     -1968.4274     -1954.4948     -2.0704606     -0.47592533     7.9570082      17725.563    
    167000   325.99918      0.0835         0.19713079     0.19832103     0.1971165     -1949.3982      798.25701      798.25701      798.25701      5.0866074e+08  1.3124428     -49608772      -49608772       970.76988     -49607802      -1945.5296     -1957.2764     -1945.3886     -2.0888055      0.30511226     8.1379255      18206.71     
    168000   325.6496       0.084          0.19626704     0.19737473     0.19614226    -1940.2386      798.62538      798.62538      798.62538      5.0936526e+08  1.3106275     -49589111      -49589111       969.7289      -49588141      -1937.0051     -1947.9371     -1935.7736     -2.5010986      1.5273502      7.8913699      17869.638    
    169000   325.57649      0.0845         0.19548075     0.19669072     0.19528903    -1932.5948      798.99375      798.99375      798.99375      5.1007043e+08  1.3088156     -49569511      -49569511       969.51119     -49568542      -1929.245      -1941.1865     -1927.3528     -2.5445147      1.5602359      7.154675       17960.531    
    170000   325.57313      0.085          0.19470722     0.19609282     0.19455882    -1925.6809      799.36212      799.36212      799.36212      5.1077624e+08  1.307007      -49549965      -49549965       969.50119     -49548995      -1921.6109     -1935.2857     -1920.1463     -1.9646775      0.86223992     6.3257687      18065.221    
    171000   325.3071       0.0855         0.1939789      0.1953349      0.19381143    -1918.3329      799.73049      799.73049      799.73049      5.1148271e+08  1.3052017     -49530482      -49530482       968.709       -49529513      -1914.4229     -1927.8056     -1912.7701     -1.3470129      0.72798849     5.9585049      17960.891    
    172000   324.44296      0.086          0.19326646     0.19442831     0.19296683    -1910.2281      800.09886      800.09886      800.09886      5.1218983e+08  1.3033998     -49511068      -49511068       966.13572     -49510102      -1907.3917     -1918.8582     -1904.4346     -1.2855144      1.186635       6.4821647      18066.571    
    173000   323.46906      0.0865         0.19247331     0.19349571     0.19210773    -1901.7247      800.46723      800.46723      800.46723      5.128976e+08   1.3016012     -49491716      -49491716       963.23564     -49490753      -1899.5639     -1909.6542     -1895.9559     -1.7050574      1.56862        7.6088366      17984.508    
    174000   323.08461      0.087          0.19165864     0.19269446     0.19132897    -1893.8468      800.8356       800.8356       800.8356       5.1360602e+08  1.2998059     -49472416      -49472416       962.09079     -49471454      -1891.5237     -1901.7464     -1888.2701     -2.2881907      1.4875861      8.1171949      17951.906    
    175000   323.14806      0.0875         0.19093144     0.192006       0.19061484    -1886.8403      801.20397      801.20397      801.20397      5.143151e+08   1.2980139     -49453163      -49453163       962.27973     -49452201      -1884.3468     -1894.9518     -1881.2222     -2.447092       1.1912916      7.7326942      17935.435    
    176000   322.88594      0.088          0.19036355     0.19134979     0.1899351     -1880.5772      801.57234      801.57234      801.57234      5.1502482e+08  1.2962251     -49433959      -49433959       961.49919     -49432997      -1878.7422     -1888.4756     -1874.5137     -2.0989233      1.1821135      7.1074614      18090.321    
    177000   322.13861      0.0885         0.18979928     0.19067517     0.18925961    -1874.2793      801.94071      801.94071      801.94071      5.157352e+08   1.2944397     -49414812      -49414812       959.27377     -49413853      -1873.1732     -1881.8176     -1867.8471     -1.6997332      1.8912413      6.9720629      17954.051    
    178000   321.61522      0.089          0.18906276     0.18990702     0.18850492    -1866.8466      802.30908      802.30908      802.30908      5.1644623e+08  1.2926575     -49395724      -49395724       957.7152      -49394766      -1865.9044     -1874.2365     -1860.3989     -1.3787423      2.7496344      7.391232       17964.836    
    179000   321.78582      0.0895         0.1882631      0.18910366     0.18777017    -1859.156       802.67745      802.67745      802.67745      5.1715792e+08  1.2908787     -49376689      -49376689       958.22323     -49375731      -1858.0124     -1866.308      -1853.1475     -1.2936704      2.7795432      7.7183207      18091.051    
    180000   321.91809      0.09           0.18756835     0.18840849     0.18718783    -1852.6677      803.04581      803.04581      803.04581      5.1787026e+08  1.289103      -49357701      -49357701       958.61711     -49356742      -1851.1557     -1859.4473     -1847.4003     -1.2858388      2.1520629      7.5592108      17944.555    
    181000   321.42399      0.0905         0.18698147     0.18781059     0.1866374     -1846.9593      803.41418      803.41418      803.41418      5.1858325e+08  1.2873307     -49338751      -49338751       957.14576     -49337794      -1845.3636     -1853.5464     -1841.9679     -1.5311275      1.2839156      7.354871       18181.074    
    182000   321.03089      0.091          0.18640447     0.18723584     0.18592407    -1840.8237      803.78255      803.78255      803.78255      5.192969e+08   1.2855615     -49319847      -49319847       955.97516     -49318891      -1839.6691     -1847.8741     -1834.9279     -1.8197474      1.1581024      7.7919979      17905.658    
    183000   321.15779      0.0915         0.18581049     0.1866044      0.18511907    -1834.1441      804.15092      804.15092      804.15092      5.200112e+08   1.2837957     -49301000      -49301000       956.35305     -49300043      -1833.807      -1841.6422     -1826.9832     -1.7763622      1.5103655      7.8465181      18172.834    
    184000   321.1283       0.092          0.18520156     0.18588883     0.18444441    -1827.5674      804.51929      804.51929      804.51929      5.2072615e+08  1.282033      -49282205      -49282205       956.26525     -49281249      -1827.7973     -1834.5801     -1820.3248     -1.6845466      1.4833962      7.120259       17954.124    
    185000   320.77185      0.0925         0.18454249     0.1851094      0.18390505    -1821.0608      804.88766      804.88766      804.88766      5.2144176e+08  1.2802736     -49263455      -49263455       955.20381     -49262500      -1821.2928     -1826.8878     -1815.0018     -1.4011604      1.1320594      6.5676106      18184.549    
    186000   320.63011      0.093          0.18380128     0.18444991     0.18335713    -1814.6503      805.25603      805.25603      805.25603      5.2215803e+08  1.2785174     -49244750      -49244750       954.78172     -49243796      -1813.9776     -1820.3791     -1809.5942     -0.79074068     1.0218982      6.8411882      17989.203    
    187000   320.57183      0.0935         0.18312762     0.1839371      0.18278065    -1808.8506      805.6244       805.6244       805.6244       5.2287495e+08  1.2767644     -49226088      -49226088       954.60816     -49225133      -1807.3291     -1815.318      -1803.9048     -0.34511046     1.5864369      6.93435        18034.534    
    188000   320.16122      0.094          0.18260078     0.18346589     0.18215519    -1803.5097      805.99277      805.99277      805.99277      5.2359253e+08  1.2750146     -49207463      -49207463       953.38544     -49206510      -1802.1296     -1810.6675     -1797.7319     -0.72612429     2.3126687      6.4762619      18060.243    
    189000   319.74143      0.0945         0.18205976     0.18292098     0.18142128    -1797.5229      806.36114      806.36114      806.36114      5.2431076e+08  1.273268      -49188883      -49188883       952.13538     -49187931      -1796.7902     -1805.2897     -1790.4888     -1.53639        2.4079967      6.3070438      17860.319    
    190000   319.76489      0.095          0.18147643     0.18223791     0.18070319    -1790.9944      806.72951      806.72951      806.72951      5.2502965e+08  1.2715246     -49170355      -49170355       952.20523     -49169402      -1791.0331     -1798.5483     -1783.4019     -1.7939333      1.792455       6.6498802      18190.628    
    191000   319.99856      0.0955         0.180955       0.18152183     0.18021808    -1785.3274      807.09788      807.09788      807.09788      5.257492e+08   1.2697844     -49151869      -49151869       952.90107     -49150916      -1785.887      -1791.4811     -1778.6142     -1.3828067      1.0928713      7.2433081      17925.905    
    192000   319.89342      0.096          0.18052259     0.18097101     0.17986813    -1780.9416      807.46625      807.46625      807.46625      5.2646941e+08  1.2680473     -49133414      -49133414       952.58799     -49132462      -1781.6194     -1786.045      -1775.1604     -0.98813276     1.1385161      7.5545259      18104.658    
    193000   319.52054      0.0965         0.18009792     0.18052327     0.17937485    -1776.4489      807.83462      807.83462      807.83462      5.2719027e+08  1.2663134     -49114991      -49114991       951.47761     -49114040      -1777.4283     -1781.6262     -1770.2922     -1.0563852      1.6496895      7.2778976      17928.378    
    194000   319.32672      0.097          0.17950246     0.18000031     0.17867466    -1770.4661      808.20299      808.20299      808.20299      5.2791179e+08  1.2645827     -49096611      -49096611       950.90045     -49095660      -1771.5516     -1776.465      -1763.3818     -1.3243303      2.1807828      6.6712851      18185.046    
    195000   319.29224      0.0975         0.17880238     0.1793839      0.17798497    -1763.8663      808.57136      808.57136      808.57136      5.2863396e+08  1.2628551     -49078275      -49078275       950.79777     -49077325      -1764.6423     -1770.3815     -1756.575      -1.4261927      2.1923027      6.2254262      17933.989    
    196000   319.21179      0.098          0.17814846     0.17874718     0.17737866    -1757.6258      808.93973      808.93973      808.93973      5.293568e+08   1.2611307     -49059985      -49059985       950.5582      -49059035      -1758.1886     -1764.0975     -1750.5913     -1.2159833      1.4176541      6.6107655      18090.407    
    197000   319.08998      0.0985         0.17759482     0.17815531     0.17690377    -1752.2951      809.3081       809.3081       809.3081       5.3008029e+08  1.2594094     -49041734      -49041734       950.19548     -49040783      -1752.7246     -1758.2562     -1745.9045     -0.86377897     0.49291393     7.2463839      18083.412    
    198000   318.96963      0.099          0.17713452     0.17770745     0.17649003    -1747.9464      809.67647      809.67647      809.67647      5.3080445e+08  1.2576913     -49023515      -49023515       949.83709     -49022565      -1748.1818     -1753.8361     -1741.8212     -0.64930383     0.58390985     6.9456582      17970.282    
    199000   319.00773      0.0995         0.17665232     0.17726229     0.17599102    -1743.254       810.04484      810.04484      810.04484      5.3152926e+08  1.2559762     -49005333      -49005333       949.95055     -49004384      -1743.4229     -1749.4427     -1736.8963     -0.3654071      1.3823716      6.4645271      18130.615    
    200000   318.99635      0.1            0.17616776     0.17670706     0.17539617    -1737.8764      810.41321      810.41321      810.41321      5.3225473e+08  1.2542643     -48987197      -48987197       949.91665     -48986247      -1738.6406     -1743.9631     -1731.0256     -0.37466976     1.6520098      6.5374616      17158.187    
    201000   318.73836      0.1005         0.17565926     0.17609272     0.17474259    -1732.0324      810.78158      810.78158      810.78158      5.3298086e+08  1.2525555     -48969100      -48969100       949.14842     -48968151      -1733.6221     -1737.9        -1724.5753     -0.70602607     1.4495478      6.8178823      18116.205    
    202000   318.64812      0.101          0.17511323     0.17548468     0.17411561    -1726.1733      811.14995      811.14995      811.14995      5.3370766e+08  1.2508498     -48951039      -48951039       948.87968     -48950091      -1728.2332     -1731.8991     -1718.3875     -0.80196552     1.3183385      7.1069389      17959.207    
    203000   318.63044      0.1015         0.1745708      0.17494319     0.17368522    -1721.1916      811.51832      811.51832      811.51832      5.3443511e+08  1.2491472     -48933009      -48933009       948.82705     -48932060      -1722.8798     -1726.555      -1714.1399     -0.85510228     1.1370465      6.8914452      18052.298    
    204000   318.41535      0.102          0.17410703     0.17451027     0.17340022    -1717.3042      811.88669      811.88669      811.88669      5.3516322e+08  1.2474477     -48915008      -48915008       948.18655     -48914060      -1718.3028     -1722.2825     -1711.3271     -1.1165656      0.52031885     6.3929872      17947.431    
    205000   318.45628      0.1025         0.17373379     0.17404812     0.17302363    -1713.317       812.25506      812.25506      812.25506      5.35892e+08    1.2457513     -48897042      -48897042       948.30841     -48896094      -1714.6192     -1717.7214     -1707.6104     -1.1876804      0.42635196     6.1533941      18081.929    
    206000   318.87331      0.103          0.17332125     0.17356187     0.17249154    -1708.6098      812.62343      812.62343      812.62343      5.3662143e+08  1.2440579     -48879113      -48879113       949.55026     -48878163      -1710.5477     -1712.9225     -1702.3591     -0.74140871     1.3445089      6.3225338      17991.391    
    207000   319.10714      0.1035         0.17278441     0.17307739     0.17189882    -1703.3         812.9918       812.9918       812.9918       5.3735153e+08  1.2423676     -48861217      -48861217       950.24658     -48860266      -1705.2495     -1708.141      -1696.5095     -0.37897738     1.866837       6.012706       17973.752    
    208000   318.97138      0.104          0.17219455     0.17254204     0.17131375    -1697.6736      813.36016      813.36016      813.36016      5.3808229e+08  1.2406804     -48843358      -48843358       949.84229     -48842408      -1699.428      -1702.8576     -1690.7352     -0.7800103      1.3407302      5.2969747      18077.545    
    209000   318.8981       0.1045         0.17167369     0.17200191     0.17077502    -1692.411       813.72853      813.72853      813.72853      5.3881371e+08  1.2389962     -48825536      -48825536       949.6241      -48824586      -1694.2876     -1697.5269     -1685.4184     -1.2263692      0.77825727     5.0972471      17932.721    
    210000   318.90063      0.105          0.1712818      0.1715981      0.17037454    -1688.4758      814.0969       814.0969       814.0969       5.3954579e+08  1.237315      -48807748      -48807748       949.63163     -48806799      -1690.42       -1693.5416     -1681.466      -1.0097524      0.62898776     5.6949265      18064.543    
    211000   318.57728      0.1055         0.17088992     0.17120417     0.16999936    -1684.6565      814.46527      814.46527      814.46527      5.4027854e+08  1.2356369     -48789987      -48789987       948.66874     -48789038      -1686.5524     -1689.6538     -1677.7632     -0.44526915     0.64915979     6.2443708      17881.904    
    212000   318.26004      0.106          0.17037222     0.17070001     0.16949575    -1679.6381      814.83364      814.83364      814.83364      5.4101195e+08  1.2339619     -48772256      -48772256       947.72406     -48771309      -1681.4431     -1684.6781     -1672.793      -0.078047646    1.0164663      6.5196307      18176.645    
    213000   318.45983      0.1065         0.16979941     0.17015572     0.16894909    -1674.1647      815.20201      815.20201      815.20201      5.4174602e+08  1.2322898     -48754564      -48754564       948.31899     -48753616      -1675.7899     -1679.3064     -1667.3979     -0.040864107    1.2739447      6.713615       17919.08     
    214000   318.50451      0.107          0.16931172     0.16969083     0.16847077    -1669.4574      815.57038      815.57038      815.57038      5.4248076e+08  1.2306208     -48736906      -48736906       948.45204     -48735958      -1670.9767     -1674.7183     -1662.6772     -0.31314417     1.0606585      6.323547       17989.038    
    215000   318.24315      0.1075         0.16890377     0.169225       0.16803882    -1665.1619      815.93875      815.93875      815.93875      5.4321616e+08  1.2289548     -48719280      -48719280       947.67376     -48718333      -1666.9506     -1670.1209     -1658.4142     -0.63030377     0.81991238     5.6984449      17962.958    
    216000   318.26249      0.108          0.16853301     0.16872983     0.16757137    -1660.7754      816.30712      816.30712      816.30712      5.4395222e+08  1.2272918     -48701687      -48701687       947.73134     -48700740      -1663.2915     -1665.2339     -1653.8009     -0.56841665     1.0433682      5.3552097      17920.709    
    217000   318.48607      0.1085         0.16816247     0.16833568     0.16711776    -1656.7675      816.67549      816.67549      816.67549      5.4468895e+08  1.2256318     -48684123      -48684123       948.39713     -48683175      -1659.6345     -1661.344      -1649.324      -0.21746752     1.3911533      5.235396       18112.402    
[...]
   2873000   317.90486      1.4365         0.017701799    0.01762544     0.017482298   -173.72987      1795.0653      1795.0653      1795.0653      5.7841657e+09  0.11541649    -18076450      -18076450       946.66639     -18075504      -174.70318     -173.94956     -172.53687     -0.17018408     0.60317018     0.9460658      18075.177    
   2874000   317.91724      1.437          0.017686748    0.017611835    0.017468501   -173.59021      1795.4336      1795.4336      1795.4336      5.7877273e+09  0.11534547    -18067543      -18067543       946.70324     -18066596      -174.55463     -173.8153      -172.4007      -0.17043681     0.60924173     0.93307029     17941.644    
   2875000   317.90916      1.4375         0.017672019    0.017598034    0.017458326   -173.46288      1795.802       1795.802       1795.802       5.7912905e+09  0.1152745     -18058638      -18058638       946.6792      -18057691      -174.40927     -173.6791      -172.30028     -0.15387152     0.60706413     0.91684805     17987.875    
   2876000   317.88715      1.438          0.017657829    0.01758525     0.017447285   -173.33782      1796.1704      1796.1704      1796.1704      5.7948551e+09  0.11520359    -18049736      -18049736       946.61366     -18048789      -174.26922     -173.55293     -172.19132     -0.141588       0.60471367     0.91102035     18069.039    
   2877000   317.87775      1.4385         0.017643816    0.017573039    0.017434247   -173.20866      1796.5387      1796.5387      1796.5387      5.7984211e+09  0.11513274    -18040837      -18040837       946.58565     -18039890      -174.13093     -173.43241     -172.06264     -0.13436473     0.59387275     0.93384091     10926.442    
   2878000   317.89984      1.439          0.017631085    0.017560486    0.017421634   -173.08399      1796.9071      1796.9071      1796.9071      5.8019887e+09  0.11506195    -18031941      -18031941       946.65143     -18030994      -174.00528     -173.30853     -171.93816     -0.12719677     0.58215094     0.97354455     13717.918    
   2879000   317.93423      1.4395         0.017619838    0.017547709    0.017412282   -172.97419      1797.2755      1797.2755      1797.2755      5.8055577e+09  0.11499121    -18023048      -18023048       946.75386     -18022101      -173.89428     -173.18242     -171.84586     -0.12653034     0.57748348     0.99815621     18065.322    
   2880000   317.95733      1.44           0.017608971    0.017535085    0.01740704    -172.87966      1797.6438      1797.6438      1797.6438      5.8091281e+09  0.11492054    -18014156      -18014156       946.82263     -18013209      -173.78703     -173.05783     -171.79413     -0.14614204     0.57680737     0.99618084     17880.329    
   2881000   317.97457      1.4405         0.017598366    0.017523952    0.017403011   -172.7949       1798.0122      1798.0122      1798.0122      5.8127e+09     0.11484992    -18005266      -18005266       946.87396     -18004319      -173.68237     -172.94796     -171.75436     -0.17959349     0.58646603     0.97859277     18104.182    
   2882000   317.99725      1.441          0.017589025    0.017514525    0.017395511   -172.70848      1798.3806      1798.3806      1798.3806      5.8162734e+09  0.11477936    -17996376      -17996376       946.94151     -17995429      -173.59018     -172.85493     -171.68034     -0.19651032     0.5980335      0.95723628     17896.817    
   2883000   318.02658      1.4415         0.017580619    0.017506932    0.017384232   -172.61875      1798.749       1798.749       1798.749       5.8198483e+09  0.11470885    -17987486      -17987486       947.02886     -17986539      -173.50722     -172.77999     -171.56903     -0.17859047     0.59127374     0.9234048      17948.849    
   2884000   318.05599      1.442          0.017569935    0.01750101     0.017370195   -172.51794      1799.1173      1799.1173      1799.1173      5.8234246e+09  0.11463841    -17978599      -17978599       947.11641     -17977652      -173.40178     -172.72154     -171.43049     -0.14761507     0.57013583     0.87324101     17852.855    
   2885000   318.07369      1.4425         0.017556308    0.017495075    0.017356398   -172.40819      1799.4857      1799.4857      1799.4857      5.8270023e+09  0.11456802    -17969713      -17969713       947.16914     -17968766      -173.26728     -172.66297     -171.29433     -0.13512402     0.55524132     0.83326712     17839.903    
   2886000   318.08783      1.443          0.017541434    0.017484466    0.017345029   -172.28696      1799.8541      1799.8541      1799.8541      5.8305816e+09  0.11449769    -17960830      -17960830       947.21123     -17959882      -173.1205      -172.55827     -171.18212     -0.136185       0.56394761     0.83200742     17961.138    
   2887000   318.1126       1.4435         0.017529806    0.017469817    0.017333849   -172.16374      1800.2224      1800.2224      1800.2224      5.8341623e+09  0.11442742    -17951949      -17951949       947.28499     -17951002      -173.00574     -172.41368     -171.07178     -0.13400007     0.5902067      0.86378081     17812.229    
   2888000   318.12292      1.444          0.017523111    0.017453518    0.017321057   -172.04601      1800.5908      1800.5908      1800.5908      5.8377445e+09  0.1143572     -17943071      -17943071       947.31573     -17942124      -172.93966     -172.25283     -170.94554     -0.12051146     0.6190804      0.89282034     17994.371    
   2889000   318.08896      1.4445         0.01751718     0.017436924    0.017306619   -171.92441      1800.9592      1800.9592      1800.9592      5.8413281e+09  0.11428704    -17934196      -17934196       947.21461     -17933249      -172.88113     -172.08906     -170.80305     -0.11135487     0.63481957     0.89491006     17893.449    
   2890000   318.02685      1.445          0.017505483    0.017421121    0.017290762   -171.78178      1801.3275      1801.3275      1801.3275      5.8449132e+09  0.11421694    -17925323      -17925323       947.02964     -17924376      -172.76568     -171.9331      -170.64656     -0.1171645      0.63370746     0.88179891     18089.109    
   2891000   317.97375      1.4455         0.017488588    0.017407001    0.017276925   -171.63423      1801.6959      1801.6959      1801.6959      5.8484998e+09  0.1141469     -17916455      -17916455       946.87154     -17915508      -172.59895     -171.79374     -170.50999     -0.1191933      0.63220051     0.87292785     17844.397    
   2892000   317.94865      1.446          0.017472184    0.017395833    0.017266812   -171.51025      1802.0643      1802.0643      1802.0643      5.8520878e+09  0.11407692    -17907590      -17907590       946.79679     -17906644      -172.43705     -171.68352     -170.41019     -0.11106532     0.64348594     0.87287737     17954.288    
   2893000   317.94491      1.4465         0.017459216    0.017388786    0.017257849   -171.41492      1802.4326      1802.4326      1802.4326      5.8556773e+09  0.11400699    -17898728      -17898728       946.78564     -17897781      -172.30906     -171.61398     -170.32173     -0.10636703     0.66064626     0.88215179     17846.425    
   2894000   317.95887      1.447          0.017449028    0.017382422    0.017246842   -171.32426      1802.801       1802.801       1802.801       5.8592683e+09  0.11393711    -17889866      -17889866       946.82723     -17888919      -172.20852     -171.55116     -170.2131      -0.11592353     0.65824257     0.8896586      17793.876    
   2895000   317.97365      1.4475         0.01743976     0.017373351    0.01723388    -171.22129      1803.1694      1803.1694      1803.1694      5.8628607e+09  0.1138673     -17881005      -17881005       946.87123     -17880059      -172.11705     -171.46165     -170.08517     -0.14175492     0.6369301      0.87931531     18029.835    
   2896000   317.97703      1.448          0.017428058    0.017360427    0.017220322   -171.09567      1803.5378      1803.5378      1803.5378      5.8664546e+09  0.11379754    -17872147      -17872147       946.88129     -17871200      -172.00156     -171.33409     -169.95137     -0.17062636     0.62028749     0.86610667     17889.84     
   2897000   317.98047      1.4485         0.017415188    0.017345567    0.017207274   -170.96152      1803.9061      1803.9061      1803.9061      5.87005e+09    0.11372784    -17863292      -17863292       946.89153     -17862346      -171.87454     -171.18743     -169.82259     -0.19074865     0.61545502     0.86510052     18004.274    
   2898000   317.98483      1.449          0.017403418    0.017331643    0.017196468   -170.84144      1804.2745      1804.2745      1804.2745      5.8736468e+09  0.1136582     -17854441      -17854441       946.90453     -17853494      -171.75838     -171.05001     -169.71594     -0.20131942     0.61050539     0.87782295     17826.586    
   2899000   317.99276      1.4495         0.017391994    0.017318785    0.017187051   -170.73059      1804.6429      1804.6429      1804.6429      5.8772452e+09  0.11358861    -17845592      -17845592       946.92815     -17844645      -171.64564     -170.92311     -169.62301     -0.20081373     0.5958659      0.8875363      17981.811    
   2900000   318.01974      1.45           0.0173805      0.017306538    0.017179149   -170.62649      1805.0112      1805.0112      1805.0112      5.8808449e+09  0.11351908    -17836745      -17836745       947.00849     -17835797      -171.5322      -170.80225     -169.54502     -0.19780947     0.59119653     0.88194764     17268.824    
   2901000   318.06364      1.4505         0.017369611    0.017296316    0.017171238   -170.53101      1805.3796      1805.3796      1805.3796      5.8844462e+09  0.11344961    -17827899      -17827899       947.13922     -17826952      -171.42473     -170.70137     -169.46694     -0.1958143      0.6117745      0.88112313     17704.178    
   2902000   318.09262      1.451          0.017358413    0.017287729    0.017158879   -170.42527      1805.748       1805.748       1805.748       5.8880489e+09  0.11338019    -17819055      -17819055       947.2255      -17818108      -171.31422     -170.61662     -169.34497     -0.19832792     0.64177948     0.88694637     17858.573    
   2903000   318.09365      1.4515         0.01734521     0.017277774    0.017141786   -170.29285      1806.1163      1806.1163      1806.1163      5.8916531e+09  0.11331083    -17810213      -17810213       947.22858     -17809266      -171.18391     -170.51837     -169.17627     -0.20346794     0.64918673     0.88929959     17760.633    
   2904000   318.08607      1.452          0.017330068    0.017265497    0.01712537    -170.14865      1806.4847      1806.4847      1806.4847      5.8952588e+09  0.11324153    -17801376      -17801376       947.20599     -17800428      -171.03448     -170.39721     -169.01426     -0.20618778     0.62149181     0.88422002     17974.174    
   2905000   318.07699      1.4525         0.017315863    0.017251808    0.017113663   -170.01837      1806.8531      1806.8531      1806.8531      5.8988659e+09  0.11317228    -17792542      -17792542       947.17897     -17791595      -170.89428     -170.26211     -168.89872     -0.20366292     0.57858025     0.8682154      17810.261    
   2906000   318.05182      1.453          0.017304353    0.017239144    0.017105785   -169.91293      1807.2215      1807.2215      1807.2215      5.9024745e+09  0.11310309    -17783711      -17783711       947.10402     -17782763      -170.78068     -170.13712     -168.82098     -0.19322425     0.54678208     0.85774115     18059.842    
   2907000   318.00927      1.4535         0.017297108    0.017226825    0.01709842    -169.82434      1807.5898      1807.5898      1807.5898      5.9060846e+09  0.11303396    -17774880      -17774880       946.9773      -17773934      -170.70919     -170.01555     -168.74828     -0.17591029     0.55057152     0.86018082     17867.155    
   2908000   317.97529      1.454          0.01729226     0.017213651    0.017089563   -169.73591      1807.9582      1807.9582      1807.9582      5.9096961e+09  0.11296488    -17766051      -17766051       946.87611     -17765104      -170.66133     -169.88553     -168.66088     -0.15746597     0.58014099     0.86143672     18037.313    
   2909000   317.95712      1.4545         0.01728366     0.017200796    0.017078899   -169.63025      1808.3266      1808.3266      1808.3266      5.9133092e+09  0.11289586    -17757223      -17757223       946.822       -17756276      -170.57646     -169.75866     -168.55563     -0.1380786      0.59901389     0.85494487     17872.028    
   2910000   317.95184      1.455          0.017268034    0.017187993    0.017066214   -169.49499      1808.6949      1808.6949      1808.6949      5.9169236e+09  0.1128269     -17748398      -17748398       946.80628     -17747451      -170.42224     -169.6323      -168.43043     -0.12080683     0.6029035      0.84580743     18002.668    
   2911000   317.98138      1.4555         0.017250322    0.017176706    0.017052125   -169.35325      1809.0633      1809.0633      1809.0633      5.9205396e+09  0.11275799    -17739576      -17739576       946.89425     -17738630      -170.24744     -169.5209      -168.29139     -0.10615257     0.60079472     0.84501198     18028.528    
   2912000   318.0388       1.456          0.01723606     0.0171682      0.017039116   -169.23555      1809.4317      1809.4317      1809.4317      5.924157e+09   0.11268913    -17730759      -17730759       947.06522     -17729812      -170.10669     -169.43696     -168.163       -0.10197683     0.58823845     0.84694814     17821.402    
   2913000   318.08386      1.4565         0.017225013    0.017159974    0.017028653   -169.13773      1809.8         1809.8         1809.8         5.927776e+09   0.11262034    -17721943      -17721943       947.19941     -17720996      -169.99766     -169.35578     -168.05973     -0.11976055     0.56840576     0.84762069     18051.258    
   2914000   318.09779      1.457          0.017213768    0.017148259    0.017018688   -169.02941      1810.1684      1810.1684      1810.1684      5.9313963e+09  0.1125516     -17713129      -17713129       947.24091     -17712181      -169.88668     -169.24016     -167.96139     -0.14410723     0.55442799     0.8599024      17874.893    
   2915000   318.09585      1.4575         0.017202641    0.017134738    0.017005378   -168.90454      1810.5368      1810.5368      1810.5368      5.9350182e+09  0.11248291    -17704317      -17704317       947.23514     -17703370      -169.77686     -169.10672     -167.83003     -0.157141       0.54890283     0.87658228     18056.546    
   2916000   318.09402      1.458          0.01719362     0.017122872    0.016988694   -168.78094      1810.9051      1810.9051      1810.9051      5.9386415e+09  0.11241428    -17695509      -17695509       947.22969     -17694561      -169.68784     -168.9896      -167.66538     -0.15393761     0.5515557      0.88973709     17905.356    
   2917000   318.09517      1.4585         0.017185238    0.017114544    0.016975175   -168.68149      1811.2735      1811.2735      1811.2735      5.9422663e+09  0.11234571    -17686703      -17686703       947.23311     -17685755      -169.60512     -168.90742     -167.53195     -0.14020976     0.56011113     0.89506576     18054.629    
   2918000   318.09667      1.459          0.017176896    0.017108381    0.01696898    -168.6134       1811.6419      1811.6419      1811.6419      5.9458926e+09  0.11227719    -17677897      -17677897       947.23756     -17676950      -169.52278     -168.84659     -167.47081     -0.14293553     0.57121964     0.89038501     17888.093    
   2919000   318.08803      1.4595         0.017166686    0.017099609    0.016967449   -168.54591      1812.0103      1812.0103      1812.0103      5.9495204e+09  0.11220873    -17669092      -17669092       947.21184     -17668145      -169.42202     -168.76002     -167.4557      -0.16743798     0.58906635     0.8722609      17917.18     
   2920000   318.07253      1.46           0.0171541      0.017086025    0.016965491   -168.45338      1812.3786      1812.3786      1812.3786      5.9531496e+09  0.11214032    -17660286      -17660286       947.16568     -17659339      -169.2978      -168.62596     -167.43638     -0.1833964      0.59909862     0.84406187     18107.101    
   2921000   318.08313      1.4605         0.017139961    0.017070024    0.016957623   -168.32834      1812.747       1812.747       1812.747       5.9567803e+09  0.11207197    -17651483      -17651483       947.19724     -17650536      -169.15826     -168.46804     -167.35873     -0.16908803     0.60230361     0.81893653     18011.141    
   2922000   318.12431      1.461          0.017126589    0.017055647    0.01694389    -168.19188      1813.1154      1813.1154      1813.1154      5.9604125e+09  0.11200368    -17642684      -17642684       947.31988     -17641737      -169.02629     -168.32615     -167.2232      -0.13837216     0.6064048      0.81346518     18175.701    
   2923000   318.15446      1.4615         0.017115459    0.017044284    0.016928136   -168.06605      1813.4837      1813.4837      1813.4837      5.9640462e+09  0.11193544    -17633888      -17633888       947.40965     -17632941      -168.91644     -168.214       -167.06771     -0.11004153     0.59045308     0.82806964     18011.505    
   2924000   318.14563      1.462          0.017106374    0.01703335     0.016911947   -167.94694      1813.8521      1813.8521      1813.8521      5.9676813e+09  0.11186725    -17625095      -17625095       947.38336     -17624148      -168.82678     -168.1061      -166.90794     -0.10196113     0.56588127     0.84228698     18180.715    
   2925000   318.12618      1.4625         0.017097632    0.01702058     0.016895564   -167.82228      1814.2205      1814.2205      1814.2205      5.9713179e+09  0.11179913    -17616305      -17616305       947.32544     -17615358      -168.7405      -167.98007     -166.74626     -0.1204754      0.5592603      0.85003619     17937.236    
   2926000   318.11763      1.463          0.017088529    0.017009199    0.016882465   -167.7118       1814.5888      1814.5888      1814.5888      5.974956e+09   0.11173105    -17607518      -17607518       947.29998     -17606571      -168.65067     -167.86774     -166.61698     -0.13651578     0.56916308     0.85969167     18146.555    
   2927000   318.1145       1.4635         0.017079645    0.017000419    0.016873606   -167.62454      1814.9572      1814.9572      1814.9572      5.9785956e+09  0.11166303    -17598732      -17598732       947.29067     -17597785      -168.56299     -167.78109     -166.52955     -0.13574339     0.58225302     0.86747622     17996.921    
   2928000   318.11108      1.464          0.017070637    0.016992557    0.016865956   -167.54388      1815.3256      1815.3256      1815.3256      5.9822366e+09  0.11159507    -17589947      -17589947       947.28046     -17589000      -168.47409     -167.7035      -166.45404     -0.11948958     0.57156866     0.86198567     17988.389    
   2929000   318.09652      1.4645         0.017059693    0.016983582    0.016857068   -167.44911      1815.694       1815.694       1815.694       5.9858791e+09  0.11152716    -17581163      -17581163       947.23713     -17580215      -168.36608     -167.61492     -166.36632     -0.095936147    0.54125331     0.84764465     18087.671    
   2930000   318.07152      1.465          0.017046853    0.016973562    0.016844874   -167.33379      1816.0623      1816.0623      1816.0623      5.9895231e+09  0.11145931    -17572380      -17572380       947.16266     -17571433      -168.23935     -167.51603     -166.24598     -0.089593039    0.53553887     0.82907121     17939.391    
ERROR on proc 0: Pair distance > table outer cutoff: ijtype 2 1 dist 308.0000036441157 (src/pair_table_pgn.cpp:138)
Last command: run				${steps_tensile}
