LAMMPS (23 Jun 2022 - Update 1)
OMP_NUM_THREADS environment is not set. Defaulting to 1 thread. (src/comm.cpp:98)
  using 1 OpenMP thread(s) per MPI task
###

# Read restart info
read_restart ${read_res}
read_restart ./trial6/5050/equpmf71.res
Reading restart file ...
  restart file = 23 Jun 2022, LAMMPS = 23 Jun 2022
  restoring atom style atomic from restart
  orthogonal box = (1674.6979 1674.6979 1674.6979) to (2325.3021 2325.3021 2325.3021)
  1 by 2 by 2 MPI processor grid
  restoring pair style table from restart
  1000 atoms
  read_restart CPU = 0.042 seconds

# Settings
pair_style table/pgn spline 10941
pair_coeff 1 1 N20e.txt DE_GNP 308 72.9   # 1.35 * r
pair_coeff 2 2 N100e.txt DE_GNP 473.9 111.78
WARNING: 20 of 10941 force values in table DE_GNP are inconsistent with -dE/dr.
WARNING:  Should only be flagged at inflection points (src/pair_table_pgn.cpp:478)
pair_coeff 1 2 mixed_potentiale.txt DE_GNP 391.2 92.95
WARNING: 1564 of 10941 force values in table DE_GNP are inconsistent with -dE/dr.
WARNING:  Should only be flagged at inflection points (src/pair_table_pgn.cpp:478)

# Neighbor list
neighbor 2.0 bin
neigh_modify delay 0 every 1 check no once yes

# Temperature
variable T equal ${Temp}
variable T equal 300

# Deformation
reset_timestep 0
variable tmp equal "lx"
variable L0 equal ${tmp}
variable L0 equal 650.604101229652
variable strain equal "(lx - v_L0)/v_L0"
variable stp equal "step"
variable tmpe equal "temp"
variable p1 equal "v_strain"
variable p2 equal "-pxx*1.01325/10000"
variable p3 equal "-pyy*1.01325/10000"
variable p4 equal "-pzz*1.01325/10000"
variable p5 equal "lx"
variable p6 equal "ly"
variable p7 equal "lz"
variable p8 equal "press"
variable p9 equal "epair"
variable p10 equal "etotal"

# Thermo
thermo_style custom step temp v_p1 v_p2 v_p3 v_p4 press lx ly lz vol density epair pe ke etotal pxx pyy pzz pxy pxz pyz spcpu
thermo ${ts_save}
thermo 1000

# Dump
# dump 1 all custom 2000 ./${N20}${N100}/tensile/trajectory/trajectory_${usic}_${trial}_*.tensile.custom id type x y z ix iy iz
# dump_modify 1 sort id
dump 2 all cfg 50000 ./trial${trial}/${N20}${N100}/tensile/trajectory/dumpten.tens_${usic}_${trial}_*.cfg mass type xs ys zs fx fy fz
dump 2 all cfg 50000 ./trial6/${N20}${N100}/tensile/trajectory/dumpten.tens_${usic}_${trial}_*.cfg mass type xs ys zs fx fy fz
dump 2 all cfg 50000 ./trial6/50${N100}/tensile/trajectory/dumpten.tens_${usic}_${trial}_*.cfg mass type xs ys zs fx fy fz
dump 2 all cfg 50000 ./trial6/5050/tensile/trajectory/dumpten.tens_${usic}_${trial}_*.cfg mass type xs ys zs fx fy fz
dump 2 all cfg 50000 ./trial6/5050/tensile/trajectory/dumpten.tens_1_${trial}_*.cfg mass type xs ys zs fx fy fz
dump 2 all cfg 50000 ./trial6/5050/tensile/trajectory/dumpten.tens_1_6_*.cfg mass type xs ys zs fx fy fz
dump_modify 2 element N20 N100

fix 1 all nvt temp ${T} ${T} 100
fix 1 all nvt temp 300 ${T} 100
fix 1 all nvt temp 300 300 100
fix 2 all deform 1 x erate ${strain_rate} y erate ${strain_rate} z erate ${strain_rate} units box
fix 2 all deform 1 x erate 5e-6 y erate ${strain_rate} z erate ${strain_rate} units box
fix 2 all deform 1 x erate 5e-6 y erate 5e-6 z erate ${strain_rate} units box
fix 2 all deform 1 x erate 5e-6 y erate 5e-6 z erate 5e-6 units box
fix             def1 all print ${ts_save} "${p1} ${p2} ${p3} ${p4}" file ./tensile/${trial}/tensile${N20}${N100}_${usic}_${trial}.txt screen no
fix             def1 all print 1000 "${p1} ${p2} ${p3} ${p4}" file ./tensile/${trial}/tensile${N20}${N100}_${usic}_${trial}.txt screen no
fix             def1 all print 1000 "${p1} ${p2} ${p3} ${p4}" file ./tensile/6/tensile${N20}${N100}_${usic}_${trial}.txt screen no
fix             def1 all print 1000 "${p1} ${p2} ${p3} ${p4}" file ./tensile/6/tensile50${N100}_${usic}_${trial}.txt screen no
fix             def1 all print 1000 "${p1} ${p2} ${p3} ${p4}" file ./tensile/6/tensile5050_${usic}_${trial}.txt screen no
fix             def1 all print 1000 "${p1} ${p2} ${p3} ${p4}" file ./tensile/6/tensile5050_1_${trial}.txt screen no
fix             def1 all print 1000 "${p1} ${p2} ${p3} ${p4}" file ./tensile/6/tensile5050_1_6.txt screen no

timestep       		${ts}
timestep       		0.1
run				${steps_tensile}
run				6000000
Generated 0 of 1 mixed pair_coeff terms from geometric mixing rule
Unused restart file global fix info:
  fix style: npt, fix ID: 5
Neighbor list info ...
  update every 1 steps, delay 0 steps, check no
  max neighbors/atom: 2000, page size: 100000
  master list distance cutoff = 113.78
  ghost atom cutoff = 113.78
  binsize = 56.89, bins = 12 12 12
  1 neighbor lists, perpetual/occasional/extra = 1 0 0
  (1) pair table/pgn, perpetual
      attributes: half, newton on
      pair build: half/bin/atomonly/newton
      stencil: half/bin/3d
      bin: standard
Per MPI rank memory allocation (min/avg/max) = 3.853 | 3.853 | 3.854 Mbytes
   Step          Temp           v_p1           v_p2           v_p3           v_p4          Press            Lx             Ly             Lz           Volume        Density         E_pair         PotEng         KinEng         TotEng          Pxx            Pyy            Pzz            Pxy            Pxz            Pyz           S/CPU     
         0   302.10947     -1.7474043e-16  0.02628095    -0.0072754824   0.014479067   -110.15555      650.6041       650.6041       650.6041       2.7539141e+08  1.9412812     -29889614      -29889614       899.63041     -29888714      -259.37281      71.803429     -142.89728     -123.00681     -47.978594      0.97756508     0            
      1000   334.5693       0.0005         0.035499398    0.0025909814   0.024134019   -204.70236      650.9294       650.9294       650.9294       2.758047e+08   1.9383722     -29888784      -29888784       996.29024     -29887788      -350.35182     -25.570999     -238.18425     -121.68931     -47.58223       1.6398581      9524.5181    
      2000   405.24766      0.001          0.043996613    0.011600992    0.032752804   -290.65025      651.25471      651.25471      651.25471      2.7621841e+08  1.935469      -29887634      -29887634       1206.7583     -29886427      -434.21281     -114.49289     -323.24505     -120.66848     -47.435447      3.0547225      12151.833    
      3000   474.81626      0.0015         0.051643673    0.019856903    0.040315983   -367.84788      651.58001      651.58001      651.58001      2.7663253e+08  1.9325716     -29886167      -29886167       1413.9218     -29884754      -509.68342     -195.97239     -397.88781     -118.97031     -47.069466      4.3128264      12154.915    
      4000   517.29578      0.002          0.059126293    0.028011001    0.047692429   -443.5553       651.90531      651.90531      651.90531      2.7704707e+08  1.9296799     -29884344      -29884344       1540.4185     -29882804      -583.53114     -276.44708     -470.68768     -115.88294     -46.013768      4.1692382      12546.985    
      5000   530.84626      0.0025         0.066910249    0.036111938    0.05549651    -521.48597      652.23061      652.23061      652.23061      2.7746201e+08  1.9267941     -29882105      -29882105       1580.7695     -29880525      -660.35281     -356.39712     -547.70797     -112.08914     -46.000678      2.8711578      13116.891    
      6000   524.96482      0.003          0.074947318    0.044211972    0.063752464   -601.73289      652.55591      652.55591      652.55591      2.7787738e+08  1.923914      -29879398      -29879398       1563.2556     -29877835      -739.67252     -436.33824     -629.1879      -109.20742     -46.593872      1.4766481      13124.568    
      7000   509.31728      0.0035         0.082949105    0.052454447    0.07190596    -681.99527      652.88122      652.88122      652.88122      2.7829315e+08  1.9210396     -29876191      -29876191       1516.6599     -29874675      -818.64402     -517.68514     -709.65665     -107.41024     -46.013318      0.73491208     13115.918    
      8000   490.57322      0.004          0.090671253    0.060779954    0.079496806   -759.75989      653.20652      653.20652      653.20652      2.7870934e+08  1.9181709     -29872481      -29872481       1460.8433     -29871020      -894.8557      -599.85151     -784.57247     -105.73676     -45.268222      0.9534112      13125.3      
      9000   472.38069      0.0045         0.097927291    0.06895956     0.08675409    -834.41382      653.53182      653.53182      653.53182      2.7912595e+08  1.915308      -29868275      -29868275       1406.669      -29866868      -966.46722     -680.57794     -856.1963      -104.10539     -45.720132      1.443745       13057.982    
     10000   456.29433      0.005          0.10487511     0.076797125    0.093958403   -906.75428      653.85712      653.85712      653.85712      2.7954297e+08  1.9124508     -29863582      -29863582       1358.7666     -29862223      -1035.0368     -757.92869     -927.29734     -103.07329     -46.473071      1.6135451      13285.661    
     11000   442.50995      0.0055         0.11186444     0.084321251    0.10118654    -978.27857      654.18242      654.18242      654.18242      2.7996041e+08  1.9095992     -29858422      -29858422       1317.7191     -29857104      -1104.0161     -832.18605     -998.6335      -102.5626      -46.349111      1.8499254      14289.402    
     12000   430.91234      0.006          0.1189135      0.091607934    0.10836154    -1049.0434      654.50773      654.50773      654.50773      2.8037826e+08  1.9067533     -29852812      -29852812       1283.1834     -29851529      -1173.585      -904.10002     -1069.4452     -102.15714     -46.016544      1.9117784      14217.139    
     13000   421.14754      0.0065         0.1258523      0.098765185    0.11535948    -1118.4372      654.83303      654.83303      654.83303      2.8079652e+08  1.903913      -29846758      -29846758       1254.1055     -29845504      -1242.0656     -974.73659     -1138.5095     -100.25913     -46.100834      1.1726393      14271.605    
     14000   412.80806      0.007          0.13252365     0.10578594     0.12200226    -1185.3338      655.15833      655.15833      655.15833      2.8121521e+08  1.9010784     -29840259      -29840259       1229.2719     -29839030      -1307.9067     -1044.0261     -1204.0687     -97.294692     -45.697646     -0.514812       14293.03     
     15000   405.85012      0.0075         0.138966       0.11260285     0.12826092    -1249.5428      655.48363      655.48363      655.48363      2.8163431e+08  1.8982495     -29833328      -29833328       1208.5523     -29832119      -1371.4878     -1111.3037     -1265.8369     -94.742333     -44.475789     -2.1781113      14300.181    
     16000   400.23244      0.008          0.14524952     0.1193372      0.13438411    -1312.512       655.80893      655.80893      655.80893      2.8205382e+08  1.8954261     -29825983      -29825983       1191.8239     -29824791      -1433.5013     -1177.7666     -1326.268      -92.413091     -43.362744     -2.0353237      14306.46     
     17000   395.79728      0.0085         0.15132529     0.12612463     0.14068918    -1375.5707      656.13424      656.13424      656.13424      2.8247375e+08  1.8926083     -29818240      -29818240       1178.6167     -29817061      -1493.4645     -1244.7534     -1388.4943     -90.699925     -42.968731      0.51299866     14282.124    
     18000   392.40929      0.009          0.15719414     0.13280853     0.14726398    -1438.4954      656.45954      656.45954      656.45954      2.828941e+08   1.8897961     -29810103      -29810103       1168.5279     -29808934      -1551.3855     -1310.7182     -1453.3824     -89.272949     -42.249498      3.0875239      14292.862    
     19000   389.90749      0.0095         0.16313387     0.13910676     0.15336907    -1498.8394      656.78484      656.78484      656.78484      2.8331486e+08  1.8869895     -29801578      -29801578       1161.0779     -29800417      -1610.0061     -1372.877      -1513.6351     -86.834987     -41.986587      3.2722006      14291.913    
     20000   388.38655      0.01           0.16908644     0.14515582     0.15867997    -1555.7931      657.11014      657.11014      657.11014      2.8373605e+08  1.8841884     -29792682      -29792682       1156.5488     -29791525      -1668.7534     -1432.5765     -1566.0495     -84.013052     -42.78048       1.1306332      14283.931    
     21000   387.58379      0.0105         0.17479289     0.15114136     0.16394406    -1611.5743      657.43544      657.43544      657.43544      2.8415764e+08  1.8813929     -29783435      -29783435       1154.1584     -29782280      -1725.0717     -1491.6492     -1618.0021     -82.490104     -43.549704     -0.78063779     14310.234    
     22000   387.08815      0.011          0.18022141     0.1572238      0.16970852    -1668.4061      657.76075      657.76075      657.76075      2.8457966e+08  1.8786029     -29773829      -29773829       1152.6824     -29772676      -1778.6471     -1551.6783     -1674.8929     -82.650672     -42.882199     -0.7730949      14301.698    
     23000   386.40571      0.0115         0.18556591     0.16326251     0.17561465    -1725.2836      658.08605      658.08605      658.08605      2.8500209e+08  1.8758184     -29763855      -29763855       1150.6502     -29762705      -1831.3931     -1611.2757     -1733.1818     -83.040845     -41.11116      -0.063514515    14304.223    
     24000   385.85201      0.012          0.19078521     0.1688567      0.18098482    -1778.5237      658.41135      658.41135      658.41135      2.8542495e+08  1.8730394     -29753525      -29753525       1149.0014     -29752376      -1882.9037     -1666.4861     -1786.1813     -81.858633     -38.925235      0.66219008     14305.116    
     25000   386.33923      0.0125         0.19571753     0.1741576      0.1858267     -1828.1169      658.73665      658.73665      658.73665      2.8584822e+08  1.8702659     -29742873      -29742873       1150.4523     -29741723      -1931.5818     -1718.8019     -1833.9669     -78.392703     -37.781189      1.8286344      14285.172    
     26000   387.76917      0.013          0.20063638     0.1793843      0.19062806    -1877.2884      659.06195      659.06195      659.06195      2.862719e+08   1.8674979     -29731918      -29731918       1154.7104     -29730763      -1980.1271     -1770.3854     -1881.3527     -73.788805     -38.590128      2.8503793      14310.794    
     27000   388.88317      0.0135         0.20564552     0.18452931     0.1956437     -1927.1931      659.38726      659.38726      659.38726      2.8669601e+08  1.8647353     -29720650      -29720650       1158.0277     -29719492      -2029.5635     -1821.1627     -1930.8532     -70.895531     -40.4823        2.7591897      14288.325    
     28000   389.55347      0.014          0.21031739     0.18947335     0.20038497    -1974.4246      659.71256      659.71256      659.71256      2.8712054e+08  1.8619782     -29709068      -29709068       1160.0237     -29707908      -2075.6712     -1869.9566     -1977.6459     -70.808924     -41.779383      1.8638649      14297.67     
     29000   390.92716      0.0145         0.21461462     0.19428646     0.20468753    -2018.5496      660.03786      660.03786      660.03786      2.8754548e+08  1.8592265     -29697202      -29697202       1164.1143     -29696038      -2118.0816     -1917.4583     -2020.1088     -71.244587     -40.09849       1.2003321      14313.235    
     30000   392.82404      0.015          0.21886141     0.19914065     0.20908679    -2062.9619      660.36316      660.36316      660.36316      2.8797084e+08  1.8564802     -29685061      -29685061       1169.7629     -29683891      -2159.9942     -1965.3654     -2063.5262     -70.254872     -36.448371      1.0590072      14288.154    
     31000   394.61141      0.0155         0.22310328     0.20392005     0.21375062    -2107.9824      660.68846      660.68846      660.68846      2.8839662e+08  1.8537393     -29672628      -29672628       1175.0854     -29671453      -2201.8582     -2012.5344     -2109.5546     -68.350004     -34.461672      2.1221787      14321.289    
     32000   396.58123      0.016          0.22730208     0.20850011     0.21825704    -2151.6876      661.01377      661.01377      661.01377      2.8882283e+08  1.8510039     -29659914      -29659914       1180.9512     -29658733      -2243.2971     -2057.7361     -2154.0295     -66.018768     -34.206373      2.9272878      14302.549    
     33000   399.06121      0.0165         0.23158095     0.21293809     0.22240016    -2193.9936      661.33907      661.33907      661.33907      2.8924945e+08  1.8482738     -29646937      -29646937       1188.3361     -29645749      -2285.5263     -2101.5356     -2194.919      -64.428332     -34.183317      3.0358927      14319.972    
     34000   401.3786       0.017          0.23575684     0.21728387     0.22637869    -2235.1161      661.66437      661.66437      661.66437      2.8967649e+08  1.845549      -29633693      -29633693       1195.2369     -29632498      -2326.7392     -2144.4251     -2234.1839     -63.851748     -35.358829      3.2965675      14315.223    
     35000   403.23232      0.0175         0.23948421     0.22143431     0.23012429    -2273.3541      661.98967      661.98967      661.98967      2.9010395e+08  1.8428297     -29620193      -29620193       1200.757      -29618992      -2363.5254     -2185.3867     -2271.1502     -62.190624     -36.534364      3.9576703      14323.553    
     36000   405.0785       0.018          0.2428422      0.22539142     0.23379066    -2309.4803      662.31498      662.31498      662.31498      2.9053183e+08  1.8401156     -29606460      -29606460       1206.2546     -29605254      -2396.6662     -2224.4404     -2307.3344     -59.497966     -35.63211       5.0238028      14273.996    
     37000   407.10324      0.0185         0.24621596     0.22929216     0.23740662    -2345.3071      662.64028      662.64028      662.64028      2.9096014e+08  1.8374069     -29592500      -29592500       1212.2839     -29591288      -2429.9626     -2262.9377     -2343.0211     -58.008224     -33.880817      6.2339376      14315.399    
     38000   409.30749      0.019          0.24954617     0.23322834     0.24076851    -2380.2715      662.96558      662.96558      662.96558      2.9138886e+08  1.8347035     -29578308      -29578308       1218.8478     -29577089      -2462.8292     -2301.7847     -2376.2005     -56.970581     -32.579723      5.7790472      14276.996    
     39000   411.4919       0.0195         0.25292271     0.23700608     0.24420574    -2415.1148      663.29088      663.29088      663.29088      2.91818e+08    1.8320054     -29563887      -29563887       1225.3526     -29562662      -2496.1531     -2339.0682     -2410.1232     -54.922951     -32.124613      4.9681622      14314.88     
     40000   413.32419      0.02           0.25628149     0.24058099     0.24777458    -2449.6655      663.61618      663.61618      663.61618      2.9224757e+08  1.8293126     -29549239      -29549239       1230.8089     -29548008      -2529.3017     -2374.3498     -2445.345      -53.809524     -31.143979      4.9917615      14296.508    
     41000   415.33888      0.0205         0.2594566      0.24403921     0.25115015    -2482.5922      663.94149      663.94149      663.94149      2.9267755e+08  1.8266251     -29534377      -29534377       1236.8083     -29533140      -2560.6376     -2408.4797     -2478.6593     -53.25879      -29.853299      5.4762665      14273.004    
     42000   417.95248      0.021          0.26256168     0.2475256      0.25416566    -2514.1967      664.26679      664.26679      664.26679      2.9310796e+08  1.8239428     -29519317      -29519317       1244.5911     -29518072      -2591.2823     -2442.8878     -2508.4201     -51.852807     -30.291858      6.6797939      14282.749    
     43000   420.30818      0.0215         0.26565844     0.25109611     0.25717384    -2546.0265      664.59209      664.59209      664.59209      2.9353879e+08  1.8212658     -29504049      -29504049       1251.606      -29502797      -2621.845      -2478.1259     -2538.1085     -50.082445     -31.51722       7.6166064      14273.652    
     44000   421.92569      0.022          0.26855514     0.25447342     0.26022183    -2576.6934      664.91739      664.91739      664.91739      2.9397004e+08  1.818594      -29488567      -29488567       1256.4227     -29487310      -2650.4332     -2511.4574     -2568.1898     -49.381251     -31.160222      7.5699349      14294.898    
     45000   423.75664      0.0225         0.27107463     0.25743458     0.2630322     -2603.9688      665.24269      665.24269      665.24269      2.9440172e+08  1.8159275     -29472903      -29472903       1261.8749     -29471641      -2675.2986     -2540.6817     -2595.926      -48.904707     -29.427159      7.0273897      14287.15     
     46000   426.00234      0.023          0.27342126     0.26026649     0.26563527    -2629.5683      665.568        665.568        665.568        2.9483381e+08  1.8132661     -29457076      -29457076       1268.5622     -29455808      -2698.458      -2568.6305     -2621.6163     -46.814642     -27.955143      6.3338739      14291.468    
     47000   427.60858      0.0235         0.27597556     0.26315483     0.26820629    -2655.9312      665.8933       665.8933       665.8933       2.9526633e+08  1.81061       -29441070      -29441070       1273.3453     -29439797      -2723.667      -2597.1362     -2646.9903     -43.237846     -27.206491      6.0012609      14279.14     
     48000   428.47555      0.024          0.27859392     0.26583509     0.27066595    -2681.4539      666.2186       666.2186       666.2186       2.9569928e+08  1.807959      -29424878      -29424878       1275.927      -29423602      -2749.5082     -2623.5884     -2671.2652     -40.094164     -27.114434      7.1751648      14303.138    
     49000   429.63496      0.0245         0.28092476     0.26822804     0.27289449    -2704.3253      666.5439       666.5439       666.5439       2.9613264e+08  1.8053132     -29408524      -29408524       1279.3795     -29407245      -2772.5118     -2647.205      -2693.2592     -38.441212     -26.626475      9.2939088      14306.892    
     50000   431.38864      0.025          0.28303868     0.27057726     0.27510352    -2726.275       666.8692       666.8692       666.8692       2.9656643e+08  1.8026726     -29392032      -29392032       1284.6017     -29390748      -2793.3746     -2670.39       -2715.0606     -38.459319     -25.579852      10.790157      13847.838    
     51000   433.14012      0.0255         0.28503035     0.27294985     0.27740029    -2748.1881      667.19451      667.19451      667.19451      2.9700064e+08  1.8000371     -29375400      -29375400       1289.8173     -29374110      -2813.0308     -2693.8056     -2737.728      -40.036936     -24.15855       11.136353      14301.022    
     52000   434.42971      0.026          0.28698308     0.27547863     0.27979504    -2770.8093      667.51981      667.51981      667.51981      2.9743527e+08  1.7974067     -29358608      -29358608       1293.6575     -29357315      -2832.3028     -2718.7627     -2761.3624     -40.52882      -23.556188      10.770864      14299.004    
     53000   436.06799      0.0265         0.28882669     0.27789909     0.2819953     -2792.0753      667.84511      667.84511      667.84511      2.9787033e+08  1.7947815     -29341661      -29341661       1298.536      -29340362      -2850.4978     -2742.6508     -2783.0772     -38.946195     -24.061734      10.821229      14285.813    
     54000   438.34121      0.027          0.2907064      0.28015561     0.28410836    -2812.6338      668.17041      668.17041      668.17041      2.9830582e+08  1.7921614     -29324575      -29324575       1305.3053     -29323269      -2869.0491     -2764.9209     -2803.9315     -37.248495     -23.902778      10.187213      13958.901    
     55000   440.0971       0.0275         0.29258555     0.28234533     0.28614492    -2832.7192      668.49571      668.49571      668.49571      2.9874172e+08  1.7895464     -29307354      -29307354       1310.534      -29306043      -2887.5949     -2786.5318     -2824.0308     -34.772832     -23.142491      9.6181272      14284.697    
     56000   441.08832      0.028          0.29426109     0.28437486     0.28780271    -2850.3616      668.82102      668.82102      668.82102      2.9917805e+08  1.7869364     -29290002      -29290002       1313.4857     -29288688      -2904.1312     -2806.5617     -2840.3919     -31.802857     -22.226455      9.7802268      14310.186    
     57000   441.87682      0.0285         0.29570022     0.28618997     0.28916359    -2865.5442      669.14632      669.14632      669.14632      2.9961481e+08  1.7843316     -29272535      -29272535       1315.8337     -29271219      -2918.3342     -2824.4754     -2853.8228     -30.368161     -21.692459      10.378789      14309.443    
     58000   442.61832      0.029          0.29696619     0.28781511     0.29064519    -2879.9292      669.47162      669.47162      669.47162      3.0005199e+08  1.7817318     -29254964      -29254964       1318.0418     -29253646      -2930.8284     -2840.5143     -2868.445      -30.791469     -21.771254      10.724229      14302.612    
     59000   443.20476      0.0295         0.29819546     0.28921853     0.29237289    -2894.2738      669.79692      669.79692      669.79692      3.004896e+08   1.779137      -29237290      -29237290       1319.7881     -29235970      -2942.9603     -2854.3649     -2885.496      -31.255365     -21.530208      10.065218      14287.445    
     60000   443.65131      0.03           0.29944796     0.29076788     0.29406895    -2909.0708      670.12222      670.12222      670.12222      3.0092763e+08  1.7765473     -29219504      -29219504       1321.1179     -29218183      -2955.3216     -2869.6559     -2902.2348     -29.602636     -21.524334      9.4961244      14341.293    
     61000   444.40115      0.0305         0.3006466      0.29251807     0.29525071    -2922.6594      670.44753      670.44753      670.44753      3.0136609e+08  1.7739626     -29201613      -29201613       1323.3507     -29200290      -2967.1513     -2886.9289     -2913.898      -26.924545     -21.843777      10.410985      14291.392    
     62000   445.76137      0.031          0.30183118     0.29414513     0.29612898    -2934.7982      670.77283      670.77283      670.77283      3.0180497e+08  1.7713829     -29183632      -29183632       1327.4013     -29182305      -2978.8421     -2902.9867     -2922.5658     -26.107155     -21.374303      11.602242      14304.627    
     63000   446.71006      0.0315         0.30317064     0.29552563     0.29731341    -2947.6427      671.09813      671.09813      671.09813      3.0224428e+08  1.7688082     -29165556      -29165556       1330.2263     -29164226      -2992.0616     -2916.6112     -2934.2553     -26.281995     -19.217689      11.405354      14313.891    
     64000   447.19877      0.032          0.30431873     0.2968225      0.2985711     -2959.8234      671.42343      671.42343      671.42343      3.0268401e+08  1.7662385     -29147381      -29147381       1331.6816     -29146049      -3003.3924     -2929.4103     -2946.6676     -25.980803     -17.077901      11.182675      14294.769    
     65000   448.09606      0.0325         0.30517107     0.29820221     0.29972677    -2970.9682      671.74873      671.74873      671.74873      3.0312417e+08  1.7636738     -29129126      -29129126       1334.3535     -29127791      -3011.8043     -2943.0269     -2958.0733     -25.192829     -15.659893      11.302308      14312.736    
     66000   449.19017      0.033          0.30576367     0.29946183     0.30080717    -2980.6158      672.07404      672.07404      672.07404      3.0356476e+08  1.7611141     -29110802      -29110802       1337.6116     -29109465      -3017.6528     -2955.4585     -2968.736      -23.515443     -15.726905      11.876357      14264.782    
     67000   449.82207      0.0335         0.30639145     0.30059524     0.30168027    -2989.2819      672.39934      672.39934      672.39934      3.0400577e+08  1.7585592     -29092399      -29092399       1339.4933     -29091059      -3023.8485     -2966.6443     -2977.3528     -20.65057      -16.967584      12.302899      14267.973    
     68000   450.09428      0.034          0.30706656     0.30151467     0.30223019    -2996.3366      672.72464      672.72464      672.72464      3.0444722e+08  1.7560094     -29073922      -29073922       1340.3039     -29072581      -3030.5113     -2975.7185     -2982.7801     -18.796788     -17.453083      11.913354      14195.052    
     69000   450.53419      0.0345         0.30746831     0.30215289     0.30269346    -3001.2819      673.04994      673.04994      673.04994      3.0488908e+08  1.7534644     -29055391      -29055391       1341.6139     -29054049      -3034.4763     -2982.0172     -2987.3522     -18.754111     -16.668885      10.672496      14281.023    
     70000   451.14275      0.035          0.30767346     0.3027046      0.30328192    -3005.7077      673.37524      673.37524      673.37524      3.0533138e+08  1.7509244     -29036823      -29036823       1343.4261     -29035480      -3036.501      -2987.4622     -2993.1598     -19.86838      -16.360016      10.689351      14314.476    
     71000   451.57054      0.0355         0.30810742     0.30358751     0.30380499    -3011.7606      673.70055      673.70055      673.70055      3.057741e+08   1.7483893     -29018211      -29018211       1344.7        -29016866      -3040.7838     -2996.1758     -2998.3221     -20.960112     -16.64035       12.662377      14313.711    
     72000   451.53404      0.036          0.30873954     0.30469155     0.30427484    -3019.0178      674.02585      674.02585      674.02585      3.0621725e+08  1.7458591     -28999534      -28999534       1344.5913     -28998190      -3047.0224     -3007.0718     -3002.9592     -20.134036     -15.904042      14.297926      14330.079    
     73000   451.18425      0.0365         0.30923769     0.30559944     0.30493118    -3025.8025      674.35115      674.35115      674.35115      3.0666083e+08  1.7433337     -28980789      -28980789       1343.5497     -28979446      -3051.9387     -3016.032      -3009.4367     -17.144826     -14.266278      13.106235      14331.25     
     74000   451.11976      0.037          0.30939272     0.30599817     0.30556438    -3029.7073      674.67645      674.67645      674.67645      3.0710484e+08  1.7408132     -28961993      -28961993       1343.3576     -28960650      -3053.4688     -3019.9671     -3015.6859     -14.401436     -12.535346      10.957854      14329.621    
     75000   451.71081      0.0375         0.3092435      0.30603619     0.30591811    -3030.5051      675.00176      675.00176      675.00176      3.0754927e+08  1.7382976     -28943173      -28943173       1345.1176     -28941828      -3051.9961     -3020.3424     -3019.177      -13.383141     -11.20514       10.401619      14283.115    
     76000   452.2502       0.038          0.30916703     0.30599394     0.3059684     -3030.28        675.32706      675.32706      675.32706      3.0799414e+08  1.7357868     -28924343      -28924343       1346.7239     -28922996      -3051.2414     -3019.9254     -3019.6733     -12.554461     -10.747642      10.892637      14312.268    
     77000   452.47439      0.0385         0.30909882     0.30613076     0.30585606    -3030.1362      675.65236      675.65236      675.65236      3.0843943e+08  1.7332809     -28905501      -28905501       1347.3915     -28904154      -3050.5682     -3021.2757     -3018.5647     -11.962497     -11.238617      11.597551      14306.272    
     78000   452.51432      0.039          0.30892899     0.30660254     0.30572621    -3030.7024      675.97766      675.97766      675.97766      3.0888515e+08  1.7307797     -28886639      -28886639       1347.5104     -28885291      -3048.8921     -3025.9318     -3017.2831     -12.919223     -12.555804      11.620743      14280.523    
     79000   452.27596      0.0395         0.30873415     0.30709397     0.30561188    -3031.3019      676.30296      676.30296      676.30296      3.093313e+08   1.7282834     -28867747      -28867747       1346.8006     -28866400      -3046.9691     -3030.7818     -3016.1547     -13.315009     -12.805355      10.551782      14297.336    
     80000   452.06831      0.04           0.3085752      0.30720743     0.30553472    -3030.8984      676.62827      676.62827      676.62827      3.0977788e+08  1.7257919     -28848828      -28848828       1346.1822     -28847482      -3045.4005     -3031.9016     -3015.3932     -11.941477     -10.863307      10.411774      14282.528    
     81000   451.8345       0.0405         0.3083652      0.30717083     0.30563239    -3030.4085      676.95357      676.95357      676.95357      3.1022489e+08  1.7233052     -28829898      -28829898       1345.486      -28828552      -3043.3279     -3031.5404     -3016.3572     -8.8799904     -8.3395963      10.764517      14281.656    
     82000   451.23163      0.041          0.30784835     0.30711251     0.30564668    -3028.5633      677.27887      677.27887      677.27887      3.1067233e+08  1.7208232     -28810965      -28810965       1343.6907     -28809621      -3038.227      -3030.9648     -3016.4982     -5.8258235     -7.6956447      10.645608      14316.922    
     83000   450.76501      0.0415         0.3070374      0.30705082     0.30519354    -3024.2019      677.60417      677.60417      677.60417      3.111202e+08   1.718346      -28792041      -28792041       1342.3012     -28790698      -3030.2236     -3030.356      -3012.026      -4.2410638     -8.4633568      9.7186843      14328.452    
     84000   450.44397      0.042          0.30637241     0.3070002      0.30452316    -3019.6423      677.92947      677.92947      677.92947      3.115685e+08   1.7158736     -28773126      -28773126       1341.3452     -28771784      -3023.6606     -3029.8564     -3005.4099     -3.2456561     -7.9775997      9.2250638      14313.922    
     85000   449.98645      0.0425         0.30604253     0.30670007     0.30405069    -3016.0154      678.25478      678.25478      678.25478      3.1201723e+08  1.7134059     -28754210      -28754210       1339.9828     -28752870      -3020.4049     -3026.8944     -3000.747      -1.8276702     -7.2099785      10.993428      14303.421    
     86000   449.54774      0.043          0.30564872     0.30608132     0.30380404    -3011.8729      678.58008      678.58008      678.58008      3.1246639e+08  1.7109429     -28735297      -28735297       1338.6764     -28733958      -3016.5183     -3020.7878     -2998.3128     -0.65488509    -7.3309822      12.605669      14251.958    
     87000   449.40902      0.0435         0.30481998     0.30541867     0.30347789    -3005.8937      678.90538      678.90538      678.90538      3.1291599e+08  1.7084847     -28716400      -28716400       1338.2633     -28715062      -3008.3393     -3014.2479     -2995.0939     -0.40403722    -7.4516575      11.869141      14316.067    
     88000   449.25184      0.044          0.30368795     0.30509421     0.30297726    -2999.4553      679.23068      679.23068      679.23068      3.1336601e+08  1.7060311     -28697535      -28697535       1337.7953     -28696197      -2997.1671     -3011.0458     -2990.1531      0.18938476    -6.4874516      9.4218216      14299.142    
     89000   448.52338      0.0445         0.30273571     0.3050039      0.30233673    -2993.9184      679.55598      679.55598      679.55598      3.1381646e+08  1.7035823     -28678697      -28678697       1335.626      -28677361      -2987.7692     -3010.1545     -2983.8316      0.72751132    -6.4855953      7.5361436      14284.019    
     90000   447.17681      0.045          0.30201779     0.30458253     0.30159151    -2987.7188      679.88129      679.88129      679.88129      3.1426735e+08  1.7011381     -28659871      -28659871       1331.6162     -28658540      -2980.6839     -3005.9959     -2976.4767      1.1454073     -6.3725696      7.3899944      14294.474    
     91000   446.08095      0.0455         0.30110487     0.30363412     0.30067143    -2978.5687      680.20659      680.20659      680.20659      3.1471867e+08  1.6986986     -28641069      -28641069       1328.3529     -28639740      -2971.674      -2996.6358     -2967.3963      2.2922578     -5.5567826      9.3639304      14301.622    
     92000   445.3016       0.046          0.29995015     0.30252613     0.29951179    -2967.3101      680.53189      680.53189      680.53189      3.1517041e+08  1.6962638     -28622309      -28622309       1326.0321     -28620983      -2960.2779     -2985.7008     -2955.9516      4.4727475     -4.8571536      11.188167      14281.373    
     93000   444.44853      0.0465         0.2987112      0.30153573     0.29833387    -2956.101       680.85719      680.85719      680.85719      3.156226e+08   1.6938336     -28603598      -28603598       1323.4918     -28602274      -2948.0504     -2975.9263     -2944.3264      7.1941088     -4.0626882      11.787984      14278.203    
     94000   444.01029      0.047          0.29754293     0.30068402     0.29737414    -2946.2985      681.18249      681.18249      681.18249      3.1607521e+08  1.6914081     -28584939      -28584939       1322.1868     -28583617      -2936.5204     -2967.5206     -2934.8546      9.0515277     -2.6360184      11.043004      14318.929    
     95000   443.65014      0.0475         0.29643636     0.29996566     0.29668563    -2938.0299      681.5078       681.5078       681.5078       3.1652826e+08  1.6889872     -28566336      -28566336       1321.1144     -28565015      -2925.5994     -2960.4309     -2928.0595      9.4410093     -2.2634144      9.086377       14282.012    
     96000   442.45435      0.048          0.29536614     0.29911917     0.29596025    -2929.3381      681.8331       681.8331       681.8331       3.1698173e+08  1.6865709     -28547774      -28547774       1317.5535     -28546457      -2915.0372     -2952.0767     -2920.9006      9.0731302     -3.3938682      8.0934244      14313.801    
     97000   440.66985      0.0485         0.29412541     0.29788798     0.29488332    -2917.6633      682.1584       682.1584       682.1584       3.1743565e+08  1.6841592     -28529253      -28529253       1312.2396     -28527941      -2902.7921     -2939.9258     -2910.2721      9.5539448     -3.3717064      8.7148215      14309.166    
     98000   439.41194      0.049          0.29261688     0.29644912     0.29347701    -2903.3408      682.4837       682.4837       682.4837       3.1788999e+08  1.6817521     -28510784      -28510784       1308.4937     -28509476      -2887.904      -2925.7253     -2896.3929      10.68376      -1.905989       9.9524697      14301.327    
     99000   438.96116      0.0495         0.29127439     0.2952409      0.29213672    -2890.5404      682.809        682.809        682.809        3.1834477e+08  1.6793496     -28492376      -28492376       1307.1514     -28491069      -2874.6548     -2913.8011     -2883.1653      11.584874     -0.3324916      9.5073723      14273.025    
    100000   438.49645      0.05           0.29007347     0.29425298     0.29088828    -2879.2326      683.13431      683.13431      683.13431      3.1879998e+08  1.6769517     -28474037      -28474037       1305.7675     -28472731      -2862.8025     -2904.0511     -2870.8442      12.6541        0.52431293     7.8771067      13865.079    
    101000   437.7586       0.0505         0.2887754      0.29314559     0.28957854    -2867.0105      683.45961      683.45961      683.45961      3.1925563e+08  1.6745583     -28455771      -28455771       1303.5704     -28454467      -2849.9916     -2893.122      -2857.918       14.546515      0.44259412     6.1266881      14276.613    
    102000   436.57317      0.051          0.28732707     0.29186948     0.28840064    -2854.1728      683.78491      683.78491      683.78491      3.1971171e+08  1.6721695     -28437561      -28437561       1300.0403     -28436261      -2835.6977     -2880.5278     -2846.293       16.47143      -0.69356473     5.1168056      14287.88     
    103000   435.25818      0.0515         0.28550907     0.29044656     0.28710614    -2839.2525      684.11021      684.11021      684.11021      3.2016822e+08  1.6697852     -28419420      -28419420       1296.1245     -28418124      -2817.7555     -2866.4847     -2833.5173      17.385414     -1.9022885      6.2835985      14294.65     
    104000   434.41005      0.052          0.28345977     0.28889411     0.28548977    -2822.0862      684.43551      684.43551      684.43551      3.2062517e+08  1.6674055     -28401366      -28401366       1293.599      -28400073      -2797.5304     -2851.1631     -2817.565       18.024035     -1.8299008      8.3345341      14268.422    
    105000   433.16912      0.0525         0.28180048     0.28746869     0.28392766    -2806.7994      684.76082      684.76082      684.76082      3.2108255e+08  1.6650303     -28383399      -28383399       1289.9037     -28382109      -2781.1545     -2837.0954     -2802.1482      18.675329     -0.62482173     8.7525555      14266.626    
    106000   430.97077      0.053          0.28040894     0.28604421     0.28253004    -2792.9376      685.08612      685.08612      685.08612      3.2154037e+08  1.6626596     -28365503      -28365503       1283.3574     -28364220      -2767.4211     -2823.0369     -2788.3547      19.230666      0.59812046     7.8519805      14271.966    
    107000   429.02819      0.0535         0.27880079     0.28438972     0.28097188    -2777.0783      685.41142      685.41142      685.41142      3.2199862e+08  1.6602933     -28347684      -28347684       1277.5727     -28346407      -2751.5499     -2806.7083     -2772.9768      19.912829      1.3111239      7.5349922      14267.244    
    108000   427.93279      0.054          0.27696245     0.28272532     0.27933382    -2760.1664      685.73672      685.73672      685.73672      3.2245731e+08  1.6579316     -28329953      -28329953       1274.3108     -28328678      -2733.4068     -2790.2819     -2756.8105      20.736718      1.3347999      7.1211475      14284.909    
    109000   426.9244       0.0545         0.27537356     0.28110483     0.27763215    -2744.0103      686.06202      686.06202      686.06202      3.2291643e+08  1.6555744     -28312308      -28312308       1271.308      -28311037      -2717.7257     -2774.2889     -2740.0163      21.545201      1.1057862      5.277833       14233.184    
    110000   425.51558      0.055          0.27404542     0.2795297      0.27609375    -2729.3984      686.38733      686.38733      686.38733      3.2337599e+08  1.6532216     -28294743      -28294743       1267.1127     -28293476      -2704.618      -2758.7437     -2724.8335      23.26425       1.609777       2.9352154      14278.383    
    111000   423.69291      0.0555         0.27253721     0.2779518      0.27457959    -2714.2647      686.71263      686.71263      686.71263      3.2383598e+08  1.6508733     -28277258      -28277258       1261.6851     -28275997      -2689.7331     -2743.171      -2709.8899      24.744745      1.4766047      2.0244048      14267.772    
    112000   421.98598      0.056          0.270506       0.27623116     0.27285903    -2696.2618      687.03793      687.03793      687.03793      3.2429641e+08  1.6485294     -28259864      -28259864       1256.6022     -28258607      -2669.6866     -2726.1896     -2692.9092      24.877374      0.20423431     2.7119589      14282.907    
    113000   420.7916       0.0565         0.26822569     0.27437655     0.27098651    -2676.4989      687.36323      687.36323      687.36323      3.2475728e+08  1.6461899     -28242575      -28242575       1253.0455     -28241322      -2647.1817     -2707.886      -2674.4289      24.371512     -1.0409822      4.3898794      14193.507    
    114000   419.55628      0.057          0.26623686     0.27255427     0.26919814    -2658.078       687.68853      687.68853      687.68853      3.2521858e+08  1.6438549     -28225396      -28225396       1249.367      -28224147      -2627.5535     -2689.9015     -2656.7791      23.904103     -1.3078912      5.2198538      14275.124    
    115000   417.73073      0.0575         0.26456687     0.27070537     0.26744149    -2640.7229      688.01384      688.01384      688.01384      3.2568032e+08  1.6415243     -28208307      -28208307       1243.9308     -28207063      -2611.072      -2671.6543     -2639.4423      23.358872     -0.88812844     3.89444        14281.857    
    116000   415.75518      0.058          0.26279867     0.26882856     0.26555513    -2622.526       688.33914      688.33914      688.33914      3.261425e+08   1.6391981     -28191312      -28191312       1238.0479     -28190074      -2593.6212     -2653.1316     -2620.8253      23.483353     -0.43392943     1.0304668      14248.596    
    117000   414.23398      0.0585         0.26075768     0.26699429     0.26359747    -2603.3373      688.66444      688.66444      688.66444      3.2660511e+08  1.6368763     -28174423      -28174423       1233.5181     -28173190      -2573.4783     -2635.0288     -2601.5048      24.468701     -0.43345092    -0.93319299     14227.677    
    118000   412.84996      0.059          0.25885398     0.26534305     0.26211631    -2586.7698      688.98974      688.98974      688.98974      3.2706816e+08  1.6345589     -28157641      -28157641       1229.3967     -28156411      -2554.6902     -2618.7323     -2586.8868      25.805546     -1.6490153     -0.50269351     14287.683    
    119000   411.20644      0.0595         0.25732445     0.26362694     0.26081939    -2571.8259      689.31505      689.31505      689.31505      3.2753165e+08  1.6322458     -28140939      -28140939       1224.5026     -28139715      -2539.5948     -2601.7956     -2574.0873      26.663753     -2.7394433      1.666908       14270.333    
    120000   409.38948      0.06           0.25581698     0.26169956     0.25905693    -2554.7281      689.64035      689.64035      689.64035      3.2799558e+08  1.6299371     -28124314      -28124314       1219.092      -28123095      -2524.7173     -2582.7738     -2556.6931      26.907934     -2.7270953      3.0467053      14271.14     
    121000   408.05607      0.0605         0.25390923     0.25948619     0.25672747    -2533.5073      689.96565      689.96565      689.96565      3.2845994e+08  1.6276328     -28107803      -28107803       1215.1213     -28106588      -2505.8892     -2560.9296     -2533.7031      26.630142     -2.2798144      2.2319374      14233.071    
    122000   407.11588      0.061          0.2516996      0.25732861     0.25445537    -2511.6657      690.29095      690.29095      690.29095      3.2892474e+08  1.6253328     -28091427      -28091427       1212.3216     -28090215      -2484.0819     -2539.636      -2511.2793      25.694248     -3.5848765      0.1144492      14264.704    
    123000   405.65478      0.0615         0.24952077     0.2555406      0.25260876    -2492.5409      690.61625      690.61625      690.61625      3.2938998e+08  1.6230371     -28075169      -28075169       1207.9707     -28073961      -2462.5785     -2521.9896     -2493.0546      25.264404     -6.0916035     -1.7615859      14284.78     
    124000   403.26761      0.062          0.24766361     0.25404344     0.25102847    -2476.3073      690.94156      690.94156      690.94156      3.2985566e+08  1.6207458     -28058999      -28058999       1200.8621     -28057798      -2444.2498     -2507.2138     -2477.4583      25.615723     -6.7815769     -3.6416077      14296.671    
    125000   400.96019      0.0625         0.24600042     0.2524305      0.24923011    -2459.6136      691.26686      691.26686      691.26686      3.3032178e+08  1.6184587     -28042914      -28042914       1193.991      -28041720      -2427.8354     -2491.2954     -2459.71        26.107789     -6.0846443     -5.1870683      14263.49     
    126000   399.67739      0.063          0.24439883     0.25054423     0.24734248    -2441.9296      691.59216      691.59216      691.59216      3.3078833e+08  1.616176      -28026925      -28026925       1190.171      -28025735      -2412.0289     -2472.6793     -2441.0804      26.174208     -5.7720218     -5.4638141      14264.15     
    127000   399.00289      0.0635         0.2428198      0.24840813     0.24567794    -2424.2318      691.91746      691.91746      691.91746      3.3125533e+08  1.6138976     -28011045      -28011045       1188.1625     -28009857      -2396.4451     -2451.5976     -2424.6527      24.932862     -5.4113393     -4.2058598      14284.39     
    128000   398.04899      0.064          0.24116918     0.24616005     0.24398437    -2405.8347      692.24276      692.24276      692.24276      3.3172276e+08  1.6116234     -27995276      -27995276       1185.3219     -27994090      -2380.1547     -2429.4108     -2407.9385      23.799008     -5.0126107     -2.3455904      14261.183    
    129000   396.43326      0.0645         0.23918852     0.24398888     0.24193742    -2385.4423      692.56807      692.56807      692.56807      3.3219064e+08  1.6093535     -27979611      -27979611       1180.5106     -27978431      -2360.6072     -2407.9831     -2387.7367      24.037701     -6.325682      -1.6756666      14288.474    
    130000   394.4521       0.065          0.23692589     0.24199559     0.23980212    -2364.4168      692.89337      692.89337      692.89337      3.3265895e+08  1.6070879     -27964057      -27964057       1174.611      -27962883      -2338.2767     -2388.3108     -2366.6629      25.784567     -8.4437884     -2.3390145      14283.773    
    131000   392.34491      0.0655         0.2348256      0.24031944     0.23792988    -2345.8341      693.21867      693.21867      693.21867      3.331277e+08   1.6048265     -27948612      -27948612       1168.3361     -27947444      -2317.5485     -2371.7685     -2348.1853      27.207341     -9.0913589     -3.749143       14283.198    
    132000   390.1345       0.066          0.23321619     0.23890518     0.23634936    -2330.6875      693.54397      693.54397      693.54397      3.335969e+08   1.6025694     -27933260      -27933260       1161.7539     -27932098      -2301.6648     -2357.8109     -2332.5868      26.869753     -8.9541771     -5.1653576      14291.816    
    133000   388.26816      0.0665         0.23183103     0.23732551     0.23464846    -2315.3384      693.86927      693.86927      693.86927      3.3406653e+08  1.6003164     -27917995      -27917995       1156.1963     -27916838      -2287.9944     -2342.2207     -2315.8002      24.864599     -9.0529025     -6.235396       14292.89     
    134000   387.04322      0.067          0.2302529      0.23534096     0.23266035    -2297.0777      694.19458      694.19458      694.19458      3.3453661e+08  1.5980678     -27902828      -27902828       1152.5486     -27901675      -2272.4194     -2322.6347     -2296.1791      22.921433     -8.8428855     -7.196794       14320.187    
    135000   386.14011      0.0675         0.22852876     0.23303263     0.23069028    -2277.3309      694.51988      694.51988      694.51988      3.3500712e+08  1.5958233     -27887775      -27887775       1149.8593     -27886625      -2255.4035     -2299.8532     -2276.7361      22.271758     -8.4950318     -7.0648578      14312.91     
    136000   385.10943      0.068          0.22691348     0.23073187     0.22892794    -2258.6505      694.84518      694.84518      694.84518      3.3547808e+08  1.593583      -27872836      -27872836       1146.7901     -27871690      -2239.4619     -2277.1465     -2259.3431      22.393088     -8.3888218     -5.6178819      14294        
    137000   383.674        0.0685         0.22531729     0.22887509     0.22731847    -2241.9964      695.17048      695.17048      695.17048      3.3594948e+08  1.5913469     -27857998      -27857998       1142.5157     -27856856      -2223.7088     -2258.8216     -2243.4589      22.023143     -9.0871175     -4.3152144      14285.087    
    138000   381.71134      0.069          0.22359117     0.22738103     0.22580733    -2226.4315      695.49578      695.49578      695.49578      3.3642132e+08  1.589115      -27843243      -27843243       1136.6712     -27842106      -2206.6733     -2244.0763     -2228.5451      21.020337     -10.076728     -4.3761865      14256.031    
    139000   379.55197      0.0695         0.2217852      0.22587152     0.22416206    -2210.1119      695.82109      695.82109      695.82109      3.368936e+08   1.5868873     -27828573      -27828573       1130.241      -27827443      -2188.8497     -2229.1786     -2212.3075      20.150633     -10.809702     -5.3420949      14287.187    
    140000   377.90705      0.07           0.22005105     0.22428806     0.22224753    -2192.8996      696.14639      696.14639      696.14639      3.3736632e+08  1.5846637     -27814002      -27814002       1125.3427     -27812876      -2171.7351     -2213.551      -2193.4126      20.610054     -11.198782     -6.3347707      14270.097    
    141000   376.77576      0.0705         0.21851875     0.22279222     0.22037206    -2176.7679      696.47169      696.47169      696.47169      3.3783948e+08  1.5824443     -27799529      -27799529       1121.9739     -27798407      -2156.6124     -2198.7882     -2174.9032      20.588672     -10.817436     -7.655314       14276.055    
    142000   375.65974      0.071          0.21706293     0.22125103     0.21874597    -2161.5591      696.79699      696.79699      696.79699      3.3831309e+08  1.580229      -27785142      -27785142       1118.6505     -27784023      -2142.2445     -2183.5779     -2158.8548      18.993367     -8.7962179     -8.3376965      14295.5      
    143000   374.36075      0.0715         0.21570482     0.21948334     0.21730185    -2146.5252      697.12229      697.12229      697.12229      3.3878714e+08  1.5780179     -27770839      -27770839       1114.7824     -27769725      -2128.8411     -2166.1322     -2144.6025      17.573296     -6.0816542     -8.128724       14299.952    
    144000   372.87522      0.072          0.21452716     0.21772869     0.21602878    -2132.6906      697.4476       697.4476       697.4476       3.3926163e+08  1.5758109     -27756619      -27756619       1110.3587     -27755509      -2117.2184     -2148.8151     -2132.0383      17.036821     -4.9555177     -7.8469631      14283.41     
    145000   371.13182      0.0725         0.2132861      0.21616447     0.21472006    -2119.1566      697.7729       697.7729       697.7729       3.3973657e+08  1.573608      -27742474      -27742474       1105.1672     -27741369      -2104.9702     -2133.3775     -2119.1222      16.32068      -6.1410705     -8.042509       14257.506    
    146000   369.56624      0.073          0.21181583     0.21460216     0.21314437    -2103.9966      698.0982       698.0982       698.0982       3.4021194e+08  1.5714092     -27728404      -27728404       1100.5051     -27727304      -2090.4597     -2117.9587     -2103.5713      15.230807     -8.0234199     -8.3502118      14274.948    
    147000   368.49487      0.0735         0.21024491     0.2129387      0.21147381    -2087.8606      698.4235       698.4235       698.4235       3.4068776e+08  1.5692145     -27714423      -27714423       1097.3148     -27713325      -2074.956      -2101.5415     -2087.0842      14.446172     -9.2495058     -8.4427524      14303.639    
    148000   367.42144      0.074          0.20878315     0.21137533     0.20998517    -2073.0115      698.7488       698.7488       698.7488       3.4116403e+08  1.5670238     -27700534      -27700534       1094.1183     -27699440      -2060.5295     -2086.1124     -2072.3925      13.901684     -9.2773283     -7.5505573      14279.472    
    149000   366.08782      0.0745         0.20736684     0.21003046     0.20855616    -2059.2268      699.07411      699.07411      699.07411      3.4164074e+08  1.5648373     -27686729      -27686729       1090.147      -27685639      -2046.5516     -2072.8394     -2058.2892      13.666935     -7.4374605     -6.0110524      14289.784    
    150000   364.71155      0.075          0.2060715      0.20884882     0.20722685    -2046.705       699.39941      699.39941      699.39941      3.4211789e+08  1.5626548     -27672996      -27672996       1086.0487     -27671910      -2033.7676     -2061.1776     -2045.17        13.992934     -5.4170906     -5.3565102      13991.27     
    151000   363.37624      0.0755         0.2049918      0.20771726     0.20598854    -2035.3568      699.72471      699.72471      699.72471      3.4259548e+08  1.5604764     -27659321      -27659321       1082.0724     -27658239      -2023.1117     -2050.01       -2032.9488      13.46703      -5.0418893     -5.6411914      14293.554    
    152000   362.2383       0.076          0.20409471     0.20651999     0.20477696    -2024.4812      700.05001      700.05001      700.05001      3.4307352e+08  1.558302      -27645707      -27645707       1078.6838     -27644629      -2014.2582     -2038.1939     -2020.9915      12.291248     -6.3435487     -6.5151576      14313.288    
    153000   361.05653      0.0765         0.20315028     0.20528299     0.20354015    -2013.236       700.37531      700.37531      700.37531      3.4355201e+08  1.5561317     -27632157      -27632157       1075.1647     -27631082      -2004.9374     -2025.9856     -2008.7851      10.923366     -7.8480139     -7.1117231      14327.729    
    154000   359.70616      0.077          0.20198135     0.2039556      0.20225047    -2000.781       700.70062      700.70062      700.70062      3.4403094e+08  1.5539654     -27618674      -27618674       1071.1435     -27617603      -1993.4009     -2012.8852     -1996.0569      9.4803228     -8.0242903     -6.3464717      14273.825    
    155000   358.58131      0.0775         0.20066369     0.20251834     0.20099583    -1987.5906      701.02592      701.02592      701.02592      3.4451031e+08  1.5518031     -27605261      -27605261       1067.7939     -27604193      -1980.3966     -1998.7006     -1983.6747      8.6993382     -7.1849473     -5.4663111      14298.737    
    156000   357.75017      0.078          0.1994468      0.20113594     0.19990033    -1975.4357      701.35122      701.35122      701.35122      3.4499013e+08  1.5496448     -27591910      -27591910       1065.3189     -27590844      -1968.3868     -1985.0574     -1972.8629      8.6143615     -6.3960337     -5.6946502      14308.439    
    157000   356.9144       0.0785         0.19837458     0.19994796     0.19891899    -1964.7719      701.67652      701.67652      701.67652      3.454704e+08   1.5474905     -27578621      -27578621       1062.8301     -27577558      -1957.8049     -1973.3329     -1963.1778      8.9337393     -5.7449841     -6.8736265      14313.864    
    158000   355.83373      0.079          0.19747728     0.19896336     0.19803481    -1955.6722      702.00183      702.00183      702.00183      3.4595111e+08  1.5453402     -27565389      -27565389       1059.6121     -27564330      -1948.9493     -1963.6157     -1954.4517      9.2820129     -5.5612662     -7.1035945      14316.711    
    159000   354.62733      0.0795         0.19658293     0.19792555     0.1970876     -1946.1998      702.32713      702.32713      702.32713      3.4643226e+08  1.5431939     -27552213      -27552213       1056.0196     -27551157      -1940.1226     -1953.3733     -1945.1034      9.6153213     -6.1681646     -5.9069022      14309.786    
    160000   353.68918      0.08           0.19554431     0.19673382     0.19597676    -1935.2081      702.65243      702.65243      702.65243      3.4691386e+08  1.5410516     -27539088      -27539088       1053.226      -27538035      -1929.8723     -1941.6118     -1934.1402      9.1973638     -6.4259344     -4.3025682      14310.997    
    161000   352.87801      0.0805         0.19459862     0.19567615     0.19478185    -1924.6866      702.97773      702.97773      702.97773      3.4739591e+08  1.5389132     -27526015      -27526015       1050.8105     -27524964      -1920.539      -1931.1735     -1922.3474      8.7185854     -5.9172815     -3.5837766      14292.849    
    162000   351.86526      0.081          0.19398632     0.19482327     0.19382641    -1916.7234      703.30303      703.30303      703.30303      3.4787841e+08  1.5367788     -27512982      -27512982       1047.7947     -27511934      -1914.4962     -1922.7562     -1912.9179      7.7657323     -5.3762477     -3.0367498      14318.208    
    163000   350.54536      0.0815         0.19330595     0.19376402     0.19309818    -1908.6048      703.62834      703.62834      703.62834      3.4836135e+08  1.5346483     -27499990      -27499990       1043.8642     -27498946      -1907.7814     -1912.3022     -1905.7309      5.9384159     -5.4630599     -2.5676481      14302.637    
    164000   349.25393      0.082          0.19224066     0.19256355     0.19230699    -1898.5482      703.95364      703.95364      703.95364      3.4884473e+08  1.5325218     -27487045      -27487045       1040.0186     -27486005      -1897.2678     -1900.4544     -1897.9224      4.7782569     -6.5108709     -2.8694377      14309.266    
    165000   348.24854      0.0825         0.19098131     0.19150457     0.19113267    -1887.0583      704.27894      704.27894      704.27894      3.4932857e+08  1.5303992     -27474168      -27474168       1037.0247     -27473131      -1884.839      -1890.0032     -1886.3328      5.6359105     -7.487803      -3.9844526      14293.106    
    166000   347.59309      0.083          0.18976514     0.1906272      0.18988673    -1876.0723      704.60424      704.60424      704.60424      3.4981285e+08  1.5282805     -27461356      -27461356       1035.0729     -27460321      -1872.8363     -1881.3442     -1874.0363      7.3864438     -7.5362618     -5.6433667      14300.084    
    167000   346.97127      0.0835         0.18873184     0.18981056     0.18897051    -1866.9723      704.92954      704.92954      704.92954      3.5029758e+08  1.5261657     -27448597      -27448597       1033.2212     -27447564      -1862.6385     -1873.2846     -1864.9939      8.2507879     -6.763853      -5.8077304      14293.086    
    168000   346.42002      0.084          0.18800965     0.18899176     0.18833129    -1859.8         705.25485      705.25485      705.25485      3.5078276e+08  1.5240549     -27435878      -27435878       1031.5797     -27434847      -1855.511      -1865.2036     -1858.6853      7.6418191     -6.3342696     -4.2157199      14325.547    
    169000   346.04942      0.0845         0.18768214     0.18833173     0.18780949    -1854.8347      705.58015      705.58015      705.58015      3.5126838e+08  1.5219479     -27423187      -27423187       1030.4761     -27422156      -1852.2787     -1858.6897     -1853.5356      5.7879233     -6.4377994     -2.9346712      14323.534    
    170000   345.29512      0.085          0.18730592     0.1877435      0.18727256    -1849.8955      705.90545      705.90545      705.90545      3.5175445e+08  1.5198448     -27410517      -27410517       1028.2299     -27409489      -1848.5657     -1852.8843     -1848.2364      4.7633924     -6.3285558     -3.0657296      14331.952    
    171000   344.44011      0.0855         0.18646896     0.18690566     0.18645649    -1841.7012      706.23075      706.23075      706.23075      3.5224097e+08  1.5177455     -27397876      -27397876       1025.6838     -27396851      -1840.3056     -1844.6155     -1840.1825      4.5896493     -5.7629385     -2.7682092      14311.153    
    172000   343.95045      0.086          0.18547738     0.18597656     0.18542504    -1831.9894      706.55605      706.55605      706.55605      3.5272794e+08  1.5156502     -27385286      -27385286       1024.2257     -27384262      -1830.5194     -1835.446      -1830.0029      3.8869215     -5.554017      -1.70455        14302.989    
    173000   343.44411      0.0865         0.18465744     0.18516488     0.18454693    -1823.733       706.88136      706.88136      706.88136      3.5321536e+08  1.5135587     -27372745      -27372745       1022.7179     -27371723      -1822.4272     -1827.4353     -1821.3366      2.8168553     -6.0558175     -1.3349105      14258.317    
    174000   342.55869      0.087          0.18399595     0.18440194     0.18382555    -1816.6738      707.20666      707.20666      707.20666      3.5370323e+08  1.511471      -27360237      -27360237       1020.0813     -27359217      -1815.8988     -1819.9056     -1814.2171      2.6306307     -6.8437814     -1.6978336      14301.599    
    175000   341.93907      0.0875         0.18332468     0.18364349     0.18319271    -1809.8886      707.53196      707.53196      707.53196      3.5419154e+08  1.5093872     -27347760      -27347760       1018.2362     -27346742      -1809.2739     -1812.4203     -1807.9715      3.1941862     -7.1881388     -1.4536687      14298.797    
    176000   341.63597      0.088          0.18263512     0.18297652     0.18269723    -1803.796       707.85726      707.85726      707.85726      3.5468031e+08  1.5073072     -27335319      -27335319       1017.3336     -27334302      -1802.4685     -1805.8379     -1803.0815      3.859489      -7.276451      -1.5554148      14309.95     
    177000   341.13391      0.0885         0.18200275     0.18230776     0.18219463    -1797.8621      708.18256      708.18256      708.18256      3.5516952e+08  1.505231      -27322912      -27322912       1015.8385     -27321896      -1796.2275     -1799.2377     -1798.1212      4.05227       -7.2196294     -2.8949437      14301.142    
    178000   340.45497      0.089          0.1813548      0.18152121     0.18151822    -1790.9178      708.50787      708.50787      708.50787      3.5565919e+08  1.5031586     -27310536      -27310536       1013.8168     -27309523      -1789.8327     -1791.4751     -1791.4456      3.9575234     -6.6942182     -3.1768993      14291.131    
    179000   340.00416      0.0895         0.18071314     0.18076442     0.1807911     -1783.9252      708.83317      708.83317      708.83317      3.561493e+08   1.50109       -27298190      -27298190       1012.4743     -27297177      -1783.5001     -1784.0061     -1784.2694      3.5312744     -5.8759227     -1.8066695      14307.157    
    180000   339.53867      0.09           0.18007328     0.18022615     0.17998412    -1777.3947      709.15847      709.15847      709.15847      3.5663986e+08  1.4990253     -27285874      -27285874       1011.0882     -27284863      -1777.1851     -1778.6938     -1776.3052      2.7708443     -5.5873707     -0.49228051     14294.929    
    181000   338.76489      0.0905         0.17935677     0.17972593     0.17900425    -1770.1684      709.48377      709.48377      709.48377      3.5713088e+08  1.4969643     -27273595      -27273595       1008.784      -27272586      -1770.1137     -1773.757      -1766.6346      1.8734475     -5.4115534     -0.068724587    14298.834    
    182000   338.1828       0.091          0.17860333     0.17902957     0.17808143    -1762.3631      709.80907      709.80907      709.80907      3.5762234e+08  1.4949071     -27261363      -27261363       1007.0506     -27260356      -1762.6778     -1766.8845     -1757.5271      1.3061012     -5.0968681     -0.14812951     14332.148    
    183000   337.86017      0.0915         0.17807655     0.17817589     0.1775799     -1756.1719      710.13438      710.13438      710.13438      3.5811426e+08  1.4928536     -27249168      -27249168       1006.0899     -27248162      -1757.4789     -1758.4593     -1752.5773      1.6832817     -5.4739491     -0.010769201    14309.669    
    184000   337.30181      0.092          0.17772195     0.17747458     0.17738219    -1752.0478      710.45968      710.45968      710.45968      3.5860662e+08  1.4908039     -27236991      -27236991       1004.4272     -27235986      -1753.9793     -1751.5379     -1750.6261      2.9645244     -6.5206504      0.68628955     14335.552    
    185000   336.85903      0.0925         0.17718125     0.17694082     0.17703429    -1747.3685      710.78498      710.78498      710.78498      3.5909944e+08  1.488758      -27224824      -27224824       1003.1087     -27223821      -1748.6429     -1746.2701     -1747.1926      3.8153814     -7.0948896      0.5129304      14348.476    
    186000   336.93189      0.093          0.17654518     0.1764723      0.17649232    -1741.9518      711.11028      711.11028      711.11028      3.5959271e+08  1.4867158     -27212682      -27212682       1003.3256     -27211679      -1742.3655     -1741.6462     -1741.8438      3.1948258     -6.6622315     -0.96258368     14230.235    
    187000   337.0895       0.0935         0.17602867     0.17604801     0.17594206    -1737.0466      711.43558      711.43558      711.43558      3.6008643e+08  1.4846774     -27200572      -27200572       1003.795      -27199569      -1737.2679     -1737.4588     -1736.4131      1.9326377     -6.3195325     -2.2576497      14338.031    
    188000   336.83171      0.094          0.17554284     0.17553966     0.17521251    -1731.376       711.76089      711.76089      711.76089      3.605806e+08   1.4826426     -27188490      -27188490       1003.0273     -27187487      -1732.4731     -1732.4417     -1729.213       1.3992106     -7.0697185     -1.8847565      14321.613    
    189000   336.34203      0.0945         0.17499039     0.17492848     0.17437832    -1724.8036      712.08619      712.08619      712.08619      3.6107522e+08  1.4806116     -27176437      -27176437       1001.5691     -27175435      -1727.0208     -1726.4098     -1720.9802      2.510874      -6.9663195     -0.7558115      14329.54     
    190000   335.85706      0.095          0.17441266     0.17432307     0.17360607    -1718.3709      712.41149      712.41149      712.41149      3.615703e+08   1.4785843     -27164415      -27164415       1000.125      -27163415      -1721.3192     -1720.4349     -1713.3587      3.3018112     -4.7523103     -0.3652156      14308.232    
    191000   335.48025      0.0955         0.17368427     0.17373563     0.17295891    -1711.9131      712.73679      712.73679      712.73679      3.6206583e+08  1.4765607     -27152425      -27152425       999.00291     -27151426      -1714.1305     -1714.6373     -1706.9717      2.6881526     -3.1869951     -0.17977209     14320.054    
    192000   335.43441      0.096          0.17292594     0.17302687     0.17249107    -1705.5478      713.06209      713.06209      713.06209      3.6256181e+08  1.4745408     -27140468      -27140468       998.8664      -27139469      -1706.6463     -1707.6425     -1702.3545      1.5425181     -4.215985       0.026759263    14334.942    
    193000   335.20231      0.0965         0.17238165     0.17239417     0.17231913    -1701.1101      713.3874       713.3874       713.3874       3.6305824e+08  1.4725245     -27128536      -27128536       998.17525     -27127538      -1701.2746     -1701.3981     -1700.6576      1.1912847     -5.9971344      0.16329669     14312.007    
    194000   334.34202      0.097          0.17199739     0.17194134     0.17218157    -1697.9038      713.7127       713.7127       713.7127       3.6355513e+08  1.470512      -27116614      -27116614       995.61346     -27115619      -1697.4823     -1696.9291     -1699.3         1.5501263     -7.177726      -0.14396369     14313.562    
    195000   333.63959      0.0975         0.1715258      0.17152367     0.1717382     -1693.5198      714.038        714.038        714.038        3.6405247e+08  1.4685031     -27104706      -27104706       993.52171     -27103713      -1692.828      -1692.807      -1694.9243      1.4973556     -7.4135201     -0.19918923     14316.643    
    196000   333.76945      0.098          0.17096652     0.170911       0.17088338    -1686.8522      714.3633       714.3633       714.3633       3.6455026e+08  1.4664978     -27092834      -27092834       993.90844     -27091841      -1687.3084     -1686.7604     -1686.4879      0.79760407    -6.756255       0.11155813     14343.395    
    197000   333.97368      0.0985         0.17045988     0.17029231     0.17002832    -1680.3372      714.68861      714.68861      714.68861      3.650485e+08   1.4644963     -27081002      -27081002       994.51658     -27080008      -1682.3082     -1680.6544     -1678.0491      0.069992768   -6.0334731      0.079611122    14355.778    
    198000   333.69659      0.099          0.17000444     0.16988353     0.16939982    -1675.4266      715.01391      715.01391      715.01391      3.655472e+08   1.4624983     -27069192      -27069192       993.69147     -27068198      -1677.8134     -1676.6201     -1671.8463     -0.09242955    -5.424059       0.39031256     14305.899    
    199000   333.42312      0.0995         0.16959856     0.16948636     0.16899643    -1671.4577      715.33921      715.33921      715.33921      3.6604636e+08  1.460504      -27057399      -27057399       992.87712     -27056406      -1673.8076     -1672.7003     -1667.8651      0.85934494    -4.9773813      1.8783359      14289.91     
    200000   333.60111      0.1            0.16916312     0.16900716     0.16875601    -1667.6578      715.66451      715.66451      715.66451      3.6654597e+08  1.4585133     -27045625      -27045625       993.40713     -27044632      -1669.5102     -1667.971      -1665.4923      2.0582603     -5.3715585      2.9427881      13989.277    
    201000   333.84011      0.1005         0.1687057      0.16848551     0.16838994    -1663.2327      715.98981      715.98981      715.98981      3.6704603e+08  1.4565262     -27033871      -27033871       994.11885     -27032877      -1664.9958     -1662.8227     -1661.8795      1.8122315     -6.0962815      2.3714028      14308.221    
    202000   333.80197      0.101          0.16814602     0.16795265     0.16774       -1657.5003      716.31512      716.31512      716.31512      3.6754655e+08  1.4545428     -27022143      -27022143       994.00526     -27021149      -1659.4721     -1657.5638     -1655.4651      0.48846147    -6.3872473      1.3455158      14294.046    
    203000   333.20618      0.1015         0.16759024     0.1674751      0.16713834    -1652.1217      716.64042      716.64042      716.64042      3.6804752e+08  1.4525629     -27010440      -27010440       992.23111     -27009448      -1653.9871     -1652.8507     -1649.5272     -0.54366665    -6.3756513      0.13156706     14331.966    
    204000   332.34823      0.102          0.16716088     0.16706437     0.16679043    -1648.2134      716.96572      716.96572      716.96572      3.6854895e+08  1.4505866     -26998755      -26998755       989.67629     -26997766      -1649.7497     -1648.7971     -1646.0935     -0.42823893    -6.3740607     -1.0191871      14300.73     
    205000   331.79289      0.1025         0.16673999     0.16663001     0.16643713    -1644.2376      717.29102      717.29102      717.29102      3.6905083e+08  1.4486139     -26987089      -26987089       988.02258     -26986101      -1645.5957     -1644.5103     -1642.6068      0.91188468    -5.6879518     -1.008399       14314.901    
    206000   331.40638      0.103          0.16627098     0.16618958     0.16589182    -1639.4519      717.61632      717.61632      717.61632      3.6955317e+08  1.4466448     -26975442      -26975442       986.87162     -26974455      -1640.967      -1640.1636     -1637.225       2.7448589     -4.3171843      0.51202312     14283.208    
    207000   331.11977      0.1035         0.16576239     0.16560299     0.1651603     -1633.4425      717.94163      717.94163      717.94163      3.7005596e+08  1.4446793     -26963820      -26963820       986.01815     -26962834      -1635.9476     -1634.3745     -1630.0055      3.4464619     -3.6337039      1.982996       14316.379    
    208000   331.1924       0.104          0.16526766     0.16493025     0.1645979     -1627.7517      718.26693      718.26693      718.26693      3.7055921e+08  1.4427173     -26952223      -26952223       986.2344      -26951236      -1631.065      -1627.735      -1624.4549      2.6522212     -3.965261       2.4517554      14313.861    
    209000   331.48007      0.1045         0.1647337      0.16448219     0.16422007    -1623.2781      718.59223      718.59223      718.59223      3.7106291e+08  1.4407588     -26940653      -26940653       987.09105     -26939666      -1625.7952     -1623.313      -1620.7261      1.4405627     -4.2080901      2.3292923      14327.96     
    210000   332.00903      0.105          0.1641674      0.16417617     0.16380198    -1619.033       718.91753      718.91753      718.91753      3.7156708e+08  1.4388039     -26929119      -26929119       988.66619     -26928131      -1620.2062     -1620.2928     -1616.5999      0.8853607     -4.8968305      1.9123828      14302.333    
    211000   332.13888      0.1055         0.16380812     0.16387128     0.16342747    -1615.616       719.24283      719.24283      719.24283      3.7207169e+08  1.4368526     -26917609      -26917609       989.05288     -26916620      -1616.6605     -1617.2838     -1612.9037      0.49208083    -6.2930198      1.5652419      14296.891    
    212000   331.44843      0.106          0.16358268     0.16340377     0.16321387    -1612.6337      719.56814      719.56814      719.56814      3.7257677e+08  1.4349047     -26906095      -26906095       986.99682     -26905108      -1614.4355     -1612.6698     -1610.7956      0.57240416    -7.4907155      0.95198047     14292.032    
    213000   330.93915      0.1065         0.16318554     0.16279371     0.16286992    -1608.1887      719.89344      719.89344      719.89344      3.730823e+08   1.4329604     -26894584      -26894584       985.48027     -26893599      -1610.516      -1606.649      -1607.4012      0.52303616    -7.1740938     -0.017014996    14316.037    
    214000   331.34551      0.107          0.1626198      0.16232413     0.16231353    -1602.9524      720.21874      720.21874      720.21874      3.7358829e+08  1.4310196     -26883101      -26883101       986.69035     -26882115      -1604.9326     -1602.0146     -1601.91        0.078043651   -5.4178254     -0.51363343     14280.744    
    215000   331.7169       0.1075         0.16217275     0.16205254     0.16182593    -1598.9842      720.54404      720.54404      720.54404      3.7409473e+08  1.4290823     -26871653      -26871653       987.79628     -26870665      -1600.5206     -1599.3343     -1597.0977     -0.42470313    -4.4129228      0.065802823    14314.186    
    216000   331.21697      0.108          0.1618419      0.1615996      0.16129511    -1594.6595      720.86934      720.86934      720.86934      3.7460164e+08  1.4271485     -26860228      -26860228       986.30757     -26859242      -1597.2554     -1594.8641     -1591.859      -0.30061854    -4.0870301      1.7102544      14304.9      
    217000   330.56702      0.1085         0.16141286     0.16098192     0.16057191    -1588.8369      721.19465      721.19465      721.19465      3.75109e+08    1.4252182     -26848823      -26848823       984.37214     -26847839      -1593.021      -1588.7681     -1584.7215      0.81527308    -4.381962       3.0915333      14304.254    
[...]
   3065000   324.46816      1.5325         0.011837313    0.011781573    0.011680188   -116.12492      1647.6549      1647.6549      1647.6549      4.4729985e+09  0.11951986    -8522367.5     -8522367.5      966.21076     -8521401.2     -116.8252      -116.27508     -115.27449      0.18031651    -0.39438225     1.0725287      12624.601    
   3066000   324.48371      1.533          0.01182819     0.011778304    0.011673585   -116.06244      1647.9802      1647.9802      1647.9802      4.4756484e+09  0.1194491     -8518038.7     -8518038.7      966.25709     -8517072.4     -116.73516     -116.24282     -115.20933      0.1827781     -0.39473462     1.103199       12621.992    
   3067000   324.54246      1.5335         0.011818872    0.011778163    0.011667743   -116.0121       1648.3055      1648.3055      1648.3055      4.4782993e+09  0.11937839    -8513710.5     -8513710.5      966.43201     -8512744.1     -116.6432      -116.24143     -115.15167      0.17718433    -0.40311284     1.1206875      12611.113    
   3068000   324.61069      1.534          0.011811913    0.011777506    0.011661973   -115.96807      1648.6308      1648.6308      1648.6308      4.4809513e+09  0.11930774    -8509382.5     -8509382.5      966.6352      -8508415.9     -116.57452     -116.23495     -115.09473      0.16181395    -0.41643376     1.1153017      12581.748    
   3069000   324.65145      1.5345         0.011806601    0.011771655    0.011653852   -115.90462      1648.9561      1648.9561      1648.9561      4.4836043e+09  0.11923714    -8505054.5     -8505054.5      966.75658     -8504087.7     -116.5221      -116.1772      -115.01457      0.13944487    -0.42458553     1.0957895      12573.981    
   3070000   324.64803      1.535          0.011800649    0.011759338    0.011643179   -115.80941      1649.2814      1649.2814      1649.2814      4.4862584e+09  0.1191666     -8500727.8     -8500727.8      966.74641     -8499761       -116.46335     -116.05564     -114.90924      0.11854886    -0.41550507     1.0752181      12570.918    
   3071000   324.60782      1.5355         0.011792874    0.011745837    0.011632895   -115.70559      1649.6067      1649.6067      1649.6067      4.4889135e+09  0.11909612    -8496403.4     -8496403.4      966.62667     -8495436.8     -116.38662     -115.92239     -114.80775      0.11009025    -0.38645106     1.0670631      12507.67     
   3072000   324.54799      1.536          0.011783528    0.011736077    0.011623248   -115.611        1649.932       1649.932       1649.932       4.4915696e+09  0.11902569    -8492081       -8492081        966.4485      -8491114.5     -116.29438     -115.82607     -114.71253      0.1186684     -0.34858921     1.0730076      12478.362    
   3073000   324.48221      1.5365         0.011773786    0.011729882    0.011613363   -115.52605      1650.2573      1650.2573      1650.2573      4.4942268e+09  0.11895531    -8487760       -8487760        966.25262     -8486793.8     -116.19823     -115.76493     -114.61498      0.13604258    -0.32385829     1.0866692      12478.249    
   3074000   324.41484      1.537          0.011762926    0.011724019    0.011601521   -115.43208      1650.5826      1650.5826      1650.5826      4.4968851e+09  0.118885      -8483440.4     -8483440.4      966.052       -8482474.3     -116.09106     -115.70707     -114.49811      0.14621821    -0.32898315     1.1081388      12452.849    
   3075000   324.35513      1.5375         0.01175016     0.011716871    0.011587253   -115.31963      1650.9079      1650.9079      1650.9079      4.4995444e+09  0.11881473    -8479122.8     -8479122.8      965.87418     -8478157       -115.96506     -115.63653     -114.3573       0.14485751    -0.35275699     1.1289792      12468.439    
   3076000   324.31211      1.538          0.01173713     0.01170937     0.01157464    -115.2106       1651.2332      1651.2332      1651.2332      4.5022048e+09  0.11874453    -8474808       -8474808        965.74609     -8473842.3     -115.83647     -115.5625      -114.23282      0.13680715    -0.3806646      1.1258651      12495.955    
   3077000   324.2946       1.5385         0.011726276    0.011703518    0.011567565   -115.13236      1651.5585      1651.5585      1651.5585      4.5048662e+09  0.11867437    -8470495.4     -8470495.4      965.69394     -8469529.7     -115.72935     -115.50474     -114.16299      0.13834921    -0.40784094     1.0926259      12540.569    
   3078000   324.30603      1.539          0.011718874    0.011699818    0.01156693    -115.09375      1651.8838      1651.8838      1651.8838      4.5075286e+09  0.11860428    -8466183       -8466183        965.72798     -8465217.3     -115.65629     -115.46823     -114.15672      0.15518836    -0.42988349     1.0584577      12525.151    
   3079000   324.34389      1.5395         0.011713649    0.011694051    0.011566223   -115.05526      1652.2091      1652.2091      1652.2091      4.5101921e+09  0.11853423    -8461870.1     -8461870.1      965.84073     -8460904.2     -115.60473     -115.41131     -114.14974      0.18143396    -0.43786298     1.0452618      12509.489    
   3080000   324.40167      1.54           0.011708047    0.011682414    0.011560408   -114.97942      1652.5344      1652.5344      1652.5344      4.5128567e+09  0.11846425    -8457557.4     -8457557.4      966.01279     -8456591.4     -115.54944     -115.29646     -114.09235      0.20852936    -0.43575588     1.0548895      12510.3      
   3081000   324.46995      1.5405         0.011700323    0.011666866    0.01155074    -114.87106      1652.8597      1652.8597      1652.8597      4.5155223e+09  0.11839432    -8453247       -8453247        966.21609     -8452280.7     -115.47321     -115.14302     -113.99694      0.22814072    -0.42377936     1.0747015      12510.648    
   3082000   324.53034      1.541          0.011689547    0.011653209    0.01154083    -114.75808      1653.185       1653.185       1653.185       4.5181889e+09  0.11832444    -8448939.5     -8448939.5      966.39593     -8447973.2     -115.36686     -115.00823     -113.89914      0.22693684    -0.40805472     1.0759493      12506.966    
   3083000   324.56792      1.5415         0.011678101    0.011644059    0.011532789   -114.66387      1653.5103      1653.5103      1653.5103      4.5208566e+09  0.11825462    -8444634.6     -8444634.6      966.50783     -8443668.1     -115.25389     -114.91793     -113.81978      0.20328508    -0.40820272     1.0499093      12509.142    
   3084000   324.57604      1.542          0.011667686    0.011637552    0.011527313   -114.59018      1653.8356      1653.8356      1653.8356      4.5235254e+09  0.11818485    -8440331.1     -8440331.1      966.53202     -8439364.5     -115.1511      -114.8537      -113.76573      0.17426946    -0.42475144     1.0241174      12501.41     
   3085000   324.56987      1.5425         0.011658756    0.011629965    0.011522566   -114.52023      1654.1609      1654.1609      1654.1609      4.5261951e+09  0.11811514    -8436028.4     -8436028.4      966.51364     -8435061.8     -115.06298     -114.77883     -113.71888      0.15875248    -0.43076197     1.0199318      12502.72     
   3086000   324.57125      1.543          0.011652319    0.011620465    0.011516774   -114.44875      1654.4862      1654.4862      1654.4862      4.528866e+09   0.11804548    -8431726.7     -8431726.7      966.51777     -8430760.2     -114.99944     -114.68508     -113.66172      0.15549525    -0.41470895     1.0359825      12478.277    
   3087000   324.58379      1.5435         0.011648089    0.011610864    0.011509748   -114.38013      1654.8115      1654.8115      1654.8115      4.5315379e+09  0.11797588    -8427426.1     -8427426.1      966.55511     -8426459.5     -114.9577      -114.59032     -113.59238      0.16431385    -0.39411516     1.0487513      12468.313    
   3088000   324.5859       1.544          0.011645947    0.011603675    0.011500884   -114.32028      1655.1368      1655.1368      1655.1368      4.5342108e+09  0.11790633    -8423126.2     -8423126.2      966.56139     -8422159.7     -114.93656     -114.51937     -113.5049       0.17227357    -0.38299593     1.0428092      12465.879    
   3089000   324.55276      1.5445         0.011644454    0.011598121    0.011489859   -114.26082      1655.4621      1655.4621      1655.4621      4.5368848e+09  0.11783684    -8418826.8     -8418826.8      966.4627      -8417860.3     -114.92182     -114.46455     -113.3961       0.1609055     -0.3900552      1.0306227      12463.831    
   3090000   324.502        1.545          0.011639135    0.011592069    0.011477774   -114.18366      1655.7874      1655.7874      1655.7874      4.5395599e+09  0.1177674     -8414528.1     -8414528.1      966.31156     -8413561.7     -114.86933     -114.40483     -113.27682      0.1364829     -0.4074565      1.0285213      12485.83     
   3091000   324.47655      1.5455         0.011627405    0.011585371    0.011466538   -114.08607      1656.1127      1656.1127      1656.1127      4.542236e+09   0.11769802    -8410231       -8410231        966.23575     -8409264.7     -114.75356     -114.33872     -113.16593      0.11656318    -0.41952374     1.044171       12548.524    
   3092000   324.49641      1.546          0.011611351    0.011577437    0.011457344   -113.97691      1656.438       1656.438       1656.438       4.5449131e+09  0.11762869    -8405936.3     -8405936.3      966.29491     -8404970       -114.59513     -114.26042     -113.07519      0.10669561    -0.42666782     1.0698358      12580.191    
   3093000   324.54527      1.5465         0.011596175    0.011569063    0.011449911   -113.87499      1656.7633      1656.7633      1656.7633      4.5475913e+09  0.11755941    -8401644.2     -8401644.2      966.44038     -8400677.8     -114.44535     -114.17777     -113.00183      0.11249601    -0.42659355     1.0805549      12600.638    
   3094000   324.59939      1.547          0.011584848    0.011559843    0.011443325   -113.78572      1657.0886      1657.0886      1657.0886      4.5502706e+09  0.11749019    -8397354.3     -8397354.3      966.60156     -8396387.7     -114.33356     -114.08678     -112.93684      0.12702112    -0.41828382     1.0673899      12662.914    
   3095000   324.63652      1.5475         0.01157764     0.011549291    0.011437738   -113.70892      1657.4139      1657.4139      1657.4139      4.5529509e+09  0.11742103    -8393066.1     -8393066.1      966.71212     -8392099.4     -114.26242     -113.98264     -112.8817       0.12577041    -0.40857766     1.0439483      12683.46     
   3096000   324.63593      1.548          0.011572705    0.011539152    0.011433351   -113.6449       1657.7392      1657.7392      1657.7392      4.5556323e+09  0.11735191    -8388778.8     -8388778.8      966.71036     -8387812.1     -114.21372     -113.88258     -112.8384       0.094373999   -0.39880388     1.0320335      12661.896    
   3097000   324.59545      1.5485         0.011568182    0.011531149    0.011429198   -113.59003      1658.0646      1658.0646      1658.0646      4.5583147e+09  0.11728286    -8384492       -8384492        966.58982     -8383525.4     -114.16908     -113.80359     -112.79742      0.062836337   -0.39140627     1.0465287      12690.685    
   3098000   324.53599      1.549          0.01156316     0.011525794    0.011423007   -113.53553      1658.3899      1658.3899      1658.3899      4.5609982e+09  0.11721385    -8380205.1     -8380205.1      966.41275     -8379238.7     -114.11952     -113.75074     -112.73632      0.066177042   -0.39110577     1.0660095      12668.356    
   3099000   324.49334      1.5495         0.01155734     0.011520356    0.01141218    -113.46287      1658.7152      1658.7152      1658.7152      4.5636827e+09  0.1171449     -8375918.8     -8375918.8      966.28575     -8374952.5     -114.06208     -113.69707     -112.62946      0.094900786   -0.40502563     1.0588719      12666.861    
   3100000   324.48084      1.55           0.011549988    0.01151271     0.011399168   -113.37073      1659.0405      1659.0405      1659.0405      4.5663682e+09  0.11707601    -8371634       -8371634        966.24853     -8370667.8     -113.98952     -113.62162     -112.50104      0.12698133    -0.41934202     1.0281815      12421.38     
   3101000   324.47617      1.5505         0.011541406    0.011502951    0.011387075   -113.2706       1659.3658      1659.3658      1659.3658      4.5690549e+09  0.11700717    -8367351.4     -8367351.4      966.23463     -8366385.2     -113.90483     -113.5253      -112.38169      0.14748635    -0.42136839     1.0029195      12661.441    
   3102000   324.46891      1.551          0.011534368    0.01149205     0.01137777    -113.18098      1659.6911      1659.6911      1659.6911      4.5717425e+09  0.11693838    -8363071       -8363071        966.213       -8362104.8     -113.83536     -113.41772     -112.28986      0.16046705    -0.40828745     0.99642345     12704.218    
   3103000   324.46332      1.5515         0.01152973     0.011481891    0.011371311   -113.11105      1660.0164      1660.0164      1660.0164      4.5744313e+09  0.11686965    -8358791.9     -8358791.9      966.19637     -8357825.7     -113.78958     -113.31746     -112.22612      0.17375764    -0.39367221     1.0077578      12705.802    
   3104000   324.45837      1.552          0.011523277    0.011473423    0.01136544    -113.04265      1660.3417      1660.3417      1660.3417      4.5771211e+09  0.11680097    -8354513.6     -8354513.6      966.18162     -8353547.4     -113.7259      -113.23388     -112.16818      0.18707451    -0.39726998     1.0312236      12710.483    
   3105000   324.45329      1.5525         0.011514888    0.011466705    0.011357935   -112.96826      1660.667       1660.667       1660.667       4.5798119e+09  0.11673234    -8350236.3     -8350236.3      966.1665      -8349270.1     -113.64311     -113.16757     -112.09411      0.20734403    -0.42079722     1.0513715      12686.33     
   3106000   324.4494       1.553          0.011506935    0.011460916    0.011349803   -112.8963       1660.9923      1660.9923      1660.9923      4.5825038e+09  0.11666377    -8345960.2     -8345960.2      966.1549      -8344994       -113.56461     -113.11044     -112.01384      0.22870939    -0.4457965      1.0630224      12670.777    
   3107000   324.45156      1.5535         0.011499635    0.011456301    0.011343253   -112.83556      1661.3176      1661.3176      1661.3176      4.5851968e+09  0.11659525    -8341685       -8341685        966.16134     -8340718.9     -113.49257     -113.0649      -111.9492       0.23787649    -0.46127721     1.0671014      12642.794    
   3108000   324.46612      1.554          0.011491752    0.011452452    0.011338032   -112.77979      1661.6429      1661.6429      1661.6429      4.5878908e+09  0.11652679    -8337410.4     -8337410.4      966.20469     -8336444.2     -113.41477     -113.02691     -111.89768      0.22814505    -0.46436259     1.060405       12650.237    
   3109000   324.49137      1.5545         0.011482351    0.011447219    0.011331564   -112.71037      1661.9682      1661.9682      1661.9682      4.5905858e+09  0.11645838    -8333136.3     -8333136.3      966.27988     -8332170       -113.322       -112.97526     -111.83384      0.20587713    -0.46017061     1.0525864      12674.584    
   3110000   324.51489      1.555          0.011471449    0.011437633    0.011321626   -112.61027      1662.2935      1662.2935      1662.2935      4.5932819e+09  0.11639002    -8328863.8     -8328863.8      966.34992     -8327897.4     -113.2144      -112.88066     -111.73576      0.18758822    -0.45970274     1.0461583      12628.484    
   3111000   324.52447      1.5555         0.011457094    0.011425273    0.011310044   -112.48429      1662.6188      1662.6188      1662.6188      4.5959791e+09  0.11632171    -8324594.2     -8324594.2      966.37845     -8323627.8     -113.07273     -112.75868     -111.62146      0.18134577    -0.46391633     1.0420012      12566.475    
   3112000   324.52009      1.556          0.011441248    0.011414239    0.011299936   -112.36261      1662.9441      1662.9441      1662.9441      4.5986773e+09  0.11625346    -8320328.1     -8320328.1      966.3654      -8319361.7     -112.91634     -112.64978     -111.5217       0.1858955     -0.46439079     1.0387779      12591.957    
   3113000   324.50539      1.5565         0.011430593    0.01140725     0.011293252   -112.28257      1663.2694      1663.2694      1663.2694      4.6013766e+09  0.11618527    -8316064.3     -8316064.3      966.32163     -8315098       -112.81118     -112.5808      -111.45573      0.20068043    -0.45306758     1.0417486      12587.201    
   3114000   324.4799       1.557          0.011427174    0.0114035      0.011289582   -112.24692      1663.5947      1663.5947      1663.5947      4.604077e+09   0.11611712    -8311800.7     -8311800.7      966.24575     -8310834.5     -112.77744     -112.5438      -111.41951      0.20733257    -0.43553427     1.0471443      12588.159    
   3115000   324.45481      1.5575         0.011425455    0.011398441    0.011285611   -112.21155      1663.92        1663.92        1663.92        4.6067783e+09  0.11604903    -8307536.4     -8307536.4      966.17103     -8306570.2     -112.76047     -112.49387     -111.38032      0.19806299    -0.42483968     1.0533128      12571.717    
   3116000   324.43527      1.558          0.011419863    0.011389653    0.011279411   -112.14385      1664.2453      1664.2453      1664.2453      4.6094808e+09  0.11598099    -8303272.1     -8303272.1      966.11285     -8302306       -112.70529     -112.40714     -111.31913      0.18472568    -0.42713686     1.0634933      12626.131    
   3117000   324.41305      1.5585         0.011410138    0.01137738     0.01126991    -112.04023      1664.5706      1664.5706      1664.5706      4.6121843e+09  0.11591301    -8299009.6     -8299009.6      966.04668     -8298043.5     -112.60931     -112.28601     -111.22536      0.18482       -0.42869478     1.0720624      12605.044    
   3118000   324.37379      1.559          0.01139808     0.011364061    0.011258191   -111.91819      1664.8959      1664.8959      1664.8959      4.6148889e+09  0.11584508    -8294749.7     -8294749.7      965.92976     -8293783.8     -112.4903      -112.15457     -111.1097       0.19719434    -0.42643226     1.0734506      12592.767    
   3119000   324.31404      1.5595         0.01138678     0.011351774    0.011247655   -111.80593      1665.2212      1665.2212      1665.2212      4.6175945e+09  0.1157772     -8290493       -8290493        965.75183     -8289527.2     -112.37878     -112.0333      -111.00572      0.20542132    -0.42518837     1.0647706      12564.994    
   3120000   324.25211      1.56           0.011379625    0.011342109    0.01124061    -111.72743      1665.5465      1665.5465      1665.5465      4.6203012e+09  0.11570938    -8286238.1     -8286238.1      965.56741     -8285272.5     -112.30817     -111.93791     -110.9362       0.20075131    -0.42566334     1.0510185      12542.056    
   3121000   324.2199       1.5605         0.011375791    0.011334783    0.011235205   -111.67293      1665.8718      1665.8718      1665.8718      4.6230089e+09  0.1156416     -8281983.8     -8281983.8      965.4715      -8281018.4     -112.27033     -111.86561     -110.88285      0.19300072    -0.42708592     1.0468198      12561.987    
   3122000   324.23568      1.561          0.011372131    0.011328459    0.011227656   -111.61526      1666.1971      1666.1971      1666.1971      4.6257177e+09  0.11557389    -8277730       -8277730        965.51848     -82