LAMMPS (23 Jun 2022 - Update 1)
OMP_NUM_THREADS environment is not set. Defaulting to 1 thread. (src/comm.cpp:98)
  using 1 OpenMP thread(s) per MPI task
###

# Read restart info
read_restart ${read_res}
read_restart ./trial6/1000/equpmf71.res
Reading restart file ...
  restart file = 23 Jun 2022, LAMMPS = 23 Jun 2022
  restoring atom style atomic from restart
  orthogonal box = (1757.333 1757.333 1757.333) to (2242.667 2242.667 2242.667)
  1 by 2 by 2 MPI processor grid
  restoring pair style table from restart
  1000 atoms
  read_restart CPU = 0.056 seconds

# Settings
pair_style table/pgn spline 10941
pair_coeff 1 1 N20e.txt DE_GNP 308 72.9   # 1.35 * r
pair_coeff 2 2 N100e.txt DE_GNP 473.9 111.78
WARNING: 20 of 10941 force values in table DE_GNP are inconsistent with -dE/dr.
WARNING:  Should only be flagged at inflection points (src/pair_table_pgn.cpp:478)
pair_coeff 1 2 mixed_potentiale.txt DE_GNP 391.2 92.95
WARNING: 1564 of 10941 force values in table DE_GNP are inconsistent with -dE/dr.
WARNING:  Should only be flagged at inflection points (src/pair_table_pgn.cpp:478)

# Neighbor list
neighbor 2.0 bin
neigh_modify delay 0 every 1 check no once yes

# Temperature
variable T equal ${Temp}
variable T equal 300

# Deformation
reset_timestep 0
variable tmp equal "lx"
variable L0 equal ${tmp}
variable L0 equal 485.333923149143
variable strain equal "(lx - v_L0)/v_L0"
variable stp equal "step"
variable tmpe equal "temp"
variable p1 equal "v_strain"
variable p2 equal "-pxx*1.01325/10000"
variable p3 equal "-pyy*1.01325/10000"
variable p4 equal "-pzz*1.01325/10000"
variable p5 equal "lx"
variable p6 equal "ly"
variable p7 equal "lz"
variable p8 equal "press"
variable p9 equal "epair"
variable p10 equal "etotal"

# Thermo
thermo_style custom step temp v_p1 v_p2 v_p3 v_p4 press lx ly lz vol density epair pe ke etotal pxx pyy pzz pxy pxz pyz spcpu
thermo ${ts_save}
thermo 1000

# Dump
# dump 1 all custom 2000 ./${N20}${N100}/tensile/trajectory/trajectory_${usic}_${trial}_*.tensile.custom id type x y z ix iy iz
# dump_modify 1 sort id
dump 2 all cfg 50000 ./trial${trial}/${N20}${N100}/tensile/trajectory/dumpten.tens_${usic}_${trial}_*.cfg mass type xs ys zs fx fy fz
dump 2 all cfg 50000 ./trial6/${N20}${N100}/tensile/trajectory/dumpten.tens_${usic}_${trial}_*.cfg mass type xs ys zs fx fy fz
dump 2 all cfg 50000 ./trial6/100${N100}/tensile/trajectory/dumpten.tens_${usic}_${trial}_*.cfg mass type xs ys zs fx fy fz
dump 2 all cfg 50000 ./trial6/1000/tensile/trajectory/dumpten.tens_${usic}_${trial}_*.cfg mass type xs ys zs fx fy fz
dump 2 all cfg 50000 ./trial6/1000/tensile/trajectory/dumpten.tens_1_${trial}_*.cfg mass type xs ys zs fx fy fz
dump 2 all cfg 50000 ./trial6/1000/tensile/trajectory/dumpten.tens_1_6_*.cfg mass type xs ys zs fx fy fz
dump_modify 2 element N20 N100

fix 1 all nvt temp ${T} ${T} 100
fix 1 all nvt temp 300 ${T} 100
fix 1 all nvt temp 300 300 100
fix 2 all deform 1 x erate ${strain_rate} y erate ${strain_rate} z erate ${strain_rate} units box
fix 2 all deform 1 x erate 5e-6 y erate ${strain_rate} z erate ${strain_rate} units box
fix 2 all deform 1 x erate 5e-6 y erate 5e-6 z erate ${strain_rate} units box
fix 2 all deform 1 x erate 5e-6 y erate 5e-6 z erate 5e-6 units box
fix             def1 all print ${ts_save} "${p1} ${p2} ${p3} ${p4}" file ./tensile/${trial}/tensile${N20}${N100}_${usic}_${trial}.txt screen no
fix             def1 all print 1000 "${p1} ${p2} ${p3} ${p4}" file ./tensile/${trial}/tensile${N20}${N100}_${usic}_${trial}.txt screen no
fix             def1 all print 1000 "${p1} ${p2} ${p3} ${p4}" file ./tensile/6/tensile${N20}${N100}_${usic}_${trial}.txt screen no
fix             def1 all print 1000 "${p1} ${p2} ${p3} ${p4}" file ./tensile/6/tensile100${N100}_${usic}_${trial}.txt screen no
fix             def1 all print 1000 "${p1} ${p2} ${p3} ${p4}" file ./tensile/6/tensile1000_${usic}_${trial}.txt screen no
fix             def1 all print 1000 "${p1} ${p2} ${p3} ${p4}" file ./tensile/6/tensile1000_1_${trial}.txt screen no
fix             def1 all print 1000 "${p1} ${p2} ${p3} ${p4}" file ./tensile/6/tensile1000_1_6.txt screen no

timestep       		${ts}
timestep       		0.1
run				${steps_tensile}
run				6000000
Generated 0 of 1 mixed pair_coeff terms from geometric mixing rule
Unused restart file global fix info:
  fix style: npt, fix ID: 5
Neighbor list info ...
  update every 1 steps, delay 0 steps, check no
  max neighbors/atom: 2000, page size: 100000
  master list distance cutoff = 113.78
  ghost atom cutoff = 113.78
  binsize = 56.89, bins = 9 9 9
  1 neighbor lists, perpetual/occasional/extra = 1 0 0
  (1) pair table/pgn, perpetual
      attributes: half, newton on
      pair build: half/bin/atomonly/newton
      stencil: half/bin/3d
      bin: standard
Per MPI rank memory allocation (min/avg/max) = 3.867 | 3.867 | 3.867 Mbytes
   Step          Temp           v_p1           v_p2           v_p3           v_p4          Press            Lx             Ly             Lz           Volume        Density         E_pair         PotEng         KinEng         TotEng          Pxx            Pyy            Pzz            Pxy            Pxz            Pyz           S/CPU     
         0   295.23926      3.5136686e-16  0.071071177   -0.17252521     0.070405696    102.1411       485.33392      485.33392      485.33392      1.1431993e+08  3.2224672     -5863603.1     -5863603.1      879.17211     -5862724       -701.41798      1702.6915     -694.85019     -414.79102      23.342621     -1073.5946      0            
      1000   300.06103      0.0005         0.086943896   -0.15353492     0.086741136   -66.288698      485.57659      485.57659      485.57659      1.1449149e+08  3.2176383     -5863591.9     -5863591.9      893.5305      -5862698.3     -858.06953      1515.2719     -856.06845     -407.79928      22.715825     -1060.2523      13312.335    
      2000   314.18484      0.001          0.10086912    -0.13604744     0.10156443    -218.39332      485.81926      485.81926      485.81926      1.1466323e+08  3.2128191     -5863213.4     -5863213.4      935.5888      -5862277.8     -995.50084      1342.6838     -1002.363      -404.55282      19.996224     -1044.3901      13369.039    
      3000   312.38223      0.0015         0.1118674     -0.12058475     0.11329294    -344.02694      486.06192      486.06192      486.06192      1.1483514e+08  3.2080095     -5862517.3     -5862517.3      930.22095     -5861587.1     -1104.0454      1190.079      -1118.1144     -402.3189       14.326461     -1022.8708      13471.739    
      4000   294.56218      0.002          0.12147536    -0.1061153      0.12275653    -454.36827      486.30459      486.30459      486.30459      1.1500722e+08  3.2032095     -5861529       -5861529        877.15587     -5860651.9     -1198.8686      1047.2766     -1211.5127     -398.61282      8.717403      -997.77028      13394.915    
      5000   297.53207      0.0025         0.13147296    -0.091528472    0.13186247    -565.20096      486.54726      486.54726      486.54726      1.1517947e+08  3.198419      -5860247       -5860247        885.99971     -5859361       -1297.5373      903.31579     -1301.3814     -394.08969      6.1322374     -973.23368      13437.412    
      6000   305.76142      0.003          0.1422553     -0.07666274     0.14169818    -681.93351      486.78992      486.78992      486.78992      1.153519e+08   3.1936381     -5858657.3     -5858657.3      910.5053      -5857746.8     -1403.9506      756.60242     -1398.4523     -391.21966      5.8219973     -951.94601      13682.801    
      7000   304.28197      0.0035         0.15357793    -0.061707826    0.15254494    -804.06298      487.03259      487.03259      487.03259      1.1552449e+08  3.1888668     -5856753.5     -5856753.5      906.09975     -5855847.4     -1515.6963      609.00889     -1505.5015     -389.69421      4.2952583     -933.84653      13580.438    
      8000   290.19739      0.004          0.16518255    -0.046793242    0.16423641    -929.76631      487.27526      487.27526      487.27526      1.1569726e+08  3.1841049     -5854541.2     -5854541.2      864.15828     -5853677.1     -1630.225       461.8134      -1620.8873     -387.27351     -0.50820859    -916.79626      13458.93     
      9000   295.60518      0.0045         0.17633677    -0.032240253    0.17592322    -1052.7831      487.51793      487.51793      487.51793      1.158702e+08   3.1793525     -5852029.6     -5852029.6      880.26174     -5851149.3     -1740.3086      318.18655     -1736.2272     -383.81624     -7.1543661     -898.36454      13453.88     
     10000   310.02318      0.005          0.18639986    -0.018367883    0.18657474    -1166.5654      487.76059      487.76059      487.76059      1.1604332e+08  3.1746096     -5849226.9     -5849226.9      923.19611     -5848303.7     -1839.6236      181.27691     -1841.3495     -380.18094     -11.741383     -877.77142      13560.9      
     11000   302.82537      0.0055         0.19545944    -0.0049563141   0.19606372    -1271.706       488.00326      488.00326      488.00326      1.162166e+08   3.1698761     -5846147.2     -5846147.2      901.76224     -5845245.4     -1929.0347      48.915017     -1934.9985     -375.93732     -11.911144     -856.57909      13555.037    
     12000   298.00455      0.006          0.20455822     0.0084970944   0.20503718    -1375.4174      488.24593      488.24593      488.24593      1.1639006e+08  3.1651519     -5842804.9     -5842804.9      887.40666     -5841917.4     -2018.8327     -83.859801     -2023.5597     -370.69651     -9.8979951     -835.2016       13219.153    
     13000   306.9842       0.0065         0.21439433     0.022078839    0.21417834    -1482.5282      488.48859      488.48859      488.48859      1.1656369e+08  3.1604372     -5839202.8     -5839202.8      914.14652     -5838288.7     -2115.9075     -217.9012      -2113.7759     -366.36816     -12.006691     -814.28923      13493.633    
     14000   305.05336      0.007          0.2243778      0.035491725    0.22364126    -1590.6268      488.73126      488.73126      488.73126      1.1673749e+08  3.1557319     -5835334.1     -5835334.1      908.3968      -5834425.7     -2214.4367     -350.27609     -2207.1676     -363.81176     -19.760331     -795.10654      13737.023    
     15000   306.22802      0.0075         0.23355391     0.048244791    0.23284566    -1693.0483      488.97393      488.97393      488.97393      1.1691147e+08  3.1510358     -5831202.5     -5831202.5      911.89475     -5830290.6     -2304.9978     -476.13906     -2298.008      -361.44483     -28.478288     -776.83409      13518.067    
     16000   310.56382      0.008          0.24190937     0.06020942     0.24130444    -1787.7234      489.21659      489.21659      489.21659      1.1708561e+08  3.1463491     -5826819.2     -5826819.2      924.80603     -5825894.4     -2387.4598     -594.22078     -2381.4896     -358.1057      -33.755001     -759.26541      13480.669    
     17000   315.08924      0.0085         0.25012462     0.071814071    0.249479      -1879.818       489.45926      489.45926      489.45926      1.1725994e+08  3.1416717     -5822195.9     -5822195.9      938.28195     -5821257.6     -2468.538      -708.74978     -2462.1662     -353.08814     -37.254483     -742.10173      13313.715    
     18000   319.23937      0.009          0.2586271      0.083507144    0.25780061    -1973.6322      489.70193      489.70193      489.70193      1.1743443e+08  3.1370035     -5817341.2     -5817341.2      950.64032     -5816390.6     -2552.451      -824.15143     -2544.2942     -348.59379     -38.580772     -723.94017      13497.492    
     19000   321.32309      0.0095         0.26727291     0.09533555     0.26621727    -2068.6758      489.9446       489.9446       489.9446       1.176091e+08   3.1323446     -5812253.6     -5812253.6      956.84529     -5811296.8     -2637.7786     -940.88873     -2627.3602     -345.53268     -36.669269     -702.60575      13637.058    
     20000   322.44132      0.01           0.27544973     0.10717868     0.27451035    -2161.8185      490.18726      490.18726      490.18726      1.1778394e+08  3.1276949     -5806934.2     -5806934.2      960.1752      -5805974       -2718.4775     -1057.7713     -2709.2065     -342.74112     -36.58891      -680.58534      13380.278    
     21000   324.12875      0.0105         0.28265243     0.11855975     0.28227496    -2248.4979      490.42993      490.42993      490.42993      1.1795895e+08  3.1230544     -5801394.7     -5801394.7      965.20008     -5800429.5     -2789.5626     -1170.0937     -2785.8372     -340.66667     -41.519293     -661.06273      13411.147    
     22000   326.71171      0.011          0.28958156     0.12937006     0.28938227    -2330.2373      490.6726       490.6726       490.6726       1.1813414e+08  3.1184231     -5795646.3     -5795646.3      972.89168     -5794673.4     -2857.9478     -1276.7833     -2855.981      -338.52645     -46.587775     -643.26411      13472.747    
     23000   329.02148      0.0115         0.29681314     0.13980383     0.29604922    -2410.2844      490.91526      490.91526      490.91526      1.183095e+08   3.1138009     -5789692.1     -5789692.1      979.76978     -5788712.3     -2929.3179     -1379.7566     -2921.7786     -336.19493     -48.490799     -625.26604      13463.753    
     24000   330.26845      0.012          0.30382417     0.14989347     0.30245495    -2487.6144      491.15793      491.15793      491.15793      1.1848503e+08  3.1091879     -5783533.3     -5783533.3      983.48304     -5782549.9     -2998.5114     -1479.3335     -2984.9982     -331.74682     -50.453839     -604.75809      13525.723    
     25000   331.14582      0.0125         0.31018788     0.15955919     0.30861256    -2560.6041      491.4006       491.4006       491.4006       1.1866074e+08  3.104584      -5777178.9     -5777178.9      986.09569     -5776192.8     -3061.3164     -1574.7267     -3045.7691     -326.90714     -54.704272     -583.21354      13498.094    
     26000   331.91749      0.013          0.31640823     0.16917455     0.31475065    -2632.8923      491.64326      491.64326      491.64326      1.1883662e+08  3.0999891     -5770644.8     -5770644.8      988.39361     -5769656.4     -3122.7065     -1669.623      -3106.3474     -323.70064     -58.225635     -564.64842      13566.226    
     27000   332.40007      0.0135         0.32259858     0.17910091     0.32109227    -2706.7744      491.88593      491.88593      491.88593      1.1901267e+08  3.0954033     -5763930.9     -5763930.9      989.83066     -5762941.1     -3183.8004     -1767.5885     -3168.9343     -322.69922     -58.565856     -548.61911      13477.372    
     28000   333.02587      0.014          0.32801484     0.18861866     0.32750053    -2776.9851      492.1286       492.1286       492.1286       1.191889e+08   3.0908266     -5757032.7     -5757032.7      991.69418     -5756041       -3237.2548     -1861.5215     -3232.1789     -320.13248     -59.11769      -531.29774      13383.671    
     29000   334.45645      0.0145         0.33295233     0.19729903     0.33326286    -2840.7409      492.37127      492.37127      492.37127      1.193653e+08   3.0862589     -5749957.9     -5749957.9      995.9542      -5748961.9     -3285.984      -1947.19       -3289.0488     -317.221       -60.517995     -511.23543      13517.914    
     30000   336.03138      0.015          0.33821873     0.20580805     0.33848963    -2903.2532      492.61393      492.61393      492.61393      1.1954188e+08  3.0817001     -5742710.5     -5742710.5      1000.6441     -5741709.8     -3337.9593     -2031.1675     -3340.6329     -315.32902     -63.01146      -489.9903       13587.765    
     31000   336.98394      0.0155         0.34392406     0.21444985     0.3437847     -2967.8711      492.8566       492.8566       492.8566       1.1971863e+08  3.0771504     -5735293.8     -5735293.8      1003.4806     -5734290.3     -3394.2666     -2116.4555     -3392.8912     -311.11985     -67.445593     -468.92192      13542.241    
     32000   337.33135      0.016          0.34969168     0.22316983     0.3490739     -3032.9317      493.09927      493.09927      493.09927      1.1989555e+08  3.0726096     -5727713.8     -5727713.8      1004.5152     -5726709.2     -3451.1885     -2202.515      -3445.0915     -305.56898     -72.208755     -449.85652      13492.355    
     33000   337.59955      0.0165         0.35464961     0.23176968     0.35392566    -3093.4943      493.34193      493.34193      493.34193      1.2007265e+08  3.0680777     -5719977.9     -5719977.9      1005.3138     -5718972.6     -3500.1195     -2287.3889     -3492.9746     -302.73427     -74.632566     -435.0561       13695.327    
     34000   338.45702      0.017          0.3588818      0.23969675     0.35845368    -3148.3912      493.5846       493.5846       493.5846       1.2024992e+08  3.0635548     -5712087.1     -5712087.1      1007.8672     -5711079.3     -3541.888      -2365.623      -3537.6628     -301.60704     -77.118646     -420.55319      12565.799    
     35000   339.9352       0.0175         0.3629183      0.24730731     0.36289203    -3201.3081      493.82727      493.82727      493.82727      1.2042737e+08  3.0590407     -5704047.4     -5704047.4      1012.269      -5703035.2     -3581.7252     -2440.7334     -3581.4659     -299.61747     -78.569035     -404.85101      13511.37     
     36000   341.44729      0.018          0.36731271     0.25495556     0.36737523    -3255.674       494.06993      494.06993      494.06993      1.2060499e+08  3.0545355     -5695871.2     -5695871.2      1016.7717     -5694854.4     -3625.0946     -2516.2158     -3625.7116     -296.50613     -81.734491     -388.31229      13485.114    
     37000   342.21813      0.0185         0.37186113     0.26229704     0.37178059    -3309.2812      494.3126       494.3126       494.3126       1.2078279e+08  3.0500391     -5687550.8     -5687550.8      1019.0672     -5686531.7     -3669.984      -2588.6705     -3669.1892     -292.34197     -89.598962     -370.29666      13522.149    
     38000   342.35302      0.019          0.37638186     0.26916186     0.37571784    -3359.6893      494.55527      494.55527      494.55527      1.2096076e+08  3.0455515     -5679087.5     -5679087.5      1019.4688     -5678068       -3714.6001     -2656.4211     -3708.0468     -289.2907      -95.467683     -352.32807      13468.954    
     39000   342.21413      0.0195         0.38035234     0.27588799     0.37916958    -3406.2338      494.79793      494.79793      494.79793      1.211389e+08   3.0410728     -5670493.4     -5670493.4      1019.0552     -5669474.3     -3753.7858     -2722.8027     -3742.1128     -286.22145     -95.614916     -335.72463      13600.905    
     40000   342.78142      0.02           0.38297278     0.28243533     0.38222423    -3446.4424      495.0406       495.0406       495.0406       1.2131722e+08  3.0366028     -5661791       -5661791        1020.7445     -5660770.2     -3779.6474     -2787.42       -3772.2599     -280.55817     -95.602755     -318.05311      13513.134    
     41000   343.94332      0.0205         0.38507098     0.28865359     0.38503091    -3483.0347      495.28327      495.28327      495.28327      1.2149572e+08  3.0321416     -5652979.3     -5652979.3      1024.2045     -5651955.1     -3800.3551     -2848.7894     -3799.9596     -274.88146     -101.30018     -296.34042      13426.396    
     42000   344.19851      0.021          0.38739234     0.29487725     0.38783213    -3520.361       495.52594      495.52594      495.52594      1.2167439e+08  3.0276891     -5644051.4     -5644051.4      1024.9644     -5643026.4     -3823.2652     -2910.2122     -3827.6055     -271.12206     -105.41004     -273.6185       13477.582    
     43000   343.9991       0.0215         0.38996844     0.30124551     0.39037799    -3558.1608      495.7686       495.7686       495.7686       1.2185323e+08  3.0232453     -5635031.1     -5635031.1      1024.3706     -5634006.8     -3848.6893     -2973.062      -3852.7312     -268.66287     -104.95492     -254.66541      13486.861    
     44000   344.10696      0.022          0.39301353     0.30734204     0.39294506    -3596.6794      496.01127      496.01127      496.01127      1.2203225e+08  3.0188103     -5625917.4     -5625917.4      1024.6918     -5624892.8     -3878.742      -3033.2301     -3878.0662     -266.29859     -106.76901     -239.00077      13476.893    
     45000   344.10798      0.0225         0.39608889     0.31274704     0.39560174    -3633.3174      496.25394      496.25394      496.25394      1.2221145e+08  3.0143839     -5616690.7     -5616690.7      1024.6948     -5615666       -3909.0934     -3086.5733     -3904.2856     -263.22692     -111.23155     -223.78185      13495.316    
     46000   344.79015      0.023          0.39844475     0.31752517     0.39811538    -3665.0557      496.4966       496.4966       496.4966       1.2239082e+08  3.0099661     -5607361.2     -5607361.2      1026.7262     -5606334.4     -3932.3439     -3133.7298     -3929.0933     -258.07965     -114.94202     -205.74709      13506.881    
     47000   347.08489      0.0235         0.40012027     0.3224091      0.40022142    -3693.563       496.73927      496.73927      496.73927      1.2257037e+08  3.005557      -5597956.4     -5597956.4      1033.5595     -5596922.9     -3948.8801     -3181.9305     -3949.8783     -249.99623     -119.99563     -185.40729      13496.522    
     48000   348.79539      0.024          0.40210223     0.32827742     0.4022038     -3725.9099      496.98194      496.98194      496.98194      1.2275009e+08  3.0011565     -5588472.1     -5588472.1      1038.6531     -5587433.5     -3968.4405     -3239.8463     -3969.4428     -242.72803     -125.77395     -167.729        13508.987    
     49000   349.16574      0.0245         0.40408991     0.33409967     0.40372489    -3756.6065      497.2246       497.2246       497.2246       1.2292999e+08  2.9967645     -5578898.9     -5578898.9      1039.7559     -5577859.1     -3988.0574     -3297.3074     -3984.4549     -236.88805     -128.36023     -151.24503      13478.9      
     50000   349.17646      0.025          0.40609317     0.33888465     0.40495966    -3783.0002      497.46727      497.46727      497.46727      1.2311006e+08  2.9923811     -5569240.9     -5569240.9      1039.7879     -5568201.1     -4007.8279     -3344.5314     -3996.6411     -235.45842     -131.14266     -136.95926      13239.68     
     51000   349.11545      0.0255         0.40731551     0.34268999     0.40581266    -3802.3461      497.70994      497.70994      497.70994      1.2329031e+08  2.9880063     -5559510.6     -5559510.6      1039.6062     -5558471       -4019.8915     -3382.0872     -4005.0596     -236.61265     -131.40814     -126.56917      13189.411    
     52000   350.57603      0.026          0.40798523     0.34609582     0.40619411    -3817.0085      497.95261      497.95261      497.95261      1.2347073e+08  2.98364       -5549734.5     -5549734.5      1043.9556     -5548690.6     -4026.5011     -3415.7001     -4008.8242     -233.03859     -129.25666     -113.87123      13287.424    
     53000   351.98656      0.0265         0.40946119     0.35011808     0.40717142    -3838.3113      498.19527      498.19527      498.19527      1.2365133e+08  2.9792822     -5539907.1     -5539907.1      1048.1559     -5538859       -4041.0677     -3455.3968     -4018.4695     -226.12621     -129.52498     -96.12159       12971.093    
     54000   351.46081      0.027          0.41058933     0.35442127     0.40863814    -3861.0041      498.43794      498.43794      498.43794      1.2383211e+08  2.9749329     -5530012.2     -5530012.2      1046.5903     -5528965.6     -4052.2016     -3497.8659     -4032.9449     -217.91848     -132.44821     -75.465339      13246.448    
     55000   351.38298      0.0275         0.41078085     0.3581279      0.40930192    -3876.0118      498.68061      498.68061      498.68061      1.2401306e+08  2.970592      -5520061.4     -5520061.4      1046.3585     -5519015       -4054.0918     -3534.4476     -4039.4959     -212.34475     -136.27482     -55.470268      13136.696    
     56000   352.95079      0.028          0.41091352     0.36128991     0.40930108    -3886.8476      498.92327      498.92327      498.92327      1.2419419e+08  2.9662596     -5510070.7     -5510070.7      1051.0272     -5509019.7     -4055.4011     -3565.6542     -4039.4876     -209.52518     -138.661       -39.631943      13162.217    
     57000   354.22804      0.0285         0.41163179     0.36450533     0.40934657    -3899.9381      499.16594      499.16594      499.16594      1.243755e+08   2.9619356     -5500045.9     -5500045.9      1054.8306     -5498991.1     -4062.4899     -3597.3879     -4039.9366     -207.55439     -138.56588     -27.598095      13364.667    
     58000   353.76051      0.029          0.41205116     0.36749967     0.40930489    -3911.0312      499.40861      499.40861      499.40861      1.2455698e+08  2.95762       -5489981       -5489981        1053.4384     -5488927.6     -4066.6287     -3626.9398     -4039.5252     -202.02735     -135.74291     -15.292095      13135.632    
     59000   353.64902      0.0295         0.41115196     0.36996399     0.40886046    -3914.718       499.65127      499.65127      499.65127      1.2473864e+08  2.9533128     -5479880.4     -5479880.4      1053.1064     -5478827.3     -4057.7543     -3651.2607     -4035.139      -191.79204     -132.00107     -0.67844321     13223.891    
     60000   354.19525      0.03           0.41033227     0.37229633     0.40845935    -3918.3747      499.89394      499.89394      499.89394      1.2492047e+08  2.949014      -5469750.9     -5469750.9      1054.733      -5468696.2     -4049.6647     -3674.2791     -4031.1803     -183.90022     -133.84964      14.715321      13238.205    
     61000   354.2181       0.0305         0.40987317     0.37469292     0.40830129    -3924.2286      500.13661      500.13661      500.13661      1.2510248e+08  2.9447235     -5459600.5     -5459600.5      1054.801      -5458545.7     -4045.1337     -3697.9316     -4029.6204     -178.35666     -139.90039      29.649275      13330.01     
     62000   355.38573      0.031          0.40933337     0.37688983     0.40812356    -3929.0954      500.37927      500.37927      500.37927      1.2528467e+08  2.9404413     -5449447.3     -5449447.3      1058.278      -5448389       -4039.8063     -3719.6134     -4027.8664     -171.12953     -141.94184      44.895796      13240.619    
     63000   356.88841      0.0315         0.40915327     0.37921989     0.40782975    -3935.2016      500.62194      500.62194      500.62194      1.2546704e+08  2.9361674     -5439283.4     -5439283.4      1062.7527     -5438220.7     -4038.0288     -3742.6094     -4024.9666     -164.66891     -141.76933      59.536581      13102.727    
     64000   356.98198      0.032          0.40848475     0.38124457     0.4067048     -3935.9623      500.86461      500.86461      500.86461      1.2564958e+08  2.9319018     -5429098.8     -5429098.8      1063.0314     -5428035.8     -4031.4311     -3762.5914     -4013.8643     -156.1819      -139.43137      71.080815      13219.655    
     65000   357.10788      0.0325         0.40746369     0.38270403     0.405024      -3931.875       501.10728      501.10728      501.10728      1.258323e+08   2.9276444     -5418892.2     -5418892.2      1063.4063     -5417828.7     -4021.354      -3776.9951     -3997.2761     -145.81784     -136.87376      80.578282      13157.316    
     66000   356.9004       0.033          0.40621251     0.38394792     0.40379084    -3927.7943      501.34994      501.34994      501.34994      1.2601519e+08  2.9233953     -5408675.8     -5408675.8      1062.7884     -5407613       -4009.0058     -3789.2714     -3985.1058     -137.91076     -136.64298      89.062142      13210.723    
     67000   357.45847      0.0335         0.40429086     0.38511845     0.40249284    -3921.0532      501.59261      501.59261      501.59261      1.2619827e+08  2.9191544     -5398479.6     -5398479.6      1064.4503     -5397415.2     -3990.0406     -3800.8236     -3972.2955     -133.82831     -134.98389      101.45607      13174.887    
     68000   358.72634      0.034          0.40294991     0.38656703     0.40123899    -3917.2824      501.83528      501.83528      501.83528      1.2638152e+08  2.9149217     -5388312.1     -5388312.1      1068.2258     -5387243.8     -3976.8065     -3815.12       -3959.9209     -131.66613     -135.41436      117.33617      13162.768    
     69000   359.25268      0.0345         0.40191339     0.38809489     0.39982075    -3914.2332      502.07794      502.07794      502.07794      1.2656494e+08  2.9106972     -5378146.8     -5378146.8      1069.7931     -5377077       -3966.5768     -3830.1988     -3945.9241     -125.18741     -137.66305      130.81391      13084.584    
     70000   359.46457      0.035          0.40089696     0.38927993     0.39844614    -3910.2657      502.32061      502.32061      502.32061      1.2674855e+08  2.9064808     -5367971.5     -5367971.5      1070.4241     -5366901.1     -3956.5454     -3841.8942     -3932.3576     -111.88053     -136.98781      139.97849      13236.619    
     71000   359.51681      0.0355         0.39962562     0.38996108     0.39739592    -3904.8692      502.56328      502.56328      502.56328      1.2693233e+08  2.9022726     -5357787.7     -5357787.7      1070.5797     -5356717.1     -3943.9982     -3848.6166     -3921.9928     -97.749936     -134.36136      149.20042      13184.645    
     72000   360.10478      0.036          0.39761269     0.39056345     0.39647429    -3897.1969      502.80594      502.80594      502.80594      1.2711629e+08  2.8980725     -5347606.3     -5347606.3      1072.3305     -5346534       -3924.1321     -3854.5616     -3912.897      -86.101438     -131.18114      161.53643      13083.619    
     73000   361.18722      0.0365         0.39517895     0.39172074     0.39515861    -3888.6695      503.04861      503.04861      503.04861      1.2730043e+08  2.8938805     -5337448.2     -5337448.2      1075.5539     -5336372.6     -3900.1131     -3865.9832     -3899.9122     -81.297666     -125.30131      174.2697       13241.384    
     74000   361.34683      0.037          0.39282983     0.39278483     0.39336234    -3878.5328      503.29128      503.29128      503.29128      1.2748474e+08  2.8896965     -5327323       -5327323        1076.0292     -5326246.9     -3876.929      -3876.4848     -3882.1844     -82.1074       -121.16514      185.69493      13090.51     
     75000   360.76149      0.0375         0.39034513     0.39233822     0.39105329    -3861.2933      503.53395      503.53395      503.53395      1.2766924e+08  2.8855207     -5317236.5     -5317236.5      1074.2861     -5316162.2     -3852.4069     -3872.0772     -3859.3959     -78.651866     -123.19007      196.96362      13163.301    
     76000   360.74937      0.038          0.38777993     0.39085019     0.38837219    -3839.1391      503.77661      503.77661      503.77661      1.2785391e+08  2.8813529     -5307180.8     -5307180.8      1074.25       -5306106.6     -3827.0904     -3857.3915     -3832.9355     -65.833257     -126.75746      208.36843      13320.509    
     77000   361.55839      0.0385         0.38586842     0.39006641     0.38565898    -3821.3465      504.01928      504.01928      504.01928      1.2803876e+08  2.8771931     -5297151.3     -5297151.3      1076.6592     -5296074.6     -3808.2252     -3849.6561     -3806.1582     -50.310824     -126.05679      217.85291      13104.313    
     78000   362.23226      0.039          0.38460074     0.39049803     0.38359191    -3811.796       504.26195      504.26195      504.26195      1.2822378e+08  2.8730413     -5287157.9     -5287157.9      1078.6658     -5286079.2     -3795.7142     -3853.916      -3785.7579     -37.767705     -123.24799      223.83864      13306.982    
     79000   362.29596      0.0395         0.3831119      0.39153127     0.38210369    -3805.4013      504.50461      504.50461      504.50461      1.2840899e+08  2.8688975     -5277189.3     -5277189.3      1078.8555     -5276110.5     -3781.0205     -3864.1132     -3771.0702     -29.634901     -118.98825      230.12337      13152.026    
     80000   362.05949      0.04           0.38054328     0.392413       0.38031019    -3793.9517      504.74728      504.74728      504.74728      1.2859437e+08  2.8647616     -5267240       -5267240        1078.1513     -5266161.9     -3755.6702     -3872.8152     -3753.3698     -26.377487     -112.44826      236.02253      13074.513    
     81000   361.93212      0.0405         0.3770983      0.39181972     0.37776366    -3772.2894      504.98995      504.98995      504.98995      1.2877993e+08  2.8606337     -5257329       -5257329        1077.7721     -5256251.2     -3721.6708     -3866.96       -3728.2374     -24.61931      -109.34511      240.54369      13224.23     
     82000   362.07117      0.041          0.37333315     0.38974338     0.37420638    -3741.3699      505.23261      505.23261      505.23261      1.2896567e+08  2.8565137     -5247476.9     -5247476.9      1078.1861     -5246398.7     -3684.5117     -3846.4681     -3693.1298     -22.059753     -109.75094      243.78181      13326.074    
     83000   362.96725      0.0415         0.37007051     0.38775384     0.37045183    -3711.7401      505.47528      505.47528      505.47528      1.2915159e+08  2.8524017     -5237689.6     -5237689.6      1080.8545     -5236608.8     -3652.3119     -3826.8329     -3656.0753     -16.903976     -110.02554      247.30919      13245.143    
     84000   362.92518      0.042          0.36818743     0.38688993     0.36818599    -3695.2491      505.71795      505.71795      505.71795      1.2933769e+08  2.8482975     -5227950.5     -5227950.5      1080.7292     -5226869.8     -3633.7275     -3818.3068     -3633.7132     -7.5885125     -110.44548      252.11951      13302.118    
     85000   362.31858      0.0425         0.36657237     0.3866925      0.36666122    -3684.2704      505.96061      505.96061      505.96061      1.2952397e+08  2.8442012     -5218244.1     -5218244.1      1078.9229     -5217165.1     -3617.788      -3816.3583     -3618.6649      4.9061665     -108.11531      258.05515      13316.321    
     86000   362.5245       0.043          0.36422768     0.38627727     0.36503446    -3669.8393      506.20328      506.20328      506.20328      1.2971042e+08  2.8401127     -5208575.6     -5208575.6      1079.5361     -5207496.1     -3594.6477     -3812.2602     -3602.6101      15.289885     -102.49511      262.43911      13317.869    
     87000   362.62954      0.0435         0.36080084     0.3850275      0.3626901     -3646.7421      506.44595      506.44595      506.44595      1.2989705e+08  2.8360321     -5198952.2     -5198952.2      1079.8489     -5197872.4     -3560.8274     -3799.926      -3579.4729      20.942741     -93.969192      264.35617      13203.072    
     88000   362.55007      0.044          0.35697597     0.38279247     0.35961877    -3616.7027      506.68862      506.68862      506.68862      1.3008387e+08  2.8319593     -5189383.9     -5189383.9      1079.6122     -5188304.2     -3523.0789     -3777.868      -3549.1614      25.669173     -87.059565      266.41071      13203.05     
     89000   362.28474      0.0445         0.35353386     0.38029719     0.35617203    -3585.8313      506.93128      506.93128      506.93128      1.3027086e+08  2.8278943     -5179884.8     -5179884.8      1078.8221     -5178806       -3489.1079     -3753.2415     -3515.1446      31.838147     -85.6414        268.82417      13256.931    
     90000   362.46957      0.045          0.35051799     0.37812666     0.35261985    -3557.0836      507.17395      507.17395      507.17395      1.3045803e+08  2.8238371     -5170463.6     -5170463.6      1079.3725     -5169384.2     -3459.3436     -3731.8199     -3480.0874      38.458386     -89.164991      270.0906       13276.969    
     91000   363.00217      0.0455         0.34814889     0.37681303     0.34973217    -3535.4687      507.41662      507.41662      507.41662      1.3064538e+08  2.8197876     -5161101.3     -5161101.3      1080.9585     -5160020.4     -3435.9624     -3718.8555     -3451.5882      42.969904     -94.304997      268.82361      13251.925    
     92000   362.59325      0.046          0.3457646      0.37583389     0.34741901    -3516.7941      507.65928      507.65928      507.65928      1.3083291e+08  2.8157458     -5151784.1     -5151784.1      1079.7408     -5150704.3     -3412.4312     -3709.1921     -3428.759       46.586965     -92.682787      267.24263      13240.508    
     93000   362.6408       0.0465         0.34261143     0.37420485     0.34522488    -3493.8437      507.90195      507.90195      507.90195      1.3102062e+08  2.8117118     -5142522.6     -5142522.6      1079.8824     -5141442.8     -3381.3119     -3693.1147     -3407.1046      52.747969     -81.089324      266.98688      13195.995    
     94000   363.41845      0.047          0.33912792     0.37209128     0.34321552    -3468.8205      508.14462      508.14462      508.14462      1.3120851e+08  2.8076855     -5133325.1     -5133325.1      1082.1981     -5132242.9     -3346.9323     -3672.2554     -3387.2738      59.920952     -69.84909       266.20025      13306.896    
     95000   363.6481       0.0475         0.33598154     0.36982342     0.34102195    -3443.7928      508.38728      508.38728      508.38728      1.3139657e+08  2.8036669     -5124188.6     -5124188.6      1082.8819     -5123105.7     -3315.88       -3649.8734     -3365.625       68.298745     -68.04899       264.51556      13217.388    
     96000   362.64387      0.048          0.33345848     0.36745561     0.33790635    -3417.4535      508.62995      508.62995      508.62995      1.3158482e+08  2.7996559     -5115100.9     -5115100.9      1079.8915     -5114021       -3290.9793     -3626.5049     -3334.8764      75.763773     -73.382168      264.36667      13132.857    
     97000   361.3453       0.0485         0.33083594     0.36522146     0.33409125    -3388.9256      508.87262      508.87262      508.87262      1.3177325e+08  2.7956526     -5106075.6     -5106075.6      1076.0246     -5104999.6     -3265.0969     -3604.4555     -3297.2243      79.746487     -78.322307      265.00463      13184.171    
     98000   360.83014      0.049          0.32767968     0.36333569     0.33059953    -3360.8517      509.11529      509.11529      509.11529      1.3196185e+08  2.7916569     -5097132.7     -5097132.7      1074.4905     -5096058.2     -3233.947      -3585.8445     -3262.7637      79.390542     -77.761855      262.30337      13299.067    
     99000   361.13877      0.0495         0.32425959     0.361374       0.32807638    -3334.8465      509.35795      509.35795      509.35795      1.3215064e+08  2.7876688     -5088255.9     -5088255.9      1075.4096     -5087180.5     -3200.1934     -3566.484      -3237.8621      79.165248     -70.837747      258.81358      13194.032    
    100000   361.33201      0.05           0.32148308     0.35917224     0.32616415    -3312.1785      509.60062      509.60062      509.60062      1.3233961e+08  2.7836883     -5079428.7     -5079428.7      1075.985      -5078352.7     -3172.7913     -3544.7544     -3218.9899      81.385297     -61.162881      257.34916      12912.176    
    101000   361.09046      0.0505         0.31947867     0.35688848     0.3242797     -3291.8722      509.84329      509.84329      509.84329      1.3252875e+08  2.7797154     -5070652.2     -5070652.2      1075.2657     -5069577       -3153.0093     -3522.2154     -3200.3919      86.315879     -53.35708       255.42063      13202.647    
    102000   360.86018      0.051          0.31760789     0.35459165     0.32222214    -3271.393       510.08595      510.08595      510.08595      1.3271808e+08  2.7757501     -5061933.2     -5061933.2      1074.58       -5060858.7     -3134.5461     -3499.5475     -3180.0853      93.469595     -53.290341      250.68909      13305.391    
    103000   360.78304      0.0515         0.31527263     0.35186384     0.31948924    -3245.7462      510.32862      510.32862      510.32862      1.3290759e+08  2.7717922     -5053281.9     -5053281.9      1074.3503     -5052207.6     -3111.4989     -3472.6261     -3153.1137      98.077439     -58.032819      245.08334      13204.817    
    104000   360.7863       0.052          0.31248294     0.34863394     0.31607674    -3214.717       510.57129      510.57129      510.57129      1.3309727e+08  2.7678419     -5044690       -5044690        1074.36       -5043615.7     -3083.9669     -3440.7494     -3119.4348      96.950666     -63.318108      241.21004      13129.337    
    105000   360.44575      0.0525         0.30902613     0.34598835     0.31279214    -3183.8362      510.81395      510.81395      510.81395      1.3328714e+08  2.7638992     -5036160.7     -5036160.7      1073.3459     -5035087.3     -3049.8507     -3414.6395     -3087.0184      93.983007     -64.158637      239.11101      13070.937    
    106000   359.69365      0.053          0.3056454      0.34385108     0.3099314     -3156.2723      511.05662      511.05662      511.05662      1.3347719e+08  2.7599638     -5027707.4     -5027707.4      1071.1063     -5026636.2     -3016.4856     -3393.5463     -3058.7851      93.159875     -60.503048      236.73865      13190.764    
    107000   359.04287      0.0535         0.30290539     0.3414341      0.30739102    -3130.95        511.29929      511.29929      511.29929      1.3366742e+08  2.756036      -5019328.4     -5019328.4      1069.1684     -5018259.2     -2989.4438     -3369.6926     -3033.7135      94.313526     -54.923659      233.86046      13161.499    
    108000   358.89236      0.054          0.30051619     0.33852414     0.30544856    -3107.1269      511.54195      511.54195      511.54195      1.3385783e+08  2.7521156     -5011014.5     -5011014.5      1068.7202     -5009945.7     -2965.8642     -3340.9735     -3014.5429      96.306515     -49.770572      228.63046      13000.902    
    109000   358.88387      0.0545         0.29837809     0.33545984     0.30367705    -3084.1845      511.78462      511.78462      511.78462      1.3404842e+08  2.7482026     -5002752.2     -5002752.2      1068.6949     -5001683.5     -2944.7628     -3310.7312     -2997.0594      100.5639      -46.884964      222.40117      13181.387    
    110000   358.00437      0.055          0.29637116     0.33260759     0.30149101    -3061.0075      512.02729      512.02729      512.02729      1.3423919e+08  2.7442971     -4994537.1     -4994537.1      1066.0759     -4993471       -2924.956      -3282.5817     -2975.4849      105.53452     -47.159584      217.47892      13218.096    
    111000   356.39771      0.0555         0.2939421      0.32995988     0.29858398    -3034.7429      512.26996      512.26996      512.26996      1.3443014e+08  2.740399      -4986380.3     -4986380.3      1061.2915     -4985319       -2900.983      -3256.4508     -2946.7948      107.68382     -49.875786      214.32012      13181.37     
    112000   355.61592      0.056          0.29102708     0.32704153     0.29534102    -3004.884       512.51262      512.51262      512.51262      1.3462127e+08  2.7365082     -4978291.3     -4978291.3      1058.9635     -4977232.3     -2872.2139     -3227.6489     -2914.7892      106.27419     -52.647024      208.90757      13119.712    
    113000   356.07149      0.0565         0.28829747     0.32407607     0.29237459    -2976.3899      512.75529      512.75529      512.75529      1.3481259e+08  2.7326248     -4970273.9     -4970273.9      1060.3201     -4969213.5     -2845.2748     -3198.3821     -2885.5129      102.0343      -52.360599      202.0576       13176.935    
    114000   355.9632       0.057          0.28646385     0.32138175     0.29055277    -2955.5008      512.99796      512.99796      512.99796      1.3500408e+08  2.7287487     -4962315.3     -4962315.3      1059.9976     -4961255.3     -2827.1784     -3171.7913     -2867.5329      97.654209     -50.139207      198.65099      13182.904    
    115000   355.09189      0.0575         0.28482783     0.318643       0.28940128    -2937.3209      513.24062      513.24062      513.24062      1.3519576e+08  2.72488       -4954405.7     -4954405.7      1057.403      -4953348.3     -2811.0322     -3144.7619     -2856.1685      96.184883     -46.500622      198.89525      13175.05     
    116000   354.84215      0.058          0.28271251     0.31574166     0.28794831    -2916.0375      513.48329      513.48329      513.48329      1.3538762e+08  2.7210186     -4946558.5     -4946558.5      1056.6593     -4945501.9     -2790.1556     -3116.128      -2841.8289      98.714045     -44.457631      195.89204      13126.502    
    117000   354.86088      0.0585         0.28016583     0.31265144     0.28589551    -2890.7403      513.72596      513.72596      513.72596      1.3557966e+08  2.7171644     -4938769.7     -4938769.7      1056.7151     -4937713       -2765.0217     -3085.6298     -2821.5693      101.73466     -47.149246      185.58759      13170.147    
    118000   354.39179      0.059          0.27747112     0.30953146     0.28342439    -2863.4821      513.96862      513.96862      513.96862      1.3577188e+08  2.7133176     -4931035.5     -4931035.5      1055.3182     -4929980.2     -2738.4271     -3054.838      -2797.1812      101.56669     -49.335176      174.73759      13178.628    
    119000   353.61474      0.0595         0.27512221     0.30692933     0.28074338    -2838.3746      514.21129      514.21129      514.21129      1.3596428e+08  2.709478      -4923356.4     -4923356.4      1053.0043     -4922303.4     -2715.2451     -3029.1569     -2770.7217      99.490307     -49.197768      168.09862      13252.955    
    120000   352.84185      0.06           0.27337954     0.30476434     0.27804456    -2816.641       514.45396      514.45396      514.45396      1.3615686e+08  2.7056456     -4915736.4     -4915736.4      1050.7028     -4914685.7     -2698.0462     -3007.7902     -2744.0864      97.427987     -48.554799      165.74663      13142.935    
    121000   352.4931       0.0605         0.27224807     0.30266042     0.27579732    -2798.6045      514.69663      514.69663      514.69663      1.3634963e+08  2.7018205     -4908171.4     -4908171.4      1049.6643     -4907121.7     -2686.8795     -2987.0261     -2721.9079      94.871213     -47.541064      163.88631      13187.5      
    122000   352.72345      0.061          0.27139342     0.30020097     0.27442452    -2783.1858      514.93929      514.93929      514.93929      1.3654258e+08  2.6980025     -4900648.7     -4900648.7      1050.3502     -4899598.4     -2678.4448     -2962.7532     -2708.3595      93.086432     -47.365466      160.09527      13195.672    
    123000   352.76183      0.0615         0.27021748     0.29759019     0.27328171    -2766.969       515.18196      515.18196      515.18196      1.3673571e+08  2.6941918     -4893163.2     -4893163.2      1050.4645     -4892112.8     -2666.8392     -2936.9868     -2697.0808      90.708824     -47.248794      155.69976      13253.224    
    124000   352.25504      0.062          0.2681587      0.2952381      0.27187282    -2747.8234      515.42463      515.42463      515.42463      1.3692902e+08  2.6903882     -4885719.7     -4885719.7      1048.9554     -4884670.8     -2646.5206     -2913.7735     -2683.1761      87.780847     -45.687416      151.6201       13137.059    
    125000   350.90203      0.0625         0.26551751     0.29311419     0.2700956     -2726.3009      515.66729      515.66729      515.66729      1.3712251e+08  2.6865918     -4878316.1     -4878316.1      1044.9263     -4877271.2     -2620.4541     -2892.8121     -2665.6364      87.702424     -43.069384      149.05857      13115.598    
    126000   348.92025      0.063          0.26283723     0.2905145      0.26788614    -2701.6625      515.90996      515.90996      515.90996      1.3731619e+08  2.6828026     -4870962       -4870962        1039.0249     -4869922.9     -2594.0018     -2867.1552     -2643.8307      90.400918     -41.698366      146.84461      13211.582    
    127000   348.14101      0.0635         0.26043541     0.28724376     0.26548931    -2675.1163      516.15263      516.15263      516.15263      1.3751005e+08  2.6790204     -4863677       -4863677        1036.7045     -4862640.3     -2570.2977     -2834.8755     -2620.1758      92.564555     -42.823151      141.47619      13255.899    
    128000   348.91218      0.064          0.25891987     0.28415407     0.26372606    -2654.1656      516.39529      516.39529      516.39529      1.3770409e+08  2.6752454     -4856460.9     -4856460.9      1039.0009     -4855421.9     -2555.3404     -2804.3826     -2602.7738      90.800814     -45.495383      135.9921       13164.07     
    129000   349.11846      0.0645         0.25824832     0.28185672     0.26262432    -2640.7743      516.63796      516.63796      516.63796      1.3789831e+08  2.6714774     -4849291.5     -4849291.5      1039.6152     -4848251.9     -2548.7127     -2781.7096     -2591.9005      85.708281     -48.214464      133.29437      13158.265    
    130000   348.08586      0.065          0.25766566     0.27987044     0.26160859    -2628.9816      516.88063      516.88063      516.88063      1.3809271e+08  2.6677165     -4842143       -4842143        1036.5403     -4841106.5     -2542.9623     -2762.1065     -2581.8761      81.622028     -50.514867      130.13371      13083.367    
    131000   346.83172      0.0655         0.25649249     0.27796914     0.26026869    -2614.4595      517.1233       517.1233       517.1233       1.382873e+08   2.6639627     -4835013.2     -4835013.2      1032.8056     -4833980.4     -2531.3841     -2743.3421     -2568.6522      78.845718     -51.480215      123.83153      13163.761    
    132000   346.39223      0.066          0.25479382     0.27608811     0.25863365    -2597.3043      517.36596      517.36596      517.36596      1.3848207e+08  2.6602159     -4827924.4     -4827924.4      1031.4969     -4826892.9     -2514.6195     -2724.7778     -2552.5156      76.033555     -49.49081       119.02517      13134.875    
    133000   345.69176      0.0665         0.25292221     0.27406035     0.25713001    -2579.5298      517.60863      517.60863      517.60863      1.3867703e+08  2.6564762     -4820888.8     -4820888.8      1029.411      -4819859.4     -2496.1481     -2704.7654     -2537.6759      73.121728     -45.553951      118.69493      13130.953    
    134000   344.7793       0.067          0.25048409     0.27143686     0.25535232    -2557.0302      517.8513       517.8513       517.8513       1.3887216e+08  2.6527434     -4813900.9     -4813900.9      1026.6939     -4812874.2     -2472.0858     -2678.8735     -2520.1314      74.303609     -41.077608      118.06864      13193.129    
    135000   344.51164      0.0675         0.24810141     0.26847345     0.25385125    -2534.5048      518.09396      518.09396      518.09396      1.3906748e+08  2.6490177     -4806952.3     -4806952.3      1025.8968     -4805926.4     -2448.5705     -2649.627      -2505.317       78.241693     -41.372483      114.55822      13267.182    
    136000   343.96975      0.068          0.2469282      0.2660378      0.25254923    -2518.3493      518.33663      518.33663      518.33663      1.3926299e+08  2.6452989     -4800045.4     -4800045.4      1024.2832     -4799021.1     -2436.9919     -2625.589      -2492.4671      78.239091     -44.965378      111.81347      13135.478    
    137000   342.95977      0.0685         0.24699309     0.26416386     0.25105492    -2507.4821      518.5793       518.5793       518.5793       1.3945867e+08  2.641587      -4793182.5     -4793182.5      1021.2756     -4792161.3     -2437.6323     -2607.0946     -2477.7194      72.989226     -50.39323       110.0645       13201.721    
    138000   341.98477      0.069          0.24689738     0.26255112     0.24942885    -2496.5124      518.82196      518.82196      518.82196      1.3965454e+08  2.6378822     -4786343.8     -4786343.8      1018.3723     -4785325.5     -2436.6877     -2591.1781     -2461.6714      65.642915     -53.920108      106.34231      13081.968    
    139000   341.10652      0.0695         0.24610341     0.26121481     0.2479855     -2484.756       519.06463      519.06463      519.06463      1.3985059e+08  2.6341842     -4779522.5     -4779522.5      1015.757      -4778506.7     -2428.8518     -2577.9897     -2447.4266      60.960153     -53.966616      101.23008      13231.891    
    140000   340.5884       0.07           0.24452108     0.25971384     0.24636626    -2469.2859      519.3073       519.3073       519.3073       1.4004683e+08  2.6304931     -4772733.2     -4772733.2      1014.2141     -4771719       -2413.2354     -2563.1764     -2431.4459      61.275856     -52.737991      98.418668      13150.462    
    141000   340.8745       0.0705         0.24206296     0.25780784     0.24464906    -2449.2799      519.54996      519.54996      519.54996      1.4024325e+08  2.626809      -4765988.8     -4765988.8      1015.0661     -4764973.8     -2388.9757     -2544.3656     -2414.4985      62.965644     -51.18311       97.335399      13141.149    
    142000   341.22234      0.071          0.2399239      0.25569647     0.2434075     -2431.2126      519.79263      519.79263      519.79263      1.4043985e+08  2.6231317     -4759287.6     -4759287.6      1016.1018     -4758271.5     -2367.8648     -2523.5279     -2402.2452      62.765419     -49.930266      96.998172      13133.476    
    143000   340.70832      0.0715         0.23898602     0.25358134     0.24269777    -2418.8342      520.0353       520.0353       520.0353       1.4063664e+08  2.6194613     -4752620.8     -4752620.8      1014.5712     -4751606.2     -2358.6086     -2502.6533     -2395.2407      62.022956     -49.756379      97.746689      13187.581    
    144000   339.73105      0.072          0.23865246     0.25165349     0.24209762    -2409.4204      520.27797      520.27797      520.27797      1.4083361e+08  2.6157977     -4745979.2     -4745979.2      1011.6611     -4744967.5     -2355.3167     -2483.6268     -2389.3177      60.327492     -48.736069      98.823319      13211.963    
    145000   339.39358      0.0725         0.23803125     0.2500078      0.24115955    -2398.8769      520.52063      520.52063      520.52063      1.4103076e+08  2.6121409     -4739362.9     -4739362.9      1010.6561     -4738352.2     -2349.1857     -2467.3851     -2380.0597      57.312975     -48.101947      95.994794      13165.316    
    146000   339.52039      0.073          0.23696835     0.24858807     0.23988071    -2386.5026      520.7633       520.7633       520.7633       1.412281e+08   2.608491      -4732771.2     -4732771.2      1011.0337     -4731760.1     -2338.6958     -2453.3735     -2367.4386      54.17634      -48.55726       91.465802      12846.417    
    147000   339.46857      0.0735         0.23567182     0.24756754     0.2385996     -2374.6656      521.00597      521.00597      521.00597      1.4142562e+08  2.6048478     -4726203.1     -4726203.1      1010.8794     -4725192.2     -2325.9001     -2443.3017     -2354.795       51.9535       -48.954401      88.853205      13209.127    
    148000   338.76171      0.074          0.23431465     0.24651786     0.23743053    -2362.9017      521.24863      521.24863      521.24863      1.4162333e+08  2.6012115     -4719662.5     -4719662.5      1008.7745     -4718653.7     -2312.5058     -2432.9421     -2343.2571      51.33324      -50.411765      86.182961      13203.848    
    149000   337.67587      0.0745         0.23272542     0.24474367     0.23591835    -2346.8622      521.4913       521.4913       521.4913       1.4182122e+08  2.5975819     -4713157.4     -4713157.4      1005.5411     -4712151.9     -2296.8214     -2415.4322     -2328.3331      52.581099     -51.720744      84.643299      13086.715    
    150000   337.29983      0.075          0.23123457     0.24252088     0.23390391    -2328.0183      521.73397      521.73397      521.73397      1.4201929e+08  2.593959      -4706703.2     -4706703.2      1004.4213     -4705698.8     -2282.1077     -2393.495      -2308.4522      53.545284     -51.0857        86.196655      12713.674    
    151000   337.29007      0.0755         0.23039302     0.24057228     0.23232886    -2313.6579      521.97663      521.97663      521.97663      1.4221755e+08  2.5903429     -4700288.7     -4700288.7      1004.3922     -4699284.3     -2273.8023     -2374.2638     -2292.9076      51.94396      -50.121638      88.144342      13145.503    
    152000   336.67615      0.076          0.23028285     0.23923812     0.23201439    -2307.8719      522.2193       522.2193       522.2193       1.4241599e+08  2.5867335     -4693883.9     -4693883.9      1002.5641     -4692881.4     -2272.715      -2361.0967     -2289.804       48.674068     -49.473147      87.994601      13182.016    
    153000   335.64256      0.0765         0.23025687     0.23835752     0.23224999    -2305.6645      522.46197      522.46197      522.46197      1.4261462e+08  2.5831308     -4687478.8     -4687478.8      999.48624     -4686479.3     -2272.4586     -2352.4058     -2292.1292      46.198351     -48.748337      86.675498      13126.052    
    154000   334.84167      0.077          0.22939519     0.23743045     0.23191745    -2298.686       522.70464      522.70464      522.70464      1.4281343e+08  2.5795348     -4681082.1     -4681082.1      997.1013      -4680085       -2263.9545     -2343.2563     -2288.8472      45.227054     -48.47217       83.801375      13113.029    
    155000   333.79334      0.0775         0.22741687     0.23602983     0.23040729    -2282.6021      522.9473       522.9473       522.9473       1.4301243e+08  2.5759455     -4674711.6     -4674711.6      993.97957     -4673717.6     -2244.43       -2329.4333     -2273.9431      45.028579     -49.009212      79.764057      13090.398    
    156000   333.34284      0.078          0.22500142     0.23407126     0.22805702    -2260.481       523.18997      523.18997      523.18997      1.4321161e+08  2.5723628     -4668387.5     -4668387.5      992.63805     -4667394.9     -2220.5914     -2310.1037     -2250.7478      44.949285     -48.42572       75.860921      13227.663    
    157000   334.12576      0.0785         0.22330856     0.23211439     0.22631456    -2242.742       523.43264      523.43264      523.43264      1.4341098e+08  2.5687868     -4662110.2     -4662110.2      994.96945     -4661115.2     -2203.8841     -2290.7909     -2233.5511      46.691231     -47.481528      75.444594      13029.52     
    158000   334.45265      0.079          0.22269055     0.23069533     0.22563522    -2233.8057      523.6753       523.6753       523.6753       1.4361053e+08  2.5652174     -4655865.2     -4655865.2      995.94288     -4654869.3     -2197.7848     -2276.7859     -2226.8465      47.117647     -46.931144      75.769792      13100.685    
    159000   333.55544      0.0795         0.22241168     0.22966632     0.22525722    -2228.2596      523.91797      523.91797      523.91797      1.4381026e+08  2.5616546     -4649641.7     -4649641.7      993.27114     -4648648.4     -2195.0326     -2266.6303     -2223.1159      44.025855     -45.385016      74.920142      13084.935    
    160000   332.36801      0.08           0.22212683     0.22900626     0.22486712    -2223.8678      524.16064      524.16064      524.16064      1.4401019e+08  2.5580984     -4643429       -4643429        989.73519     -4642439.3     -2192.2214     -2260.116      -2219.2659      40.711544     -45.528587      75.796722      13243.014    
    161000   330.95336      0.0805         0.22158194     0.22840509     0.22413977    -2217.7047      524.4033       524.4033       524.4033       1.4421029e+08  2.5545487     -4637213.9     -4637213.9      985.52258     -4636228.4     -2186.8437     -2254.183      -2212.0876      39.418006     -48.795842      76.699872      13146.991    
    162000   330.78123      0.081          0.2203369      0.22739388     0.22262237    -2205.2904      524.64597      524.64597      524.64597      1.4441058e+08  2.5510057     -4631009.9     -4631009.9      985.01001     -4630024.9     -2174.5561     -2244.2031     -2197.112       39.921906     -50.216185      76.160774      13069.898    
    163000   331.48609      0.0815         0.21902173     0.22633684     0.22115846    -2192.6706      524.88864      524.88864      524.88864      1.4461106e+08  2.5474692     -4624830.5     -4624830.5      987.10897     -4623843.4     -2161.5764     -2233.7709     -2182.6643      39.478418     -49.668447      74.911049      13122.532    
    164000   331.54525      0.082          0.21762318     0.22528092     0.22026577    -2181.6592      525.1313       525.1313       525.1313       1.4481172e+08  2.5439392     -4618687.5     -4618687.5      987.28514     -4617700.2     -2147.7737     -2223.3499     -2173.8541      38.255829     -44.772283      72.058261      13177.606    
    165000   331.70539      0.0825         0.2165092      0.22389418     0.21979081    -2171.87        525.37397      525.37397      525.37397      1.4501257e+08  2.5404157     -4612586.5     -4612586.5      987.76202     -4611598.7     -2136.7797     -2209.6637     -2169.1666      37.963843     -39.396312      67.315919      13231.195    
    166000   331.68862      0.083          0.21583742     0.2224228      0.21938452    -2163.483       525.61664      525.61664      525.61664      1.4521361e+08  2.5368988     -4606504.5     -4606504.5      987.71208     -4605516.8     -2130.1498     -2195.1424     -2165.1568      39.040722     -38.936653      64.027225      13141.027    
    167000   331.59978      0.0835         0.2154609      0.22115644     0.21876531    -2156.0413      525.85931      525.85931      525.85931      1.4541483e+08  2.5333883     -4600429       -4600429        987.44752     -4599441.6     -2126.4337     -2182.6443     -2159.0458      39.265673     -42.334988      65.65228       13122.761    
    168000   331.54657      0.084          0.21491446     0.22047958     0.21829883    -2150.4823      526.10197      526.10197      526.10197      1.4561623e+08  2.5298843     -4594364.3     -4594364.3      987.28907     -4593377       -2121.0408     -2175.9642     -2154.4419      37.709038     -48.473816      69.035215      13192.342    
    169000   331.10188      0.0845         0.2141074      0.22011788     0.21789797    -2145.3187      526.34464      526.34464      526.34464      1.4581782e+08  2.5263868     -4588309       -4588309        985.96486     -4587323       -2113.0757     -2172.3946     -2150.4857      37.716423     -52.385352      70.726554      13182.336    
    170000   330.67883      0.085          0.2131771      0.21948604     0.21707677    -2137.4781      526.58731      526.58731      526.58731      1.460196e+08   2.5228957     -4582265.1     -4582265.1      984.70509     -4581280.4     -2103.8944     -2166.1588     -2142.3812      40.268771     -49.215898      69.722538      13190.701    
    171000   330.19422      0.0855         0.21240909     0.218434       0.2158285     -2127.3841      526.82997      526.82997      526.82997      1.4622156e+08  2.519411      -4576238.1     -4576238.1      983.262       -4575254.8     -2096.3147     -2155.776      -2130.0617      41.546859     -44.745824      67.946286      13127.986    
    172000   329.80766      0.086          0.21145023     0.21704769     0.21444249    -2115.1095      527.07264      527.07264      527.07264      1.4642371e+08  2.5159328     -4570231.8     -4570231.8      982.1109      -4569249.7     -2086.8516     -2142.0941     -2116.3829      40.283336     -42.027841      68.01799       13216.44     
    173000   329.88292      0.0865         0.20994275     0.21587017     0.2132882     -2102.4792      527.31531      527.31531      527.31531      1.4662605e+08  2.5124609     -4564256.4     -4564256.4      982.33502     -4563274.1     -2071.9738     -2130.4729     -2104.9908      37.293316     -39.82082       69.211107      13183.859    
    174000   330.23416      0.087          0.20847938     0.2149978      0.21220877    -2091.2442      527.55797      527.55797      527.55797      1.4682857e+08  2.5089954     -4558321.1     -4558321.1      983.38093     -4557337.7     -2057.5315     -2121.8633     -2094.3377      34.667406     -39.110978      69.736175      13116.418    
    175000   330.49122      0.0875         0.20755477     0.2141044      0.211334      -2082.3856      527.80064      527.80064      527.80064      1.4703128e+08  2.5055364     -4552423.1     -4552423.1      984.14643     -4551438.9     -2048.4063     -2113.0462     -2085.7044      33.013397     -41.545069      68.884961      13042.229    
    176000   330.39137      0.088          0.20746455     0.21322985     0.21097296    -2078.024       528.04331      528.04331      528.04331      1.4723418e+08  2.5020836     -4546533.7     -4546533.7      983.84908     -4545549.9     -2047.5159     -2104.415      -2082.1412      32.516861     -45.045698      66.571629      13062.855    
    177000   329.97192      0.0885         0.20781242     0.21237378     0.21094716    -2076.2673      528.28598      528.28598      528.28598      1.4743726e+08  2.4986372     -4540632.4     -4540632.4      982.60005     -4539649.8     -2050.9492     -2095.9663     -2081.8866      34.57612      -46.625368      63.600856      13191.501    
    178000   329.25774      0.089          0.20775439     0.21169169     0.21079478    -2073.3312      528.52864      528.52864      528.52864      1.4764053e+08  2.4951972     -4534715.4     -4534715.4      980.47331     -4533734.9     -2050.3764     -2089.2346     -2080.3827      37.5434       -47.537083      61.367078      13060.831    
    179000   328.51332      0.0895         0.20662338     0.21103832     0.20998414    -2064.7943      528.77131      528.77131      528.77131      1.4784398e+08  2.4917634     -4528807.2     -4528807.2      978.25656     -4527829       -2039.2142     -2082.7862     -2072.3823      38.864746     -47.66284       62.271852      13114.854    
    180000   328.72437      0.09           0.20489531     0.21004895     0.2081756     -2049.905       529.01398      529.01398      529.01398      1.4804762e+08  2.4883359     -4522947.8     -4522947.8      978.88504     -4521968.9     -2022.1595     -2073.022      -2054.5335      37.109857     -45.304833      65.024792      13174.467    
    181000   328.85776      0.0905         0.20359029     0.20873571     0.20612765    -2034.5543      529.25664      529.25664      529.25664      1.4825145e+08  2.4849148     -4517140       -4517140        979.28225     -4516160.7     -2009.2799     -2060.0613     -2034.3218      35.178984     -42.072004      66.812214      13169.008    
    182000   328.30353      0.091          0.20280289     0.20741728     0.20485227    -2023.431       529.49931      529.49931      529.49931      1.4845547e+08  2.4814999     -4511354.5     -4511354.5      977.63186     -4510376.8     -2001.509      -2047.0494     -2021.7347      34.35657      -41.648622      64.809768      13100.858    
    183000   327.45972      0.0915         0.20255917     0.20651006     0.20464203    -2018.9531      529.74198      529.74198      529.74198      1.4865967e+08  2.4780912     -4505568.1     -4505568.1      975.11913     -4504592.9     -1999.1036     -2038.0958     -2019.6598      32.977314     -43.914385      61.109202      13096.909    
    184000   326.92418      0.092          0.20253063     0.20593034     0.20486484    -2017.685       529.98464      529.98464      529.98464      1.4886406e+08  2.4746888     -4499784.7     -4499784.7      973.52437     -4498811.2     -1998.8219     -2032.3744     -2021.8588      31.211913     -46.615227      59.05152       13063.043    
    185000   326.77799      0.0925         0.20190721     0.20549256     0.2048383     -2014.1067      530.22731      530.22731      530.22731      1.4906864e+08  2.4712926     -4494013.2     -4494013.2      973.08906     -4493040.1     -1992.6692     -2028.0539     -2021.5969      29.865348     -47.214196      59.131114      13037.381    
    186000   326.95258      0.093          0.20088891     0.20502006     0.20407066    -2006.677       530.46998      530.46998      530.46998      1.492734e+08   2.4679026     -4488255.8     -4488255.8      973.60894     -4487282.2     -1982.6194     -2023.3907     -2014.0209      29.492789     -44.42357       60.715464      13064.213    
    187000   327.38031      0.0935         0.20002899     0.20449184     0.2027837     -1997.8766      530.71264      530.71264      530.71264      1.4947835e+08  2.4645188     -4482509       -4482509        974.88265     -4481534.1     -1974.1327     -2018.1776     -2001.3195      31.446848     -41.775721      61.29914       13046.9      
    188000   327.75681      0.094          0.1993202      0.20372371     0.20167129    -1989.3583      530.95531      530.95531      530.95531      1.4968349e+08  2.4611413     -4476775.2     -4476775.2      976.00381     -4475799.2     -1967.1374     -2010.5967     -1990.3408      32.831184     -41.144378      60.487008      13092.616    
    189000   327.97553      0.0945         0.19839404     0.20256722     0.20085411    -1979.8186      531.19798      531.19798      531.19798      1.4988882e+08  2.4577698     -4471067.6     -4471067.6      976.65512     -4470091       -1957.9969     -1999.183      -1982.2759      31.24407      -40.059758      59.0548        13189.198    
    190000   327.74972      0.095          0.19745229     0.20141385     0.20028573    -1971.0564      531.44065      531.44065      531.44065      1.5009434e+08  2.4544046     -4465392.4     -4465392.4      975.9827      -4464416.4     -1948.7025     -1987.8002     -1976.6664      29.053195     -39.659116      55.863709      12986.457    
    191000   326.94146      0.0955         0.19669421     0.20050059     0.20002633    -1964.7047      531.68331      531.68331      531.68331      1.5030004e+08  2.4510454     -4459731.2     -4459731.2      973.57583     -4458757.6     -1941.2209     -1978.787      -1974.1064      29.777561     -40.848838      53.214377      12788.542    
    192000   326.36527      0.096          0.1962834      0.19996507     0.1998012     -1960.8509      531.92598      531.92598      531.92598      1.5050593e+08  2.4476924     -4454071       -4454071        971.86006     -4453099.1     -1937.1665     -1973.5018     -1971.8845      33.180228     -42.535633      54.991858      12845.743    
    193000   326.3796       0.0965         0.19604408     0.1997028      0.19905193    -1956.7359      532.16865      532.16865      532.16865      1.5071201e+08  2.4443455     -4448413.9     -4448413.9      971.90272     -4447442       -1934.8046     -1970.9134     -1964.4898      33.480942     -43.904218      58.703576      12813.976    
    194000   326.5772       0.097          0.19540102     0.19935852     0.1979416     -1949.8351      532.41131      532.41131      532.41131      1.5091827e+08  2.4410047     -4442762.2     -4442762.2      972.49112     -4441789.7     -1928.4581     -1967.5156     -1953.5317      30.76895      -44.94784       59.178043      12925.982    
    195000   326.57077      0.0975         0.19444051     0.19841955     0.1967189     -1939.564       532.65398      532.65398      532.65398      1.5112473e+08  2.43767       -4437130.4     -4437130.4      972.47199     -4436158       -1918.9787     -1958.2487     -1941.4646      29.921998     -44.458065      57.647499      12758.23     
    196000   326.63043      0.098          0.19330227     0.19700544     0.19558001    -1927.4207      532.89665      532.89665      532.89665      1.5133137e+08  2.4343414     -4431536       -4431536        972.64965     -4430563.4     -1907.7451     -1944.2925     -1930.2246      31.095824     -42.283024      57.565577      12831.546    
    197000   327.01836      0.0985         0.19211222     0.19569631     0.1947975     -1916.6248      533.13931      533.13931      533.13931      1.515382e+08   2.4310188     -4425980.9     -4425980.9      973.80484     -4425007.1     -1896.0002     -1931.3725     -1922.5019      31.72449      -41.183715      59.117558      12826.239    
    198000   326.96951      0.099          0.19132418     0.19479817     0.19444288    -1909.9111      533.38198      533.38198      533.38198      1.5174522e+08  2.4277023     -4420444.2     -4420444.2      973.65938     -4419470.5     -1888.2229     -1922.5084     -1919.0021      32.221354     -40.943392      61.429188      12905.972    
    199000   326.32537      0.0995         0.19110849     0.19463285     0.19419207    -1907.8326      533.62465      533.62465      533.62465      1.5195243e+08  2.4243918     -4414904.9     -4414904.9      971.74122     -4413933.2     -1886.0941     -1920.8769     -1916.5267      31.949552     -40.057045      61.600881      12781.427    
    200000   325.69997      0.1            0.19100282     0.19473952     0.1938318     -1906.6507      533.86732      533.86732      533.86732      1.5215982e+08  2.4210873     -4409355.1     -4409355.1      969.87891     -4408385.3     -1885.0513     -1921.9297     -1912.9711      30.541561     -39.338853      58.435613      12469.957    
    201000   325.58582      0.1005         0.19093142     0.19455518     0.19334271    -1904.2004      534.10998      534.10998      534.10998      1.5236741e+08  2.4177888     -4403801.5     -4403801.5      969.53899     -4402831.9     -1884.3466     -1920.1103     -1908.1441      29.964119     -38.405265      54.600397      12875.025    
    202000   325.81057      0.101          0.1906007      0.19373383     0.19251507    -1897.6876      534.35265      534.35265      534.35265      1.5257518e+08  2.4144963     -4398260.5     -4398260.5      970.20824     -4397290.3     -1881.0826     -1912.0042     -1899.976       32.00568      -37.440892      52.950706      12850.909    
    203000   326.57963      0.1015         0.1896652      0.19232437     0.19149941    -1886.6321      534.59532      534.59532      534.59532      1.5278315e+08  2.4112098     -4392750.1     -4392750.1      972.49837     -4391777.6     -1871.85       -1898.094      -1889.9523      33.927048     -37.363491      52.329369      12841.66     
    204000   327.55332      0.102          0.18856466     0.19090063     0.19087484    -1876.2732      534.83798      534.83798      534.83798      1.529913e+08   2.4079293     -4387272       -4387272        975.39784     -4386296.6     -1860.9885     -1884.0427     -1883.7882      32.522213     -38.489346      51.04595       12811.803    
    205000   327.81965      0.1025         0.18779048     0.19002313     0.19068296    -1870.2083      535.08065      535.08065      535.08065      1.5319964e+08  2.4046546     -4381810.2     -4381810.2      976.19095     -4380834       -1853.3479     -1875.3825     -1881.8945      30.168315     -41.654175      51.585724      12801.623    
    206000   327.3436       0.103          0.18703956     0.18983086     0.19036101    -1866.0463      535.32332      535.32332      535.32332      1.5340817e+08  2.401386      -4376359.9     -4376359.9      974.77334     -4375385.1     -1845.937      -1873.4849     -1878.7171      29.260565     -43.741318      54.068372      12773.748    
    207000   326.94096      0.1035         0.18611415     0.18965997     0.18935785    -1859.1396      535.56598      535.56598      535.56598      1.5361689e+08  2.3981232     -4370923.1     -4370923.1      973.57434     -4369949.5     -1836.8038     -1871.7983     -1868.8167      29.322658     -41.784858      55.64287       12886.803    
    208000   327.02299      0.104          0.18528329     0.18900594     0.18818525    -1850.3972      535.80865      535.80865      535.80865      1.5382579e+08  2.3948664     -4365498.5     -4365498.5      973.81862     -4364524.7     -1828.6039     -1865.3436     -1857.244       29.349688     -37.717733      55.443344      12897.694    
    209000   327.51168      0.1045         0.1846239      0.18821728     0.18747583    -1843.2996      536.05132      536.05132      536.05132      1.5403489e+08  2.3916154     -4360087.1     -4360087.1      975.27384     -4359111.8     -1822.0962     -1857.5602     -1850.2426      29.844855     -34.625765      53.952089      12894.802    
    210000   328.21287      0.105          0.18445046     0.18775213     0.18714594    -1840.1136      536.29399      536.29399      536.29399      1.5424418e+08  2.3883704     -4354692.2     -4354692.2      977.36187     -4353714.9     -1820.3845     -1852.9694     -1846.9868      29.314599     -35.789716      52.167015      12814.329    
    211000   328.17802      0.1055         0.18446439     0.18748945     0.18692362    -1838.5639      536.53665      536.53665      536.53665      1.5445365e+08  2.3851312     -4349302.2     -4349302.2      977.2581      -4348324.9     -1820.522      -1850.377      -1844.7927      28.499416     -41.78797       51.664198      12887.714    
    212000   327.68394      0.106          0.1839212      0.18691479     0.18658273    -1833.765       536.77932      536.77932      536.77932      1.5466332e+08  2.3818978     -4343912.1     -4343912.1      975.78682     -4342936.4     -1815.1611     -1844.7056     -1841.4284      29.537029     -46.200963      52.385623      12972.14     
    213000   327.53824      0.1065         0.18304865     0.18616675     0.18587891    -1826.1183      537.02199      537.02199      537.02199      1.5487317e+08  2.3786703     -4338535.4     -4338535.4      975.35294     -4337560       -1806.5497     -1837.3229     -1834.4822      30.436147     -45.676484      52.739227      12826.449    
    214000   327.08283      0.107          0.18249386     0.18523697     0.18503023    -1818.4425      537.26465      537.26465      537.26465      1.5508322e+08  2.3754486     -4333182       -4333182        973.99683     -4332208       -1801.0744     -1828.1467     -1826.1064      29.295886     -43.856836      51.950098      12898.756    
    215000   326.06525      0.1075         0.1817845      0.18411322     0.18404728    -1809.1784      537.50732      537.50732      537.50732      1.5529345e+08  2.3722328     -4327842.5     -4327842.5      970.96664     -4326871.5     -1794.0735     -1817.0562     -1816.4054      28.19535      -40.485803      51.263441      12865.602    
    216000   325.90626      0.108          0.18069112     0.18322057     0.18296301    -1799.0779      537.74999      537.74999      537.74999      1.5550388e+08  2.3690227     -4322521.6     -4322521.6      970.4932      -4321551.1     -1783.2827     -1808.2464     -1805.7046      28.464377     -35.580459      52.14893       12954.949    
    217000   326.12412      0.1085         0.17969812     0.18265147     0.1822562     -1791.6137      537.99265      537.99265      537.99265      1.5571449e+08  2.3658184     -4317221.6     -4317221.6      971.14193     -4316250.5     -1773.4826     -1802.6298     -1798.7288      29.633372     -34.567403      53.313158      12884.382    
[...]
   3184000   312.17215      1.592          0.001323716    0.0014602638   0.0014148641  -13.813123      1257.9855      1257.9855      1257.9855      1.9907968e+09  0.18504762    -256837.8      -256837.8       929.59535     -255908.21     -13.064061     -14.411683     -13.963623      0.90002383     1.7671821     -0.23007021     13031.599    
   3185000   312.14361      1.5925         0.0013195809   0.0014602773   0.0014133347  -13.794532      1258.2282      1258.2282      1258.2282      1.9919491e+09  0.18494058    -256680.75     -256680.75      929.51036     -255751.24     -13.023251     -14.411817     -13.948529      0.91946448     1.7406571     -0.19606633     13084.324    
   3186000   312.38262      1.593          0.0013183842   0.0014603865   0.0014176963  -13.805303      1258.4709      1258.4709      1258.4709      1.9931019e+09  0.18483361    -256524.46     -256524.46      930.2221      -255594.24     -13.01144      -14.412894     -13.991575      0.89762474     1.7439141     -0.13278792     13037.742    
   3187000   312.72268      1.5935         0.001319777    0.001457709    0.0014198173  -13.808054      1258.7135      1258.7135      1258.7135      1.9942551e+09  0.18472673    -256368.52     -256368.52      931.23475     -255437.29     -13.025186     -14.386469     -14.012507      0.85366345     1.7390999     -0.077538019    13082.686    
   3188000   312.69669      1.594          0.0013217804   0.0014522306   0.001416036   -13.784183      1258.9562      1258.9562      1258.9562      1.9954087e+09  0.18461993    -256212.52     -256212.52      931.15734     -255281.36     -13.044958     -14.332402     -13.975188      0.82591577     1.7186581     -0.052518526    13051.805    
   3189000   312.46873      1.5945         0.001324026    0.0014465996   0.0014124692  -13.761312      1259.1989      1259.1989      1259.1989      1.9965628e+09  0.18451322    -256056.4      -256056.4       930.47851     -255125.93     -13.067121     -14.276828     -13.939987      0.82932252     1.7082449     -0.059327074    13123.34     
   3190000   312.433        1.595          0.0013250266   0.0014421631   0.0014123596  -13.749648      1259.4415      1259.4415      1259.4415      1.9977173e+09  0.18440658    -255900.77     -255900.77      930.37212     -254970.4      -13.076996     -14.233043     -13.938906      0.8556376      1.7052217     -0.09926584     13007.104    
   3191000   312.50064      1.5955         0.0013244479   0.0014381826   0.0014135111  -13.738438      1259.6842      1259.6842      1259.6842      1.9988723e+09  0.18430003    -255745.86     -255745.86      930.57354     -254815.29     -13.071284     -14.193758     -13.95027       0.87946995     1.6954345     -0.1537424      12980.581    
   3192000   312.49533      1.596          0.0013221483   0.0014345834   0.001412798   -13.716686      1259.9269      1259.9269      1259.9269      2.0000277e+09  0.18419356    -255591.01     -255591.01      930.55774     -254660.45     -13.048589     -14.158237     -13.943232      0.88027499     1.6928565     -0.18761592     12914.25     
   3193000   312.43118      1.5965         0.0013183845   0.0014324267   0.0014084739  -13.682984      1260.1695      1260.1695      1260.1695      2.0011836e+09  0.18408717    -255436.16     -255436.16      930.36671     -254505.79     -13.011443     -14.136952     -13.900556      0.8744325      1.7091999     -0.18653452     12883.751    
   3194000   312.35887      1.597          0.0013148311   0.0014316448   0.0013997601  -13.640056      1260.4122      1260.4122      1260.4122      2.0023399e+09  0.18398087    -255282.26     -255282.26      930.15137     -254352.11     -12.976374     -14.129236     -13.814558      0.89134774     1.7356718     -0.17442874     12843.358    
   3195000   312.38439      1.5975         0.0013125374   0.0014347008   0.0013899983  -13.61045       1260.6549      1260.6549      1260.6549      2.0034966e+09  0.18387464    -255129.35     -255129.35      930.22736     -254199.13     -12.953737     -14.159396     -13.718216      0.93129369     1.7560123     -0.16779863     12799.938    
   3196000   312.45709      1.598          0.0013084254   0.0014373964   0.0013812616  -13.577049      1260.8975      1260.8975      1260.8975      2.0046538e+09  0.1837685     -254976.69     -254976.69      930.44385     -254046.24     -12.913155     -14.185999     -13.631993      0.96180612     1.7466037     -0.15966303     12768.496    
   3197000   312.32715      1.5985         0.0013024644   0.0014342462   0.0013764537  -13.531258      1261.1402      1261.1402      1261.1402      2.0058115e+09  0.18366244    -254823.88     -254823.88      930.05692     -253893.82     -12.854324     -14.15491      -13.584541      0.96717068     1.7168534     -0.15654145     12797.168    
   3198000   312.07891      1.599          0.0012974716   0.0014263031   0.0013794681  -13.498619      1261.3829      1261.3829      1261.3829      2.0069695e+09  0.18355646    -254671.09     -254671.09      929.3177      -253741.77     -12.805049     -14.076517     -13.614291      0.96689945     1.7111284     -0.16737986     12847.631    
   3199000   311.99263      1.5995         0.0012915299   0.0014165054   0.0013858983  -13.467994      1261.6255      1261.6255      1261.6255      2.0081281e+09  0.18345056    -254518.7      -254518.7       929.06078     -253589.64     -12.746409     -13.979822     -13.677752      0.98041113     1.7374835     -0.17769244     12768.95     
   3200000   311.95656      1.6            0.0012807847   0.0014056196   0.0013869853  -13.40041       1261.8682      1261.8682      1261.8682      2.0092871e+09  0.18334474    -254366.79     -254366.79      928.95336     -253437.83     -12.640362     -13.872386     -13.688481      1.0029315      1.7662219     -0.16413686     12501.432    
   3201000   311.75193      1.6005         0.0012689427   0.0013954147   0.0013817199  -13.31056       1262.1109      1262.1109      1262.1109      2.0104465e+09  0.18323901    -254215.23     -254215.23      928.34402     -253286.88     -12.523491     -13.771673     -13.636515      1.0289491      1.7836135     -0.13472938     12700.355    
   3202000   311.54457      1.601          0.0012620118   0.0013878263   0.00137593    -13.243748      1262.3535      1262.3535      1262.3535      2.0116064e+09  0.18313335    -254064.68     -254064.68      927.72654     -253136.96     -12.455088     -13.696781     -13.579373      1.0513983      1.7976782     -0.11635223     12671.947    
   3203000   311.57034      1.6015         0.0012625546   0.0013847664   0.001374236   -13.229894      1262.5962      1262.5962      1262.5962      2.0127667e+09  0.18302778    -253914.85     -253914.85      927.80328     -252987.05     -12.460445     -13.666582     -13.562655      1.0556749      1.8099206     -0.11105095     12739.717    
   3204000   311.79796      1.602          0.0012691137   0.0013871933   0.0013750167  -13.262024      1262.8389      1262.8389      1262.8389      2.0139274e+09  0.18292229    -253764.71     -253764.71      928.48108     -252836.23     -12.525178     -13.690534     -13.570359      1.040944       1.8172476     -0.11224923     12605.738    
   3205000   312.00731      1.6025         0.0012752875   0.0013914704   0.0013751421  -13.296817      1263.0815      1263.0815      1263.0815      2.0150887e+09  0.18281688    -253613.9      -253613.9       929.10448     -252684.79     -12.586109     -13.732745     -13.571598      1.0144982      1.8143668     -0.11587228     12541.209    
   3206000   311.997        1.603          0.0012753629   0.0013932997   0.0013738129  -13.29871       1263.3242      1263.3242      1263.3242      2.0162503e+09  0.18271155    -253462.77     -253462.77      929.07378     -252533.69     -12.586853     -13.750799     -13.558479      0.98286521     1.7957895     -0.11235769     12506.994    
   3207000   311.97464      1.6035         0.0012723172   0.0013934423   0.0013737488  -13.288949      1263.5669      1263.5669      1263.5669      2.0174124e+09  0.1826063     -253311.86     -253311.86      929.0072      -252382.85     -12.556794     -13.752206     -13.557847      0.94946671     1.7800508     -0.091856497    12528.743    
   3208000   312.16192      1.604          0.0012713785   0.0013949396   0.0013723517  -13.28619       1263.8095      1263.8095      1263.8095      2.018575e+09   0.18250113    -253160.96     -253160.96      929.56489     -252231.39     -12.54753      -13.766984     -13.544058      0.94027907     1.7622834     -0.073171263    12522.992    
   3209000   312.25714      1.6045         0.0012734569   0.0013970723   0.0013674281  -13.283847      1264.0522      1264.0522      1264.0522      2.019738e+09   0.18239605    -253009.9      -253009.9       929.84844     -252080.05     -12.568043     -13.788031     -13.495466      0.95595009     1.733728      -0.069442142    12558.571    
   3210000   312.2604       1.605          0.0012775858   0.0013980509   0.0013642329  -13.290138      1264.2949      1264.2949      1264.2949      2.0209014e+09  0.18229104    -252859.01     -252859.01      929.85815     -251929.15     -12.608792     -13.797689     -13.463932      0.95214105     1.719923      -0.057025296    12567.791    
   3211000   312.46067      1.6055         0.001280637    0.0013973071   0.0013625794  -13.292289      1264.5375      1264.5375      1264.5375      2.0220653e+09  0.18218611    -252708.57     -252708.57      930.45452     -251778.11     -12.638905     -13.790349     -13.447613      0.92646288     1.713168      -0.040821566    12586.578    
   3212000   312.61502      1.606          0.001278181    0.0013928613   0.0013576159  -13.253255      1264.7802      1264.7802      1264.7802      2.0232296e+09  0.18208127    -252558.94     -252558.94      930.91415     -251628.02     -12.614666     -13.746472     -13.398627      0.91192086     1.6833452     -0.043423222    12771.268    
   3213000   312.50477      1.6065         0.0012731094   0.0013868463   0.0013525148  -13.200002      1265.0229      1265.0229      1265.0229      2.0243944e+09  0.1819765     -252410.02     -252410.02      930.58585     -251479.44     -12.564613     -13.687108     -13.348284      0.90754087     1.6401962     -0.061033159    12803.803    
   3214000   312.30888      1.607          0.001268675    0.0013808473   0.0013502369  -13.158185      1265.2655      1265.2655      1265.2655      2.0255597e+09  0.18187182    -252261.36     -252261.36      930.00252     -251331.36     -12.520849     -13.627903     -13.325802      0.89555086     1.6053637     -0.086292875    12813.81     
   3215000   312.16332      1.6075         0.0012661466   0.0013744906   0.0013507815  -13.130747      1265.5082      1265.5082      1265.5082      2.0267253e+09  0.18176722    -252112.69     -252112.69      929.56905     -251183.12     -12.495896     -13.565168     -13.331177      0.87426496     1.5889776     -0.12010264     12792.987    
   3216000   312.04543      1.608          0.0012642443   0.001369589    0.0013525004  -13.114018      1265.7509      1265.7509      1265.7509      2.0278915e+09  0.18166269    -251963.94     -251963.94      929.21802     -251034.72     -12.477121     -13.516793     -13.348141      0.85144635     1.5892913     -0.15672235     12823.96     
   3217000   311.83746      1.6085         0.0012606989   0.0013687115   0.001352639   -13.099924      1265.9935      1265.9935      1265.9935      2.029058e+09   0.18155825    -251815.13     -251815.13      928.59871     -250886.53     -12.442131     -13.508132     -13.349509      0.82949695     1.5856741     -0.18718734     12869.115    
   3218000   311.54406      1.609          0.0012561716   0.0013706835   0.0013502636  -13.083703      1266.2362      1266.2362      1266.2362      2.030225e+09   0.18145388    -251666.1      -251666.1       927.72501     -250738.37     -12.39745      -13.527595     -13.326065      0.81828318     1.5608344     -0.20632819     12718.028    
   3219000   311.41441      1.6095         0.0012520222   0.0013724815   0.0013461535  -13.062447      1266.4789      1266.4789      1266.4789      2.0313925e+09  0.1813496     -251516.81     -251516.81      927.33894     -250589.47     -12.356498     -13.545339     -13.285503      0.8243802      1.5195651     -0.21272822     12681.289    
   3220000   311.50371      1.61           0.0012483608   0.0013727454   0.0013419829  -13.03755       1266.7215      1266.7215      1266.7215      2.0325604e+09  0.1812454     -251367.84     -251367.84      927.60486     -250440.23     -12.320363     -13.547944     -13.244341      0.83583446     1.4817816     -0.21121232     12680.786    
   3221000   311.56736      1.6105         0.0012454134   0.0013712064   0.0013398531  -13.015784      1266.9642      1266.9642      1266.9642      2.0337288e+09  0.18114127    -251219.21     -251219.21      927.79439     -250291.41     -12.291275     -13.532755     -13.223322      0.83969957     1.459775      -0.22124648     12780.904    
   3222000   311.51734      1.611          0.0012445588   0.001369796    0.0013398217  -13.008229      1267.2069      1267.2069      1267.2069      2.0348976e+09  0.18103723    -251070.27     -251070.27      927.64546     -250142.63     -12.282841     -13.518835     -13.223012      0.83416303     1.4560359     -0.24054797     12808.692    
   3223000   311.48142      1.6115         0.0012447044   0.0013697441   0.0013370078  -12.99928       1267.4495      1267.4495      1267.4495      2.0360669e+09  0.18093326    -250920.75     -250920.75      927.53847     -249993.21     -12.284277     -13.518323     -13.195241      0.82434761     1.4602703     -0.25059219     12778.927    
   3224000   311.49787      1.612          0.0012425772   0.0013703367   0.001329003   -12.967898      1267.6922      1267.6922      1267.6922      2.0372366e+09  0.18082938    -250771.2      -250771.2       927.58747     -249843.61     -12.263284     -13.524171     -13.11624       0.81404633     1.4578199     -0.2385628      12846.944    
   3225000   311.51739      1.6125         0.0012370523   0.0013698729   0.0013191366  -12.915739      1267.9349      1267.9349      1267.9349      2.0384067e+09  0.18072557    -250622.3      -250622.3       927.64558     -249694.65     -12.208756     -13.519594     -13.018866      0.81895117     1.4478219     -0.20994964     12839.364    
   3226000   311.52763      1.613          0.0012303494   0.0013674023   0.0013106759  -12.857727      1268.1775      1268.1775      1268.1775      2.0395773e+09  0.18062185    -250474.26     -250474.26      927.67608     -249546.58     -12.142604     -13.495211     -12.935365      0.85642094     1.4385517     -0.18728539     12852.017    
   3227000   311.56579      1.6135         0.0012253686   0.0013629933   0.0013040019  -12.804881      1268.4202      1268.4202      1268.4202      2.0407484e+09  0.1805182     -250327.21     -250327.21      927.78972     -249399.42     -12.093448     -13.451698     -12.869498      0.91189977     1.4318984     -0.18075176     12845.666    
   3228000   311.64072      1.614          0.0012222815   0.0013571071   0.0012996869  -12.761166      1268.6629      1268.6629      1268.6629      2.0419199e+09  0.18041463    -250181.15     -250181.15      928.01284     -249253.14     -12.062981     -13.393606     -12.826912      0.9447557      1.4251312     -0.18348201     12896.878    
   3229000   311.70788      1.6145         0.0012206472   0.0013515368   0.0012987756  -12.734467      1268.9055      1268.9055      1268.9055      2.0430918e+09  0.18031114    -250035.6      -250035.6       928.21283     -249107.39     -12.046852     -13.338631     -12.817919      0.94079227     1.4178219     -0.18201482     12891.351    
   3230000   311.67952      1.615          0.0012195222   0.0013471443   0.0012998153  -12.719736      1269.1482      1269.1482      1269.1482      2.0442642e+09  0.18020773    -249889.96     -249889.96      928.1284      -248961.84     -12.035748     -13.295281     -12.828179      0.91034347     1.4029031     -0.17044139     12949.677    
   3231000   311.56416      1.6155         0.0012192235   0.0013440736   0.0013012132  -12.713251      1269.3909      1269.3909      1269.3909      2.045437e+09   0.1801044     -249744.13     -249744.13      927.78487     -248816.34     -12.032801     -13.264976     -12.841976      0.8728565      1.3755885     -0.15232482     12867.76     
   3232000   311.49295      1.616          0.0012208864   0.0013432616   0.0013033237  -12.722993      1269.6335      1269.6335      1269.6335      2.0466103e+09  0.18000115    -249598.04     -249598.04      927.57281     -248670.47     -12.049212     -13.256961     -12.862805      0.84860973     1.3472094     -0.13987357     12808.373    
   3233000   311.55803      1.6165         0.0012257839   0.0013462245   0.0013054472  -12.755837      1269.8762      1269.8762      1269.8762      2.0477841e+09  0.17989798    -249451.56     -249451.56      927.7666      -248523.79     -12.097546     -13.286203     -12.883762      0.85178374     1.3260967     -0.14477889     12835.928    
   3234000   311.71673      1.617          0.0012333949   0.0013527513   0.0013049679  -12.80077       1270.1189      1270.1189      1270.1189      2.0489583e+09  0.17979489    -249304.48     -249304.48      928.23921     -248376.24     -12.172661     -13.350617     -12.879032      0.87870525     1.3124908     -0.1622027      12959.511    
   3235000   311.88885      1.6175         0.0012394249   0.0013576918   0.0012993071  -12.818237      1270.3615      1270.3615      1270.3615      2.0501329e+09  0.17969187    -249157.38     -249157.38      928.75173     -248228.62     -12.232173     -13.399376     -12.823164      0.91487585     1.305579      -0.18430877     13020.594    
   3236000   312.02024      1.618          0.0012387695   0.001356314    0.0012902787  -12.781848      1270.6042      1270.6042      1270.6042      2.051308e+09   0.17958894    -249010.8      -249010.8       929.14298     -248081.66     -12.225704     -13.385779     -12.73406       0.94088314     1.3060365     -0.19970163     12993.724    
   3237000   312.08315      1.6185         0.0012303787   0.0013500739   0.0012825334  -12.708236      1270.8469      1270.8469      1270.8469      2.0524835e+09  0.17948608    -248865.22     -248865.22      929.33033     -247935.89     -12.142893     -13.324193     -12.65762       0.93792452     1.3099893     -0.19563347     12989.987    
   3238000   312.0645       1.619          0.0012174703   0.0013431176   0.001279325   -12.632331      1271.0895      1271.0895      1271.0895      2.0536595e+09  0.1793833     -248720.82     -248720.82      929.27478     -247791.55     -12.015498     -13.25554      -12.625956      0.91182089     1.3178802     -0.1776528      13060.99     
   3239000   311.98333      1.6195         0.001204388    0.0013367124   0.0012790804  -12.567418      1271.3322      1271.3322      1271.3322      2.0548359e+09  0.1792806     -248577.55     -248577.55      929.03308     -247648.51     -11.886385     -13.192326     -12.623542      0.88488766     1.3259758     -0.16813223     13145.41     
   3240000   311.89731      1.62           0.001195005    0.0013304091   0.0012785848  -12.514184      1271.5749      1271.5749      1271.5749      2.0560128e+09  0.17917798    -248435.43     -248435.43      928.77692     -247506.65     -11.793782     -13.130117     -12.618651      0.86068545     1.3288497     -0.16871231     13056.318    
   3241000   311.81622      1.6205         0.0011903754   0.0013236279   0.0012758049  -12.467499      1271.8175      1271.8175      1271.8175      2.0571902e+09  0.17907543    -248293.8      -248293.8       928.53547     -247365.26     -11.748092     -13.063192     -12.591215      0.83608613     1.3312301     -0.17336445     13024.387    
ERROR on proc 0: Pair distance > table outer cutoff: ijtype 1 1 dist 308.0000181422468 (src/pair_table_pgn.cpp:138)
Last command: run				${steps_tensile}
