LAMMPS (23 Jun 2022 - Update 1)
OMP_NUM_THREADS environment is not set. Defaulting to 1 thread. (src/comm.cpp:98)
  using 1 OpenMP thread(s) per MPI task
###

# Read restart info
read_restart ${read_res}
read_restart ./trial6/7030/equpmf71.res
Reading restart file ...
  restart file = 23 Jun 2022, LAMMPS = 23 Jun 2022
  restoring atom style atomic from restart
  orthogonal box = (1701.838 1701.838 1701.838) to (2298.162 2298.162 2298.162)
  2 by 1 by 2 MPI processor grid
  restoring pair style table from restart
  1000 atoms
  read_restart CPU = 0.043 seconds

# Settings
pair_style table/pgn spline 10941
pair_coeff 1 1 N20e.txt DE_GNP 308 72.9   # 1.35 * r
pair_coeff 2 2 N100e.txt DE_GNP 473.9 111.78
WARNING: 20 of 10941 force values in table DE_GNP are inconsistent with -dE/dr.
WARNING:  Should only be flagged at inflection points (src/pair_table_pgn.cpp:478)
pair_coeff 1 2 mixed_potentiale.txt DE_GNP 391.2 92.95
WARNING: 1564 of 10941 force values in table DE_GNP are inconsistent with -dE/dr.
WARNING:  Should only be flagged at inflection points (src/pair_table_pgn.cpp:478)

# Neighbor list
neighbor 2.0 bin
neigh_modify delay 0 every 1 check no once yes

# Temperature
variable T equal ${Temp}
variable T equal 300

# Deformation
reset_timestep 0
variable tmp equal "lx"
variable L0 equal ${tmp}
variable L0 equal 596.324082789754
variable strain equal "(lx - v_L0)/v_L0"
variable stp equal "step"
variable tmpe equal "temp"
variable p1 equal "v_strain"
variable p2 equal "-pxx*1.01325/10000"
variable p3 equal "-pyy*1.01325/10000"
variable p4 equal "-pzz*1.01325/10000"
variable p5 equal "lx"
variable p6 equal "ly"
variable p7 equal "lz"
variable p8 equal "press"
variable p9 equal "epair"
variable p10 equal "etotal"

# Thermo
thermo_style custom step temp v_p1 v_p2 v_p3 v_p4 press lx ly lz vol density epair pe ke etotal pxx pyy pzz pxy pxz pyz spcpu
thermo ${ts_save}
thermo 1000

# Dump
# dump 1 all custom 2000 ./${N20}${N100}/tensile/trajectory/trajectory_${usic}_${trial}_*.tensile.custom id type x y z ix iy iz
# dump_modify 1 sort id
dump 2 all cfg 50000 ./trial${trial}/${N20}${N100}/tensile/trajectory/dumpten.tens_${usic}_${trial}_*.cfg mass type xs ys zs fx fy fz
dump 2 all cfg 50000 ./trial6/${N20}${N100}/tensile/trajectory/dumpten.tens_${usic}_${trial}_*.cfg mass type xs ys zs fx fy fz
dump 2 all cfg 50000 ./trial6/70${N100}/tensile/trajectory/dumpten.tens_${usic}_${trial}_*.cfg mass type xs ys zs fx fy fz
dump 2 all cfg 50000 ./trial6/7030/tensile/trajectory/dumpten.tens_${usic}_${trial}_*.cfg mass type xs ys zs fx fy fz
dump 2 all cfg 50000 ./trial6/7030/tensile/trajectory/dumpten.tens_1_${trial}_*.cfg mass type xs ys zs fx fy fz
dump 2 all cfg 50000 ./trial6/7030/tensile/trajectory/dumpten.tens_1_6_*.cfg mass type xs ys zs fx fy fz
dump_modify 2 element N20 N100

fix 1 all nvt temp ${T} ${T} 100
fix 1 all nvt temp 300 ${T} 100
fix 1 all nvt temp 300 300 100
fix 2 all deform 1 x erate ${strain_rate} y erate ${strain_rate} z erate ${strain_rate} units box
fix 2 all deform 1 x erate 5e-6 y erate ${strain_rate} z erate ${strain_rate} units box
fix 2 all deform 1 x erate 5e-6 y erate 5e-6 z erate ${strain_rate} units box
fix 2 all deform 1 x erate 5e-6 y erate 5e-6 z erate 5e-6 units box
fix             def1 all print ${ts_save} "${p1} ${p2} ${p3} ${p4}" file ./tensile/${trial}/tensile${N20}${N100}_${usic}_${trial}.txt screen no
fix             def1 all print 1000 "${p1} ${p2} ${p3} ${p4}" file ./tensile/${trial}/tensile${N20}${N100}_${usic}_${trial}.txt screen no
fix             def1 all print 1000 "${p1} ${p2} ${p3} ${p4}" file ./tensile/6/tensile${N20}${N100}_${usic}_${trial}.txt screen no
fix             def1 all print 1000 "${p1} ${p2} ${p3} ${p4}" file ./tensile/6/tensile70${N100}_${usic}_${trial}.txt screen no
fix             def1 all print 1000 "${p1} ${p2} ${p3} ${p4}" file ./tensile/6/tensile7030_${usic}_${trial}.txt screen no
fix             def1 all print 1000 "${p1} ${p2} ${p3} ${p4}" file ./tensile/6/tensile7030_1_${trial}.txt screen no
fix             def1 all print 1000 "${p1} ${p2} ${p3} ${p4}" file ./tensile/6/tensile7030_1_6.txt screen no

timestep       		${ts}
timestep       		0.1
run				${steps_tensile}
run				6000000
Generated 0 of 1 mixed pair_coeff terms from geometric mixing rule
Unused restart file global fix info:
  fix style: npt, fix ID: 5
Neighbor list info ...
  update every 1 steps, delay 0 steps, check no
  max neighbors/atom: 2000, page size: 100000
  master list distance cutoff = 113.78
  ghost atom cutoff = 113.78
  binsize = 56.89, bins = 11 11 11
  1 neighbor lists, perpetual/occasional/extra = 1 0 0
  (1) pair table/pgn, perpetual
      attributes: half, newton on
      pair build: half/bin/atomonly/newton
      stencil: half/bin/3d
      bin: standard
Per MPI rank memory allocation (min/avg/max) = 3.854 | 3.855 | 3.856 Mbytes
   Step          Temp           v_p1           v_p2           v_p3           v_p4          Press            Lx             Ly             Lz           Volume        Density         E_pair         PotEng         KinEng         TotEng          Pxx            Pyy            Pzz            Pxy            Pxz            Pyz           S/CPU     
         0   299.57879      5.7193818e-16  0.01482116     0.0084390389   0.025777631   -161.32192      596.32408      596.32408      596.32408      2.1205428e+08  2.2075677     -18495368      -18495368       892.09448     -18494476      -146.27348     -83.286839     -254.40544     -93.877193     -32.578156     -6.6521149      0            
      1000   336.65899      0.0005         0.025417532    0.019009889    0.035972984   -264.49677      596.62224      596.62224      596.62224      2.1237252e+08  2.2042597     -18494516      -18494516       1002.513      -18493514      -250.85154     -187.61302     -355.02575     -91.342301     -31.640088     -7.2262148      10678.175    
      2000   408.19186      0.001          0.034403332    0.028079046    0.044660422   -352.47241      596.92041      596.92041      596.92041      2.1269108e+08  2.2009582     -18493440      -18493440       1215.5257     -18492224      -339.53449     -277.11864     -440.76409     -90.155439     -31.509015     -8.4717823      12444.02     
      3000   477.05363      0.0015         0.041718373    0.035551246    0.051875252   -424.85359      597.21857      597.21857      597.21857      2.1300996e+08  2.1976634     -18492167      -18492167       1420.5843     -18490747      -411.72833     -350.86352     -511.96893     -88.232462     -32.721204     -9.2236452      12457.029    
      4000   517.81402      0.002          0.048688014    0.042620518    0.058730202   -493.58906      597.51673      597.51673      597.51673      2.1332915e+08  2.1943751     -18490664      -18490664       1541.9617     -18489122      -480.51333     -420.63181     -579.62203     -85.981262     -33.160713     -10.444499      12451.393    
      5000   529.1705       0.0025         0.056212309    0.050072124    0.065955843   -566.62645      597.81489      597.81489      597.81489      2.1364867e+08  2.1910934     -18488858      -18488858       1575.7794     -18487282      -554.77235     -494.17345     -650.93356     -84.823821     -31.699492     -11.995027      13429.595    
      6000   521.47004      0.003          0.064026691    0.058008314    0.073830008   -644.34579      598.11306      598.11306      598.11306      2.139685e+08   2.1878182     -18486705      -18486705       1552.8487     -18485152      -631.89431     -572.49754     -728.64552     -83.946722     -29.664642     -12.883933      14533.895    
      7000   504.90198      0.0035         0.071949323    0.066336825    0.082078723   -724.94406      598.41122      598.41122      598.41122      2.1428865e+08  2.1845496     -18484181      -18484181       1503.5119     -18482677      -710.08461     -654.69356     -810.05401     -83.054804     -28.466859     -12.534821      14528.528    
      8000   485.70331      0.004          0.08017061     0.074588926    0.08998674    -805.15265      598.70938      598.70938      598.70938      2.1460913e+08  2.1812874     -18481258      -18481258       1446.3415     -18479811      -791.22241     -736.13546     -888.10007     -82.892191     -28.177821     -12.060875      14552.967    
      9000   467.6684       0.0045         0.088461211    0.082297468    0.0974409     -882.30802      599.00754      599.00754      599.00754      2.1492992e+08  2.1780318     -18477929      -18477929       1392.6366     -18476536      -873.04427     -812.21286     -961.66691     -80.684119     -27.517519     -11.640706      14521.267    
     10000   452.12924      0.005          0.096353394    0.089764757    0.10471358    -956.76202      599.3057       599.3057       599.3057       2.1525103e+08  2.1747826     -18474211      -18474211       1346.3637     -18472865      -950.93407     -885.90927     -1033.4427     -75.8469       -25.413593     -10.86328       14575.508    
     11000   438.94991      0.0055         0.10338409     0.097167056    0.1116586     -1027.0902      599.60387      599.60387      599.60387      2.1557246e+08  2.1715399     -18470122      -18470122       1307.1179     -18468815      -1020.3216     -958.96428     -1101.9847     -71.904965     -23.997935     -10.564663      14394.842    
     12000   427.62908      0.006          0.10985883     0.1042787      0.11826945    -1093.534       599.90203      599.90203      599.90203      2.1589421e+08  2.1683036     -18465691      -18465691       1273.4064     -18464417      -1084.2224     -1029.1508     -1167.2288     -71.356981     -25.027981     -11.646609      14526.274    
     13000   417.73386      0.0065         0.11641992     0.11099389     0.12482646    -1158.7804      600.20019      600.20019      600.20019      2.1621628e+08  2.1650738     -18460942      -18460942       1243.9401     -18459698      -1148.9753     -1095.4246     -1231.9414     -71.769529     -27.599261     -13.385468      14589.327    
     14000   409.08883      0.007          0.1230622      0.11755219     0.13141895    -1223.8945      600.49835      600.49835      600.49835      2.1653867e+08  2.1618503     -18455868      -18455868       1218.1967     -18454649      -1214.5295     -1160.1499     -1297.0042     -70.071717     -27.859611     -13.266829      14567.213    
     15000   401.79565      0.0075         0.12958929     0.12410951     0.13766989    -1287.5029      600.79651      600.79651      600.79651      2.1686138e+08  2.1586333     -18450460      -18450460       1196.4788     -18449264      -1278.9468     -1224.8657     -1358.6962     -68.269652     -25.995354     -12.292406      14587.971    
     16000   396.30183      0.008          0.135886       0.13048876     0.14349605    -1348.3701      601.09468      601.09468      601.09468      2.1718441e+08  2.1554226     -18444733      -18444733       1180.1192     -18443553      -1341.0905     -1287.8239     -1416.1959     -67.671605     -24.017954     -12.157453      14602.261    
     17000   392.55949      0.0085         0.142199       0.13670465     0.14933286    -1408.7886      601.39284      601.39284      601.39284      2.1750776e+08  2.1522183     -18438701      -18438701       1168.9751     -18437532      -1403.395      -1349.17       -1473.8007     -67.084618     -22.115584     -12.765101      14572.065    
     18000   389.69583      0.009          0.14848384     0.14291233     0.15530174    -1469.5219      601.691        601.691        601.691        2.1783143e+08  2.1490204     -18432377      -18432377       1160.4476     -18431216      -1465.4216     -1410.435      -1532.709      -65.621273     -20.892496     -12.978583      14571.314    
     19000   387.43143      0.0095         0.15432805     0.14888791     0.1609323     -1526.929       601.98916      601.98916      601.98916      2.1815542e+08  2.1458288     -18425766      -18425766       1153.7046     -18424612      -1523.0994     -1469.4094     -1588.2783     -62.700044     -21.159342     -11.947568      14594.995    
     20000   385.74712      0.01           0.16002976     0.15487362     0.16656239    -1583.8992      602.28732      602.28732      602.28732      2.1847974e+08  2.1426435     -18418872      -18418872       1148.6891     -18417723      -1579.3709     -1528.4838     -1643.843      -58.906662     -21.481647     -11.746472      14598.774    
     21000   383.92922      0.0105         0.16580329     0.16072612     0.17248945    -1641.6444      602.58549      602.58549      602.58549      2.1880437e+08  2.1394645     -18411698      -18411698       1143.2757     -18410555      -1636.3512     -1586.2435     -1702.3385     -57.01189      -20.26072      -13.074907      14596.854    
     22000   382.38266      0.011          0.1712213      0.16617499     0.17797674    -1695.4455      602.88365      602.88365      602.88365      2.1912933e+08  2.1362918     -18404258      -18404258       1138.6703     -18403119      -1689.8228     -1640.0197     -1756.4939     -57.241439     -18.138287     -13.720687      14601.863    
     23000   382.20723      0.0115         0.17624709     0.17139408     0.18262564    -1744.4422      603.18181      603.18181      603.18181      2.1945461e+08  2.1331253     -18396571      -18396571       1138.1479     -18395433      -1739.4236     -1691.528      -1802.3749     -57.854603     -17.36032      -11.828105      14569.052    
     24000   383.37369      0.012          0.18135711     0.17645712     0.18714627    -1792.7807      603.47997      603.47997      603.47997      2.1978021e+08  2.1299651     -18388643      -18388643       1141.6214     -18387501      -1789.8555     -1741.4964     -1846.9901     -56.670806     -18.528822     -9.8217214      14609.344    
     25000   384.8143       0.0125         0.18667319     0.18135046     0.19207785    -1842.5907      603.77813      603.77813      603.77813      2.2010613e+08  2.1268112     -18380470      -18380470       1145.9113     -18379324      -1842.3212     -1789.7899     -1895.661      -54.220357     -19.615098     -10.084525      14605.75     
     26000   385.8426       0.013          0.19190057     0.18624616     0.19701941    -1892.1495      604.0763       604.0763       604.0763       2.2043238e+08  2.1236635     -18372057      -18372057       1148.9734     -18370908      -1893.9113     -1838.1067     -1944.4304     -52.107144     -19.721896     -11.715647      14590.938    
     27000   386.88102      0.0135         0.19669348     0.19103993     0.20152615    -1938.5132      604.37446      604.37446      604.37446      2.2075894e+08  2.120522      -18363423      -18363423       1152.0656     -18362271      -1941.2138     -1885.4175     -1988.9085     -50.366441     -18.639375     -13.663019      14574.845    
     28000   388.43257      0.014          0.20097086     0.1956874      0.20583417    -1982.046       604.67262      604.67262      604.67262      2.2108583e+08  2.1173866     -18354576      -18354576       1156.6859     -18353419      -1983.4282     -1931.2845     -2031.4253     -48.847019     -17.876093     -14.504558      14603.859    
     29000   390.25055      0.0145         0.2049849      0.20014748     0.21007277    -2023.8676      604.97078      604.97078      604.97078      2.2141304e+08  2.1142575     -18345517      -18345517       1162.0995     -18344355      -2023.0437     -1975.3021     -2073.257      -46.980977     -16.580414     -13.607686      14595.159    
     30000   391.99612      0.015          0.2091384      0.20454296     0.21402354    -2064.9886      605.26894      605.26894      605.26894      2.2174058e+08  2.1111345     -18336253      -18336253       1167.2975     -18335086      -2064.0355     -2018.682      -2112.2482     -45.742604     -14.593032     -12.897037      14591.776    
     31000   393.45065      0.0155         0.21348095     0.20895464     0.21789436    -2106.5217      605.56711      605.56711      605.56711      2.2206843e+08  2.1080177     -18326789      -18326789       1171.6289     -18325617      -2106.8932     -2062.2219     -2150.4501     -45.785372     -14.514851     -10.617891      14604.239    
     32000   395.14065      0.016          0.21775255     0.21327391     0.22187112    -2147.8661      605.86527      605.86527      605.86527      2.2239661e+08  2.104907      -18317126      -18317126       1176.6614     -18315949      -2149.0506     -2104.8499     -2189.6977     -45.024843     -15.973403     -8.7921935      14584.27     
     33000   397.38229      0.0165         0.22186027     0.21750167     0.22588254    -2188.4842      606.16343      606.16343      606.16343      2.2272512e+08  2.1018024     -18307267      -18307267       1183.3366     -18306083      -2189.5906     -2146.5746     -2229.2874     -43.126929     -17.309561     -9.9027593      14579.098    
     34000   399.55979      0.017          0.22604311     0.22160336     0.22972451    -2228.3773      606.46159      606.46159      606.46159      2.2305394e+08  2.0987039     -18297206      -18297206       1189.8208     -18296016      -2230.872      -2187.0551     -2267.2047     -42.597562     -18.91712      -11.213655      14591.337    
     35000   401.4716       0.0175         0.23010215     0.22546472     0.23351431    -2266.9008      606.75975      606.75975      606.75975      2.2338309e+08  2.0956115     -18286954      -18286954       1195.5139     -18285759      -2270.9316     -2225.1637     -2304.6071     -42.940402     -17.897968     -11.414696      14513.883    
     36000   403.79326      0.018          0.23361286     0.22909789     0.23694602    -2301.6918      607.05792      607.05792      607.05792      2.2371257e+08  2.0925252     -18276537      -18276537       1202.4274     -18275334      -2305.5796     -2261.0204     -2338.4754     -42.581903     -14.363701     -10.540146      14571.394    
     37000   406.80988      0.0185         0.2367993      0.2325253      0.23981133    -2332.8758      607.35608      607.35608      607.35608      2.2404236e+08  2.089445      -18265969      -18265969       1211.4103     -18264758      -2337.0274     -2294.8462     -2366.7538     -40.847402     -11.61135      -9.0074496      14603.662    
     38000   409.61794      0.019          0.24023572     0.23591317     0.24264288    -2364.6411      607.65424      607.65424      607.65424      2.2437249e+08  2.0863707     -18255241      -18255241       1219.7723     -18254021      -2370.9423     -2328.282      -2394.699      -37.445793     -12.509796     -8.3059451      14601.6      
     39000   411.43303      0.0195         0.24373487     0.23951155     0.24583204    -2398.4816      607.9524       607.9524       607.9524       2.2470293e+08  2.0833025     -18244341      -18244341       1225.1773     -18243116      -2405.4761     -2363.7952     -2426.1736     -34.423741     -14.40045      -8.3648308      14570.782    
     40000   412.83942      0.02           0.24695638     0.24281817     0.2491018     -2430.7142      608.25056      608.25056      608.25056      2.250337e+08   2.0802404     -18233281      -18233281       1229.3653     -18232051      -2437.27       -2396.429      -2458.4436     -32.965188     -14.854129     -8.4381462      14594.555    
     41000   414.57323      0.0205         0.25000064     0.24589293     0.25232474    -2461.4469      608.54873      608.54873      608.54873      2.2536479e+08  2.0771842     -18222067      -18222067       1234.5283     -18220832      -2467.3144     -2426.7746     -2490.2516     -32.521707     -14.75657      -9.0977346      14607.868    
     42000   416.78357      0.021          0.25297429     0.24894848     0.25534837    -2491.2283      608.84689      608.84689      608.84689      2.2569621e+08  2.074134      -18210703      -18210703       1241.1103     -18209462      -2496.6621     -2456.9305     -2520.0924     -31.981523     -13.492617     -10.480669      14585.479    
     43000   419.41452      0.0215         0.25599585     0.2519972      0.25805723    -2520.1095      609.14505      609.14505      609.14505      2.2602796e+08  2.0710898     -18199198      -18199198       1248.9448     -18197949      -2526.4826     -2487.019      -2546.8269     -31.596128     -12.902942     -12.116335      14598.047    
     44000   422.12049      0.022          0.25885623     0.2550462      0.26026198    -2546.8029      609.44321      609.44321      609.44321      2.2636003e+08  2.0680515     -18187561      -18187561       1257.0027     -18186304      -2554.7124     -2517.1103     -2568.586      -31.338404     -14.371844     -11.801276      14609.732    
     45000   424.86066      0.0225         0.26131108     0.25766716     0.2622725     -2570.1151      609.74137      609.74137      609.74137      2.2669242e+08  2.0650192     -18175806      -18175806       1265.1625     -18174541      -2578.9398     -2542.9772     -2588.4284     -29.975217     -14.612694     -8.0386588      14612.476    
     46000   426.80229      0.023          0.26364588     0.26006678     0.26470906    -2593.7058      610.03954      610.03954      610.03954      2.2702514e+08  2.0619927     -18163934      -18163934       1270.9443     -18162663      -2601.9826     -2566.6596     -2612.4754     -27.63826      -12.144        -4.5252752      14604.516    
     47000   427.39593      0.0235         0.26598196     0.26258362     0.26715299    -2617.7106      610.3377       610.3377       610.3377       2.2735818e+08  2.0589723     -18151933      -18151933       1272.7121     -18150660      -2625.0379     -2591.4989     -2636.595      -25.473661     -9.5435807     -3.4967184      14605.151    
     48000   427.83176      0.024          0.26831514     0.26496692     0.26916497    -2639.8455      610.63586      610.63586      610.63586      2.2769155e+08  2.0559577     -18139813      -18139813       1274.0099     -18138539      -2648.0646     -2615.0202     -2656.4517     -23.977992     -9.2933389     -4.6556456      14579.589    
     49000   428.8974       0.0245         0.27075318     0.26716906     0.27111287    -2661.5186      610.93402      610.93402      610.93402      2.2802525e+08  2.0529489     -18127582      -18127582       1277.1832     -18126304      -2672.1261     -2636.7536     -2675.676      -23.025998     -10.383227     -7.5580501      14596.601    
     50000   430.37447      0.025          0.27318153     0.26943888     0.27328816    -2684.1305      611.23218      611.23218      611.23218      2.2835927e+08  2.0499461     -18115227      -18115227       1281.5817     -18113945      -2696.092      -2659.155      -2697.1444     -21.523065     -10.822731     -8.5839843      14254.186    
     51000   432.47753      0.0255         0.27522081     0.27170766     0.27527735    -2704.8468      611.53035      611.53035      611.53035      2.2869362e+08  2.0469491     -18102758      -18102758       1287.8442     -18101470      -2716.2182     -2681.5462     -2716.7762     -19.71674      -9.7492044     -7.6482224      14582.866    
     52000   435.17438      0.026          0.27720211     0.27406166     0.27711278    -2725.147       611.82851      611.82851      611.82851      2.2902829e+08  2.0439579     -18090194      -18090194       1295.875      -18088898      -2735.7722     -2704.7782     -2734.8905     -18.599879     -8.5865685     -7.3389502      14586.004    
     53000   437.38972      0.0265         0.27933277     0.27645667     0.27912832    -2746.6659      612.12667      612.12667      612.12667      2.2936329e+08  2.0409726     -18077539      -18077539       1302.4719     -18076237      -2756.8001     -2728.4152     -2754.7823     -18.463761     -9.7641611     -6.9976458      14219.25     
     54000   438.46878      0.027          0.28131543     0.27847157     0.28116334    -2766.5115      612.42483      612.42483      612.42483      2.2969862e+08  2.0379931     -18064791      -18064791       1305.6852     -18063486      -2776.3674     -2748.3007     -2774.8664     -18.532812     -11.472128     -5.5577935      14584.027    
     55000   439.18166      0.0275         0.28295644     0.27986433     0.28248065    -2780.8255      612.723        612.723        612.723        2.3003427e+08  2.0350194     -18051944      -18051944       1307.808      -18050636      -2792.5629     -2762.0462     -2787.8673     -17.880205     -11.469115     -5.2482541      14590.706    
     56000   440.39054      0.028          0.2844333      0.28104622     0.28321128    -2791.9756      613.02116      613.02116      613.02116      2.3037025e+08  2.0320514     -18039007      -18039007       1311.4078     -18037696      -2807.1384     -2773.7105     -2795.078      -16.724529     -11.052451     -6.9749226      14603.737    
     57000   441.58289      0.0285         0.28604424     0.28243248     0.28408816    -2804.7204      613.31932      613.31932      613.31932      2.3070656e+08  2.0290892     -18025999      -18025999       1314.9584     -18024684      -2823.0372     -2787.3919     -2803.7322     -15.917144     -11.270313     -7.7897233      14600.023    
     58000   442.08289      0.029          0.28763414     0.28396078     0.28549483    -2819.6061      613.61748      613.61748      613.61748      2.3104319e+08  2.0261328     -18012916      -18012916       1316.4473     -18011600      -2838.7283     -2802.475      -2817.6149     -15.480454     -10.584146     -5.5079693      14605.195    
     59000   442.26009      0.0295         0.28911154     0.28532171     0.28714503    -2834.3722      613.91564      613.91564      613.91564      2.3138015e+08  2.0231821     -17999761      -17999761       1316.975      -17998444      -2853.309      -2815.9064     -2833.9011     -14.622407     -8.8027655     -2.7530065      14607.663    
     60000   442.88607      0.03           0.29020011     0.28643261     0.28843047    -2845.8366      614.21381      614.21381      614.21381      2.3171744e+08  2.0202372     -17986539      -17986539       1318.8391     -17985221      -2864.0524     -2826.8701     -2846.5874     -12.756088     -8.3830429     -3.229149       14579.649    
     61000   444.02256      0.0305         0.29116159     0.28768193     0.28939646    -2856.2875      614.51197      614.51197      614.51197      2.3205506e+08  2.0172979     -17973256      -17973256       1322.2234     -17971934      -2873.5415     -2839.1999     -2856.121      -12.09001      -10.247576     -5.2619594      14595.589    
     62000   445.35409      0.031          0.29217071     0.2892447      0.29043139    -2868.153       614.81013      614.81013      614.81013      2.32393e+08    2.0143644     -17959911      -17959911       1326.1884     -17958585      -2883.5007     -2854.6232     -2866.335      -11.622231     -12.49722      -6.9691939      14569.334    
     63000   446.84564      0.0315         0.29335917     0.2909129      0.291394      -2880.7174      615.10829      615.10829      615.10829      2.3273127e+08  2.0114366     -17946499      -17946499       1330.63       -17945168      -2895.2299     -2871.0871     -2875.8352     -11.427222     -12.765411     -6.6701874      14598.771    
     64000   448.01509      0.032          0.2947851      0.29227878     0.29224655    -2892.7064      615.40645      615.40645      615.40645      2.3306987e+08  2.0085144     -17933018      -17933018       1334.1124     -17931684      -2909.3028     -2884.5673     -2884.2492     -11.734378     -12.089059     -4.7137852      14595.461    
     65000   448.587        0.0325         0.29607297     0.2929855      0.29302637    -2901.8335      615.70462      615.70462      615.70462      2.334088e+08   2.0055978     -17919474      -17919474       1335.8155     -17918138      -2922.0131     -2891.5421     -2891.9454     -10.477718     -11.005168     -2.9470607      14598.823    
     66000   449.04444      0.033          0.29676485     0.29320641     0.29374742    -2907.2084      616.00278      616.00278      616.00278      2.3374806e+08  2.002687      -17905883      -17905883       1337.1777     -17904546      -2928.8413     -2893.7223     -2899.0617     -7.3940888     -9.2682829     -1.935074       14583.124    
     67000   449.48982      0.0335         0.29692743     0.29350998     0.29447925    -2911.1495      616.30094      616.30094      616.30094      2.3408764e+08  1.9997817     -17892261      -17892261       1338.5039     -17890922      -2930.4459     -2896.7183     -2906.2842     -4.5777821     -7.9481428     -1.444142       14567.23     
     68000   449.8793       0.034          0.29716874     0.2944087      0.29511427    -2916.9889      616.5991       616.5991       616.5991       2.3442756e+08  1.9968821     -17878606      -17878606       1339.6637     -17877266      -2932.8274     -2905.588      -2912.5514     -3.5953592     -7.6737889     -2.3237537      14560.585    
     69000   449.78559      0.0345         0.2978367      0.29586961     0.29552409    -2925.3405      616.89726      616.89726      616.89726      2.347678e+08   1.993988      -17864902      -17864902       1339.3847     -17863563      -2939.4197     -2920.006      -2916.596      -4.0849549     -7.8485776     -3.714868       14448.82     
     70000   449.63842      0.035          0.29875474     0.29703233     0.29543705    -2931.8994      617.19543      617.19543      617.19543      2.3510837e+08  1.9910996     -17851150      -17851150       1338.9464     -17849811      -2948.4801     -2931.4812     -2915.7369     -4.4833805     -9.3556726     -3.8308498      14576.173    
     71000   450.48647      0.0355         0.29934593     0.29752797     0.29529284    -2935.0004      617.49359      617.49359      617.49359      2.3544927e+08  1.9882167     -17837369      -17837369       1341.4718     -17836027      -2954.3146     -2936.3727     -2914.3138     -4.0753913     -10.221783     -3.1216621      14523.129    
     72000   452.00977      0.036          0.2994055      0.29739541     0.29560422    -2935.7846      617.79175      617.79175      617.79175      2.3579051e+08  1.9853394     -17823574      -17823574       1346.0079     -17822228      -2954.9026     -2935.0645     -2917.3868     -3.0780231     -8.4243051     -2.3620928      14552.824    
     73000   452.91903      0.0365         0.29950132     0.29723371     0.29655158    -2938.6845      618.08991      618.08991      618.08991      2.3613207e+08  1.9824677     -17809756      -17809756       1348.7155     -17808407      -2955.8482     -2933.4686     -2926.7365     -2.0755648     -6.4199654     -2.2672422      14586.508    
     74000   452.98778      0.037          0.29984085     0.29741097     0.2972551     -2942.699       618.38807      618.38807      618.38807      2.3647396e+08  1.9796015     -17795907      -17795907       1348.9203     -17794558      -2959.1991     -2935.218      -2933.6798     -1.4749339     -6.5944939     -2.7351621      14567.942    
     75000   453.08277      0.0375         0.30011241     0.29786374     0.29707759    -2944.4979      618.68624      618.68624      618.68624      2.3681618e+08  1.9767408     -17782037      -17782037       1349.2031     -17780688      -2961.8792     -2939.6866     -2931.9278     -0.15685158    -7.5896075     -3.0268676      14582.633    
     76000   452.806        0.038          0.30018623     0.29829684     0.29672774    -2945.0146      618.9844       618.9844       618.9844       2.3715873e+08  1.9738856     -17768158      -17768158       1348.3789     -17766810      -2962.6077     -2943.961      -2928.4751      1.873972      -8.6744919     -2.4299379      14571.689    
     77000   451.70765      0.0385         0.30009077     0.29834359     0.29652675    -2944.1931      619.28256      619.28256      619.28256      2.3750161e+08  1.9710359     -17754259      -17754259       1345.1082     -17752914      -2961.6656     -2944.4223     -2926.4915      4.0069259     -9.8257462     -0.48808748     14557.774    
     78000   450.86262      0.039          0.29991656     0.29808488     0.29619898    -2941.6907      619.58072      619.58072      619.58072      2.3784482e+08  1.9681917     -17740341      -17740341       1342.5919     -17738998      -2959.9463     -2941.8691     -2923.2566      5.6493418     -9.6603455      0.34996532     14579.401    
     79000   451.13774      0.0395         0.29954365     0.29782853     0.29587253    -2938.5466      619.87888      619.87888      619.87888      2.3818836e+08  1.9653529     -17726429      -17726429       1343.4112     -17725085      -2956.266      -2939.3391     -2920.0348      7.2711684     -8.0576548     -0.14498685     14566.682    
     80000   451.95993      0.04           0.29926041     0.29765099     0.29571771    -2936.5215      620.17705      620.17705      620.17705      2.3853223e+08  1.9625197     -17712528      -17712528       1345.8595     -17711182      -2953.4706     -2937.5869     -2918.5069      8.359045      -5.5892039     -0.79100871     14583.676    
     81000   451.95853      0.0405         0.29920623     0.29760218     0.29548368    -2935.4128      620.47521      620.47521      620.47521      2.3887643e+08  1.9596918     -17698623      -17698623       1345.8553     -17697277      -2952.9359     -2937.1052     -2916.1972      6.8485754     -4.9213397     -2.2325091      14573.849    
     82000   451.30751      0.041          0.29904428     0.29748559     0.29474381    -2932.0624      620.77337      620.77337      620.77337      2.3922096e+08  1.9568694     -17684714      -17684714       1343.9167     -17683370      -2951.3376     -2935.9545     -2908.8953      5.5774134     -5.9142465     -2.8275765      14559.63     
     83000   450.96018      0.0415         0.29852913     0.29708513     0.29393339    -2926.3842      621.07153      621.07153      621.07153      2.3956583e+08  1.9540524     -17670815      -17670815       1342.8824     -17669472      -2946.2534     -2932.0023     -2900.897       6.9162486     -6.7824645     -1.9319035      14582.814    
     84000   450.82123      0.042          0.29779794     0.29635775     0.293573      -2920.4003      621.36969      621.36969      621.36969      2.3991102e+08  1.9512408     -17656928      -17656928       1342.4686     -17655586      -2939.0372     -2924.8236     -2897.3402      10.350066     -6.3293125     -2.3811843      14598.157    
     85000   450.17704      0.0425         0.29739481     0.29578593     0.29352149    -2917.0235      621.66786      621.66786      621.66786      2.4025655e+08  1.9484346     -17643047      -17643047       1340.5503     -17641706      -2935.0586     -2919.1801     -2896.8319      12.930532     -5.3759511     -3.4121572      14597.39     
     86000   449.12097      0.043          0.29702928     0.29543223     0.29304075    -2913.0759      621.96602      621.96602      621.96602      2.4060241e+08  1.9456338     -17629173      -17629173       1337.4056     -17627836      -2931.451      -2915.6894     -2892.0874      14.030907     -5.0593464     -4.1093407      14592.177    
     87000   448.66587      0.0435         0.29623562     0.29466827     0.29200471    -2904.5435      622.26418      622.26418      622.26418      2.409486e+08   1.9428384     -17615323      -17615323       1336.0503     -17613987      -2923.6183     -2908.1497     -2881.8624      13.965324     -5.4585049     -3.6623843      14582.536    
     88000   448.79161      0.044          0.29503388     0.29377513     0.29097458    -2894.263       622.56234      622.56234      622.56234      2.4129512e+08  1.9400483     -17601513      -17601513       1336.4248     -17600176      -2911.758      -2899.3351     -2871.6958      13.457231     -4.4886299     -2.4241441      14566.45     
     89000   448.4362       0.0445         0.29402286     0.29337908     0.29015899    -2886.951       622.8605       622.8605       622.8605       2.4164198e+08  1.9372635     -17587731      -17587731       1335.3664     -17586396      -2901.78       -2895.4264     -2863.6466      12.584727     -1.5417528     -1.4836311      14586.836    
     90000   447.00618      0.045          0.2934367      0.29322597     0.28950356    -2882.3628      623.15867      623.15867      623.15867      2.4198916e+08  1.9344841     -17573951      -17573951       1331.1081     -17572619      -2895.9951     -2893.9153     -2857.178       11.997469     -0.7670241     -2.0886059      14579.634    
     91000   445.34669      0.0455         0.29259606     0.29264854     0.28877782    -2875.3102      623.45683      623.45683      623.45683      2.4233668e+08  1.93171       -17560171      -17560171       1326.1664     -17558844      -2887.6986     -2888.2166     -2850.0155      13.237406     -2.7139377     -4.0442021      14583.706    
     92000   444.64608      0.046          0.29134542     0.291479       0.28781049    -2864.1661      623.75499      623.75499      623.75499      2.4268453e+08  1.9289412     -17546429      -17546429       1324.0801     -17545105      -2875.3557     -2876.674      -2840.4687      15.892954     -3.9246711     -4.196186       14562.044    
     93000   444.85302      0.0465         0.28999546     0.29007444     0.28673503    -2851.5665      624.05315      624.05315      624.05315      2.4303272e+08  1.9261776     -17532752      -17532752       1324.6963     -17531428      -2862.0327     -2862.8122     -2829.8547      17.591912     -2.8850838     -3.0315392      14575.655    
     94000   445.08758      0.047          0.28884464     0.28870485     0.28572327    -2839.9466      624.35131      624.35131      624.35131      2.4338124e+08  1.9234194     -17519132      -17519132       1325.3948     -17517807      -2850.6749     -2849.2954     -2819.8694      18.551981     -2.3445417     -2.7534153      14556.547    
     95000   444.56986      0.0475         0.2879446      0.28755427     0.28470836    -2829.8618      624.64948      624.64948      624.64948      2.4373009e+08  1.9206664     -17505544      -17505544       1323.8531     -17504220      -2841.7923     -2837.94       -2809.8531      18.858009     -2.5895132     -4.2155171      14537.358    
     96000   443.1835       0.048          0.28702333     0.28648366     0.28364566    -2819.813       624.94764      624.94764      624.94764      2.4407927e+08  1.9179187     -17491983      -17491983       1319.7248     -17490663      -2832.7        -2827.3739     -2799.365       18.866209     -1.9937041     -5.557272       14567.225    
     97000   441.5757       0.0485         0.28580209     0.28545145     0.28255612    -2808.8154      625.2458       625.2458       625.2458       2.4442879e+08  1.9151762     -17478460      -17478460       1314.937      -17477145      -2820.6473     -2817.1867     -2788.6121      18.982452     -0.61274935    -5.890623       14568.778    
     98000   440.32936      0.049          0.28437571     0.28473675     0.28139294    -2797.9452      625.54396      625.54396      625.54396      2.4477864e+08  1.9124389     -17464978      -17464978       1311.2256     -17463667      -2806.5701     -2810.1333     -2777.1324      19.669411     -0.16247815    -5.5194565      14587.015    
     99000   439.21616      0.0495         0.28286965     0.28383611     0.2803085     -2786.4603      625.84212      625.84212      625.84212      2.4512882e+08  1.9097069     -17451537      -17451537       1307.9107     -17450229      -2791.7064     -2801.2446     -2766.4298      19.913749      0.073115992   -5.7932478      14586.297    
    100000   437.89227      0.05           0.28143625     0.28233424     0.27908701    -2772.7856      626.14029      626.14029      626.14029      2.4547934e+08  1.90698       -17438139      -17438139       1303.9684     -17436835      -2777.5598     -2786.4223     -2754.3746      19.024504     -0.77877428    -6.6212266      14039.225    
    101000   436.49953      0.0505         0.27984642     0.2804572      0.27739931    -2755.8284      626.43845      626.43845      626.43845      2.4583019e+08  1.9042583     -17424801      -17424801       1299.8211     -17423501      -2761.8694     -2767.8974     -2737.7183      18.121026     -2.0750213     -6.9932319      14526.955    
    102000   435.51778      0.051          0.27797165     0.27868988     0.27573996    -2738.388       626.73661      626.73661      626.73661      2.4618138e+08  1.9015418     -17411533      -17411533       1296.8976     -17410237      -2743.3669     -2750.4553     -2721.3418      19.035946     -2.4401039     -6.4233715      14569.177    
    103000   434.6813       0.0515         0.27631025     0.27726945     0.27447316    -2724.0821      627.03477      627.03477      627.03477      2.465329e+08   1.8988305     -17398337      -17398337       1294.4067     -17397043      -2726.9701     -2736.4367     -2708.8394      20.949621     -0.74268282    -6.9683688      14571.069    
    104000   433.6375       0.052          0.27508167     0.27610898     0.27324702    -2712.1891      627.33294      627.33294      627.33294      2.4688475e+08  1.8961244     -17385195      -17385195       1291.2984     -17383904      -2714.845      -2724.9838     -2696.7385      22.067257      1.7633308     -9.1430869      14559.947    
    105000   432.31644      0.0525         0.27395666     0.27480396     0.27174973    -2699.2692      627.6311       627.6311       627.6311       2.4723694e+08  1.8934233     -17372098      -17372098       1287.3645     -17370810      -2703.742      -2712.1043     -2681.9614      22.102936      2.635158      -10.688224      14572.793    
    106000   430.97218      0.053          0.27250004     0.27327409     0.2701813     -2684.2846      627.92926      627.92926      627.92926      2.4758946e+08  1.8907274     -17359049      -17359049       1283.3616     -17357765      -2689.3663     -2697.0055     -2666.4821      22.306682      1.6144491     -10.092305      14564.314    
    107000   429.28246      0.0535         0.27084407     0.27178523     0.26887066    -2669.6273      628.22742      628.22742      628.22742      2.4794232e+08  1.8880366     -17346058      -17346058       1278.3299     -17344780      -2673.0232     -2682.3117     -2653.5471      23.009823      0.38385714    -9.1931763      14553.488    
    108000   427.29586      0.054          0.26904174     0.2701472      0.26745354    -2653.6474      628.52558      628.52558      628.52558      2.4829552e+08  1.8853509     -17333136      -17333136       1272.4141     -17331863      -2655.2355     -2666.1455     -2639.5612      23.818631     -0.69695039    -9.5138458      14573.519    
    109000   425.96583      0.0545         0.2670505      0.26823175     0.2656425     -2634.8376      628.82375      628.82375      628.82375      2.4864905e+08  1.8826703     -17320282      -17320282       1268.4535     -17319013      -2635.5835     -2647.2415     -2621.6876      23.670872     -1.4331654     -11.177013      14569.709    
    110000   425.05597      0.055          0.26523745     0.26636163     0.26390994    -2617.0212      629.12191      629.12191      629.12191      2.4900291e+08  1.8799948     -17307503      -17307503       1265.7441     -17306237      -2617.6901     -2628.7849     -2604.5886      22.575996     -2.9203876     -12.441739      14556.948    
    111000   423.9537       0.0555         0.26390721     0.26487001     0.26245335    -2602.9462      629.42007      629.42007      629.42007      2.4935711e+08  1.8773244     -17294791      -17294791       1262.4617     -17293529      -2604.5616     -2614.0638     -2590.2132      22.993117     -3.2996659     -13.161654      14561.113    
    112000   422.66197      0.056          0.26261344     0.26366728     0.26087588    -2589.5439      629.71823      629.71823      629.71823      2.4971165e+08  1.874659      -17282135      -17282135       1258.6152     -17280877      -2591.7931     -2602.1938     -2574.6447      25.362932     -1.0358278     -13.456214      14568.32     
    113000   421.49209      0.0565         0.26094541     0.26215583     0.25922055    -2573.6386      630.01639      630.01639      630.01639      2.5006652e+08  1.8719986     -17269536      -17269536       1255.1315     -17268281      -2575.3309     -2587.2769     -2558.308       25.365479      1.9310221     -13.849391      14554.001    
    114000   420.28042      0.057          0.25887787     0.26000265     0.25756081    -2554.2934      630.31456      630.31456      630.31456      2.5042173e+08  1.8693433     -17257018      -17257018       1251.5233     -17255766      -2554.9259     -2566.0266     -2541.9275      22.480375      2.1771762     -15.291565      14569.224    
    115000   419.00045      0.0575         0.25660509     0.25773869     0.25576593    -2533.464       630.61272      630.61272      630.61272      2.5077727e+08  1.866693      -17244590      -17244590       1247.7118     -17243342      -2532.4953     -2543.6831     -2524.2135      20.160461     -0.053243415   -16.140651      14574.938    
    116000   417.40034      0.058          0.25452961     0.25578198     0.25398639    -2514.3449      630.91088      630.91088      630.91088      2.5113315e+08  1.8640477     -17232243      -17232243       1242.9469     -17231000      -2512.0119     -2524.3719     -2506.6508      20.68721      -2.0353161     -14.486504      14490.342    
    117000   415.18265      0.0585         0.25279768     0.25421302     0.25241861    -2498.3282      631.20904      631.20904      631.20904      2.5148937e+08  1.8614075     -17219958      -17219958       1236.343      -17218722      -2494.9191     -2508.8874     -2491.178       22.510677     -1.9582332     -12.728826      14559.805    
    118000   412.80129      0.059          0.25123829     0.25272149     0.25087507    -2483.2136      631.5072       631.5072       631.5072       2.5184592e+08  1.8587721     -17207734      -17207734       1229.2518     -17206505      -2479.5291     -2494.1672     -2475.9445      22.270868     -1.8909402     -13.168164      14540.593    
    119000   411.1727       0.0595         0.24968563     0.25091952     0.24903365    -2466.1199      631.80537      631.80537      631.80537      2.5220282e+08  1.8561418     -17195586      -17195586       1224.4021     -17194362      -2464.2056     -2476.3831     -2457.771       21.11998      -2.3609504     -14.305859      14490.158    
    120000   409.99375      0.06           0.24808572     0.24911987     0.24714006    -2448.7068      632.10353      632.10353      632.10353      2.5256004e+08  1.8535164     -17183516      -17183516       1220.8914     -17182295      -2448.4157     -2458.6219     -2439.0827      20.969787     -2.423843      -15.353107      14524.709    
    121000   408.58295      0.0605         0.24634833     0.24745126     0.2453057     -2431.4674      632.40169      632.40169      632.40169      2.5291761e+08  1.850896      -17171508      -17171508       1216.6902     -17170292      -2431.269      -2442.1541     -2420.979       21.870337     -2.2947521     -16.116795      14563.221    
    122000   407.15157      0.061          0.24429842     0.24569226     0.24358331    -2413.2708      632.69985      632.69985      632.69985      2.5327551e+08  1.8482805     -17159570      -17159570       1212.4279     -17158357      -2411.0379     -2424.7941     -2403.9804      22.184447     -3.5818769     -17.221335      14566.283    
    123000   406.0004       0.0615         0.24205047     0.24399543     0.24199047    -2395.0534      632.99801      632.99801      632.99801      2.5363375e+08  1.8456699     -17147720      -17147720       1208.9999     -17146511      -2388.8524     -2408.0477     -2388.2603      21.687611     -3.8813499     -18.553629      14563.541    
    124000   404.78185      0.062          0.24009308     0.24237325     0.24028291    -2377.6601      633.29618      633.29618      633.29618      2.5399233e+08  1.8430643     -17135958      -17135958       1205.3712     -17134753      -2369.5345     -2392.038      -2371.4079      20.392267     -2.4053153     -18.163658      14557.126    
    125000   403.0834       0.0625         0.23854371     0.24063396     0.23862063    -2361.3728      633.59434      633.59434      633.59434      2.5435124e+08  1.8404635     -17124261      -17124261       1200.3135     -17123061      -2354.2433     -2374.8725     -2355.0025      18.606959     -1.4100243     -15.738985      14565.549    
    126000   400.76989      0.063          0.23689603     0.23896353     0.2370878     -2345.4145      633.8925       633.8925       633.8925       2.547105e+08   1.8378677     -17112616      -17112616       1193.4243     -17111422      -2337.982      -2358.3867     -2339.8747      17.271998     -2.6479339     -12.706029      14536.641    
    127000   398.56006      0.0635         0.23499711     0.23732682     0.23527641    -2327.8241      634.19066      634.19066      634.19066      2.5507009e+08  1.8352767     -17101036      -17101036       1186.8438     -17099850      -2319.2412     -2342.2336     -2321.9976      16.626734     -5.0072485     -11.227915      14575.68     
    128000   397.28546      0.064          0.23305735     0.23548157     0.23312967    -2308.3102      634.48882      634.48882      634.48882      2.5543002e+08  1.8326906     -17089550      -17089550       1183.0483     -17088367      -2300.0972     -2324.0224     -2300.8109      16.624261     -7.0392915     -11.852249      14576.168    
    129000   396.38332      0.0645         0.2312992      0.2334013      0.23130707    -2289.6869      634.78699      634.78699      634.78699      2.5579028e+08  1.8301093     -17078155      -17078155       1180.3618     -17076974      -2282.7456     -2303.4917     -2282.8233      16.057764     -7.6484696     -13.968231      14564.353    
    130000   394.69306      0.065          0.22975027     0.23127021     0.2299801     -2273.2152      635.08515      635.08515      635.08515      2.5615089e+08  1.8275329     -17066827      -17066827       1175.3285     -17065651      -2267.4589     -2282.4595     -2269.7272      15.260115     -6.5614545     -16.115132      14517.311    
    131000   392.41653      0.0655         0.22824368     0.22949806     0.22853303    -2257.6684      635.38331      635.38331      635.38331      2.5651184e+08  1.8249614     -17055558      -17055558       1168.5494     -17054390      -2252.5899     -2264.9698     -2255.4456      14.395333     -5.2409046     -17.150895      14539.478    
    132000   390.39598      0.066          0.22666846     0.22815008     0.22681323    -2242.3942      635.68147      635.68147      635.68147      2.5687312e+08  1.8223946     -17044354      -17044354       1162.5326     -17043192      -2237.0437     -2251.6662     -2238.4725      14.532997     -3.865134      -18.069404      14573.358    
    133000   388.94203      0.0665         0.22488139     0.2269538      0.22503087    -2226.7162      635.97963      635.97963      635.97963      2.5723474e+08  1.8198327     -17033219      -17033219       1158.2029     -17032061      -2219.4068     -2239.8599     -2220.882       14.216727     -2.6503757     -17.052707      14548.753    
    134000   387.80532      0.067          0.22300332     0.22557192     0.22338703    -2210.584       636.2778       636.2778       636.2778       2.5759671e+08  1.8172755     -17022151      -17022151       1154.818      -17020996      -2200.8717     -2226.2217     -2204.6586      12.589313     -2.752845      -14.566766      14550.326    
    135000   386.62902      0.0675         0.2213374      0.22400211     0.22180862    -2194.7467      636.57596      636.57596      636.57596      2.5795901e+08  1.8147232     -17011145      -17011145       1151.3152     -17009994      -2184.4303     -2210.729      -2189.0808      11.492195     -4.0413038     -13.255135      14533.755    
    136000   385.33572      0.068          0.2198937      0.22228387     0.22041958    -2179.7751      636.87412      636.87412      636.87412      2.5832165e+08  1.8121756     -17000209      -17000209       1147.464      -16999062      -2170.1821     -2193.7712     -2175.3721      12.044166     -5.208166      -13.498695      14545.114    
    137000   383.91643      0.0685         0.21838844     0.22043984     0.21905995    -2164.284       637.17228      637.17228      637.17228      2.5868463e+08  1.8096328     -16989343      -16989343       1143.2376     -16988200      -2155.3263     -2175.5721     -2161.9536      13.195358     -6.070025      -14.176734      14518.942    
    138000   382.34772      0.069          0.21677718     0.21864227     0.21754911    -2148.0995      637.47044      637.47044      637.47044      2.5904795e+08  1.8070947     -16978544      -16978544       1138.5662     -16977405      -2139.4244     -2157.8314     -2147.0428      13.300785     -7.8273461     -15.383011      14546.722    
    139000   380.65014      0.0695         0.21513978     0.2171226      0.21589034    -2132.2567      637.76861      637.76861      637.76861      2.5941161e+08  1.8045614     -16967807      -16967807       1133.5111     -16966674      -2123.2645     -2142.8335     -2130.672       12.312442     -9.4670879     -16.167626      14551.194    
    140000   379.07998      0.07           0.21376106     0.21581653     0.21412595    -2117.62        638.06677      638.06677      638.06677      2.5977561e+08  1.8020328     -16957130      -16957130       1128.8355     -16956001      -2109.6577     -2129.9435     -2113.2588      10.655691     -8.7525708     -15.549138      14560.904    
    141000   377.73261      0.0705         0.21256042     0.21448355     0.21265108    -2104.4331      638.36493      638.36493      638.36493      2.6013996e+08  1.799509      -16946514      -16946514       1124.8232     -16945389      -2097.8083     -2116.7881     -2098.703       8.7585018     -5.9763711     -13.622095      14518.126    
    142000   376.27538      0.071          0.21124581     0.21311158     0.21160434    -2092.1514      638.66309      638.66309      638.66309      2.6050464e+08  1.7969898     -16935958      -16935958       1120.4838     -16934837      -2084.834      -2103.2477     -2088.3725      7.918947      -4.5105259     -12.27424       14525.334    
    143000   374.66632      0.0715         0.20964637     0.2115362      0.21047488    -2077.9915      638.96125      638.96125      638.96125      2.6086966e+08  1.7944754     -16925454      -16925454       1115.6923     -16924338      -2069.0488     -2087.7        -2077.2256      8.655928      -4.9429544     -11.491776      14538.518    
    144000   373.3633       0.072          0.20799439     0.20971186     0.20902015    -2061.7695      639.25942      639.25942      639.25942      2.6123502e+08  1.7919656     -16915007      -16915007       1111.8121     -16913896      -2052.745      -2069.6951     -2062.8685      9.4666389     -5.5969605     -10.450845      14552.06     
    145000   372.17393      0.0725         0.20653737     0.20799274     0.20756756    -2046.5422      639.55758      639.55758      639.55758      2.6160073e+08  1.7894606     -16904629      -16904629       1108.2704     -16903520      -2038.3653     -2052.7288     -2048.5325      8.290397      -6.5336485     -11.316645      14559.221    
    146000   370.88088      0.073          0.20521813     0.20672939     0.2062847     -2033.8259      639.85574      639.85574      639.85574      2.6196677e+08  1.7869602     -16894307      -16894307       1104.4199     -16893202      -2025.3455     -2040.2604     -2035.8717      7.567384      -6.6609428     -13.557313      14561.258    
    147000   369.2156       0.0735         0.20405747     0.20577765     0.20515107    -2023.1473      640.1539       640.1539       640.1539       2.6233316e+08  1.7844644     -16884030      -16884030       1099.461      -16882931      -2013.8907     -2030.8675     -2024.6837      8.8339277     -5.2897981     -15.296303      14552.065    
    148000   367.42456      0.074          0.20291733     0.20483452     0.20387642    -2012.1005      640.45206      640.45206      640.45206      2.6269989e+08  1.7819733     -16873795      -16873795       1094.1276     -16872701      -2002.6383     -2021.5595     -2012.1038      10.276788     -4.4516118     -16.017492      14556.667    
    149000   366.16441      0.0745         0.20172511     0.20365099     0.20232413    -1999.1783      640.75023      640.75023      640.75023      2.6306696e+08  1.7794868     -16863616      -16863616       1090.3751     -16862526      -1990.872      -2009.879      -1996.7839      10.334926     -4.8892376     -14.996949      14546.234    
    150000   365.6508       0.075          0.20041735     0.20216717     0.20100183    -1985.6447      641.04839      641.04839      641.04839      2.6343437e+08  1.777005      -16853500      -16853500       1088.8456     -16852411      -1977.9655     -1995.2349     -1983.7338      8.5578943     -6.2383623     -12.908022      14232.225    
    151000   365.16223      0.0755         0.19907127     0.20068518     0.2001873     -1973.6615      641.34655      641.34655      641.34655      2.6380213e+08  1.7745277     -16843437      -16843437       1087.3908     -16842349      -1964.6807     -1980.6087     -1975.695       6.4931956     -8.5019638     -11.27342       14539.191    
    152000   364.28359      0.076          0.19791236     0.19942237     0.19951721    -1963.4902      641.64471      641.64471      641.64471      2.6417022e+08  1.7720551     -16833412      -16833412       1084.7743     -16832328      -1953.2431     -1968.1458     -1969.0818      5.3714984     -10.241687     -9.7023542      14537.352    
    153000   363.38021      0.0765         0.197023       0.19841534     0.19871155    -1954.6012      641.94288      641.94288      641.94288      2.6453866e+08  1.7695871     -16823426      -16823426       1082.0842     -16822344      -1944.4658     -1958.2071     -1961.1305      5.9263892     -9.6320604     -8.3959735      14511.365    
    154000   362.55552      0.077          0.19629665     0.19749717     0.1977232     -1945.9397      642.24104      642.24104      642.24104      2.6490744e+08  1.7671236     -16813480      -16813480       1079.6284     -16812400      -1937.2973     -1949.1455     -1951.3763      7.8036066     -7.8503153     -8.5429458      14545.073    
    155000   361.39757      0.0775         0.19532033     0.1965532      0.19651959    -1935.6629      642.5392       642.5392       642.5392       2.6527656e+08  1.7646647     -16803568      -16803568       1076.1803     -16802492      -1927.6617     -1939.8293     -1939.4976      8.3145405     -7.2784951     -10.245239      14525.677    
    156000   360.29182      0.078          0.19386717     0.19550196     0.19506304    -1922.6324      642.83736      642.83736      642.83736      2.6564603e+08  1.7622104     -16793704      -16793704       1072.8875     -16792631      -1913.3203     -1929.4543     -1925.1225      6.6037724     -7.6298585     -11.690037      14524.612    
    157000   359.58419      0.0785         0.19245903     0.19443368     0.19356941    -1909.5719      643.13552      643.13552      643.13552      2.6601584e+08  1.7597606     -16783895      -16783895       1070.7803     -16782824      -1899.4229     -1918.9112     -1910.3816      5.0040306     -8.2458571     -12.497969      14520.057    
    158000   358.4253       0.079          0.19166939     0.19342595     0.19261478    -1900.5185      643.43369      643.43369      643.43369      2.6638599e+08  1.7573153     -16774127      -16774127       1067.3294     -16773060      -1891.6298     -1908.9657     -1900.9601      5.7153684     -7.228552      -12.566065      14536.188    
    159000   356.75626      0.0795         0.19103014     0.19226981     0.1918505     -1892.0979      643.73185      643.73185      643.73185      2.6675649e+08  1.7548746     -16764392      -16764392       1062.3592     -16763329      -1885.3209     -1897.5554     -1893.4172      7.8985621     -5.3522901     -11.95366       14514.439    
    160000   355.53332      0.08           0.19012123     0.19100221     0.1907738     -1881.3957      644.03001      644.03001      644.03001      2.6712732e+08  1.7524384     -16754698      -16754698       1058.7175     -16753640      -1876.3507     -1885.0453     -1882.791       8.2873683     -4.6488942     -10.515544      14499.114    
    161000   354.73852      0.0805         0.18915809     0.18985847     0.18980538    -1871.2787      644.32817      644.32817      644.32817      2.6749851e+08  1.7500067     -16745049      -16745049       1056.3507     -16743992      -1866.8452     -1873.7574     -1873.2334      6.828608      -6.5001732     -9.2040397      14518.172    
    162000   354.13364      0.081          0.18826047     0.18896804     0.18912526    -1863.1591      644.62633      644.62633      644.62633      2.6787003e+08  1.7475795     -16735429      -16735429       1054.5495     -16734375      -1857.9864     -1864.9695     -1866.5212      6.5093984     -8.709084      -7.8411231      14536.279    
    163000   353.6998       0.0815         0.18739303     0.18834702     0.18850771    -1856.2308      644.9245       644.9245       644.9245       2.682419e+08   1.7451568     -16725842      -16725842       1053.2576     -16724789      -1849.4254     -1858.8405     -1860.4264      6.5408784     -8.8499083     -6.8093787      14531.732    
    164000   353.09545      0.082          0.18648157     0.18771005     0.18760907    -1848.1806      645.22266      645.22266      645.22266      2.6861411e+08  1.7427386     -16716289      -16716289       1051.4579     -16715238      -1840.4301     -1852.5542     -1851.5576      5.4387172     -6.9315696     -6.8081188      14528.389    
    165000   351.85368      0.0825         0.18571308     0.18688262     0.18653219    -1839.3877      645.52082      645.52082      645.52082      2.6898667e+08  1.7403248     -16706762      -16706762       1047.7602     -16705714      -1832.8456     -1844.3881     -1840.9296      4.2213539     -4.9828689     -7.4855227      14558.13     
    166000   350.03027      0.083          0.18498382     0.18587883     0.18550521    -1830.308       645.81898      645.81898      645.81898      2.6935957e+08  1.7379155     -16697260      -16697260       1042.3304     -16696217      -1825.6484     -1834.4815     -1830.7941      3.6038843     -4.718393      -7.2024844      14518.221    
    167000   348.63423      0.0835         0.18408866     0.18483449     0.18472149    -1821.3492      646.11714      646.11714      646.11714      2.6973282e+08  1.7355107     -16687789      -16687789       1038.1732     -16686750      -1816.8138     -1824.1746     -1823.0593      3.574768      -6.4249534     -6.0781055      14545.389    
    168000   348.25353      0.084          0.18303458     0.18380014     0.18406005    -1812.3029      646.41531      646.41531      646.41531      2.7010641e+08  1.7331102     -16678361      -16678361       1037.0395     -16677324      -1806.4109     -1813.9663     -1816.5315      4.6624125     -8.0350404     -5.3770866      14543.892    
    169000   348.12571      0.0845         0.18202751     0.18282153     0.18341068    -1803.6343      646.71347      646.71347      646.71347      2.7048035e+08  1.7307142     -16668981      -16668981       1036.6589     -16667944      -1796.4718     -1804.3083     -1810.1227      6.1762637     -7.9432103     -6.2483344      14540.555    
    170000   347.65823      0.085          0.1812853      0.18206733     0.18263243    -1796.1512      647.01163      647.01163      647.01163      2.7085463e+08  1.7283226     -16659632      -16659632       1035.2668     -16658597      -1789.1468     -1796.8648     -1802.4419      6.7484811     -6.3384139     -7.7212968      14524.161    
    171000   347.09894      0.0855         0.18080801     0.18173416     0.18172545    -1790.5012      647.30979      647.30979      647.30979      2.7122925e+08  1.7259355     -16650299      -16650299       1033.6014     -16649266      -1784.4363     -1793.5767     -1793.4908      6.633773      -3.9567597     -7.6236468      14512.535    
    172000   346.86038      0.086          0.18040655     0.18150963     0.18084129    -1785.5333      647.60795      647.60795      647.60795      2.7160423e+08  1.7235527     -16640985      -16640985       1032.891      -16639952      -1780.4742     -1791.3608     -1784.7648      7.6840718     -2.9073214     -6.1023632      14540.477    
    173000   346.97768      0.0865         0.17987754     0.18095146     0.18032289    -1780.2513      647.90612      647.90612      647.90612      2.7197954e+08  1.7211743     -16631696      -16631696       1033.2403     -16630663      -1775.2533     -1785.852      -1779.6485      8.4293769     -4.3011812     -5.3227703      14521.511    
    174000   346.78204      0.087          0.17927917     0.18000484     0.18003854    -1774.2333      648.20428      648.20428      648.20428      2.723552e+08   1.7188002     -16622427      -16622427       1032.6577     -16621395      -1769.3479     -1776.5097     -1776.8422      6.0193448     -6.709113      -5.6396604      14539.716    
    175000   346.11428      0.0875         0.17864401     0.17893497     0.17950913    -1766.8825      648.50244      648.50244      648.50244      2.7273121e+08  1.7164306     -16613178      -16613178       1030.6692     -16612147      -1763.0793     -1765.9509     -1771.6174      2.3070174     -8.5882424     -6.4505677      14543.444    
    176000   345.15128      0.088          0.17781884     0.17790388     0.17869018    -1758.0817      648.8006       648.8006       648.8006       2.7310757e+08  1.7140652     -16603960      -16603960       1027.8016     -16602932      -1754.9355     -1755.7748     -1763.5349      1.0263433     -8.8878622     -7.2289473      14527.898    
    177000   344.09528      0.0885         0.1768841      0.17710654     0.17773665    -1749.2467      649.09876      649.09876      649.09876      2.7348427e+08  1.7117043     -16594774      -16594774       1024.657      -16593749      -1745.7103     -1747.9056     -1754.1243      2.2156887     -6.979208      -6.6117406      14513.401    
    178000   343.06171      0.089          0.17592289     0.17661822     0.17687173    -1741.6328      649.39693      649.39693      649.39693      2.7386131e+08  1.7093476     -16585623      -16585623       1021.5792     -16584602      -1736.2239     -1743.0863     -1745.5883      4.0653596     -4.3376677     -5.4218291      14550.558    
    179000   341.99833      0.0895         0.17510483     0.17617461     0.17606646    -1734.8331      649.69509      649.69509      649.69509      2.7423871e+08  1.7069953     -16576500      -16576500       1018.4126     -16575482      -1728.1503     -1738.7082     -1737.6408      5.2795267     -2.7025497     -4.0966448      14540.473    
    180000   341.20427      0.09           0.17437129     0.17560635     0.17526225    -1727.9049      649.99325      649.99325      649.99325      2.7461644e+08  1.7046473     -16567403      -16567403       1016.0481     -16566387      -1720.9108     -1733.1        -1729.7039      6.0719992     -3.5428944     -2.8011357      14510.047    
    181000   340.93393      0.0905         0.1737817      0.17487876     0.17467045    -1721.6248      650.29141      650.29141      650.29141      2.7499453e+08  1.7023036     -16558328      -16558328       1015.243      -16557312      -1715.092      -1725.9192     -1723.8633      6.3119694     -6.2287579     -2.9408354      14533.602    
    182000   341.15983      0.091          0.17351819     0.17424114     0.17425677    -1717.2995      650.58957      650.58957      650.58957      2.7537296e+08  1.6999642     -16549268      -16549268       1015.9157     -16548253      -1712.4914     -1719.6264     -1719.7806      6.564034      -7.7145194     -4.403945       14523.895    
    183000   341.74368      0.0915         0.17347855     0.17390039     0.17394168    -1715.0115      650.88774      650.88774      650.88774      2.7575174e+08  1.6976291     -16540223      -16540223       1017.6543     -16539206      -1712.1002     -1716.2634     -1716.6709      6.0594961     -6.9032541     -5.9355444      14520.012    
    184000   342.00807      0.092          0.17336225     0.17356868     0.17351957    -1712.149       651.1859       651.1859       651.1859       2.7613087e+08  1.6952983     -16531191      -16531191       1018.4416     -16530172      -1710.9524     -1712.9897     -1712.505       5.2846487     -5.3107558     -7.5147823      14504.623    
    185000   341.54968      0.0925         0.17277323     0.17287232     0.17280521    -1705.5704      651.48406      651.48406      651.48406      2.7651034e+08  1.6929717     -16522173      -16522173       1017.0766     -16521156      -1705.1392     -1706.1172     -1705.4548      4.4266181     -4.4216668     -7.3416994      14506.08     
    186000   340.54455      0.093          0.17167282     0.17196551     0.17195857    -1696.1819      651.78222      651.78222      651.78222      2.7689017e+08  1.6906494     -16513179      -16513179       1014.0835     -16512165      -1694.279      -1697.1676     -1697.0992      3.1089814     -5.1917502     -4.8934988      14509.628    
    187000   339.37279      0.0935         0.17052898     0.17109376     0.17119751    -1687.0474      652.08038      652.08038      652.08038      2.7727034e+08  1.6883313     -16504219      -16504219       1010.5942     -16503208      -1682.9901     -1688.5641     -1689.588       2.3085496     -6.9933142     -2.165242       14508.233    
    188000   338.5726       0.094          0.16967142     0.17032859     0.17051645    -1679.4686      652.37855      652.37855      652.37855      2.7765085e+08  1.6860175     -16495299      -16495299       1008.2114     -16494291      -1674.5267     -1681.0125     -1682.8666      3.1071541     -7.7657063     -1.3147113      14542.098    
    189000   338.02754      0.0945         0.16916428     0.16973152     0.16990567    -1673.8267      652.67671      652.67671      652.67671      2.7803172e+08  1.6837079     -16486412      -16486412       1006.5883     -16485405      -1669.5216     -1675.1199     -1676.8386      5.1599162     -6.7306755     -2.1268429      14510.682    
    190000   337.64193      0.095          0.16882893     0.16932782     0.16938768    -1669.6914      652.97487      652.97487      652.97487      2.7841293e+08  1.6814025     -16477539      -16477539       1005.44       -16476533      -1666.212      -1671.1357     -1671.7264      7.9294871     -5.2460431     -3.6776721      14431.399    
    191000   337.5072       0.0955         0.16850578     0.16910031     0.16906246    -1666.81        653.27303      653.27303      653.27303      2.7879449e+08  1.6791013     -16468671      -16468671       1005.0388     -16467666      -1663.0228     -1668.8903     -1668.5168      9.423903      -4.4375746     -5.1669011      14522.545    
    192000   337.41037      0.096          0.16812365     0.16892404     0.16884429    -1664.2552      653.57119      653.57119      653.57119      2.791764e+08   1.6768043     -16459808      -16459808       1004.7505     -16458804      -1659.2514     -1667.1506     -1666.3636      7.841831      -3.8108161     -5.5085823      14511.088    
    193000   337.43967      0.0965         0.16766893     0.16854994     0.16829802    -1659.7315      653.86936      653.86936      653.86936      2.7955866e+08  1.6745115     -16450961      -16450961       1004.8377     -16449956      -1654.7637     -1663.4586     -1660.9723      4.392089      -3.2145999     -3.8533731      14515.412    
    194000   337.55736      0.097          0.16724189     0.16789703     0.16747987    -1653.4873      654.16752      654.16752      654.16752      2.7994127e+08  1.6722228     -16442132      -16442132       1005.1882     -16441126      -1650.5491     -1657.0149     -1652.8978      2.4025643     -3.7124852     -2.4547497      14545.917    
    195000   337.40959      0.0975         0.16669148     0.16714362     0.16674115    -1646.7678      654.46568      654.46568      654.46568      2.8032423e+08  1.6699384     -16433320      -16433320       1004.7481     -16432316      -1645.117      -1649.5792     -1645.6072      3.0460537     -5.1270013     -2.3197145      14486.898    
    196000   337.24391      0.098          0.16606711     0.1664408      0.16620992    -1640.6541      654.76384      654.76384      654.76384      2.8070753e+08  1.6676581     -16424536      -16424536       1004.2548     -16423531      -1638.9549     -1642.643      -1640.3644      3.4894924     -6.2504527     -2.5316747      14513.801    
    197000   336.81265      0.0985         0.16548112     0.16573012     0.16595595    -1635.5529      655.062        655.062        655.062        2.8109119e+08  1.6653819     -16415785      -16415785       1002.9706     -16414782      -1633.1717     -1635.6291     -1637.8579      3.1781064     -6.0216113     -2.6442003      14527.554    
    198000   335.9879       0.099          0.16479966     0.16498436     0.16553064    -1629.4585      655.36017      655.36017      655.36017      2.8147519e+08  1.6631099     -16407059      -16407059       1000.5146     -16406058      -1626.4462     -1628.269      -1633.6604      3.9854481     -4.8615068     -2.5368197      14530.871    
    199000   335.39527      0.0995         0.16406346     0.1643731      0.164649      -1622.1254      655.65833      655.65833      655.65833      2.8185955e+08  1.6608421     -16398350      -16398350       998.74986     -16397352      -1619.1805     -1622.2363     -1624.9593      4.8159768     -3.6398084     -2.8459088      14522.901    
    200000   335.31519      0.1            0.1635802      0.16399563     0.16368009    -1616.1064      655.95649      655.95649      655.95649      2.8224425e+08  1.6585783     -16389662      -16389662       998.51137     -16388663      -1614.4111     -1618.5111     -1615.3969      4.4016211     -2.994315      -3.8679555      14229.045    
    201000   335.30204      0.1005         0.16340636     0.16383379     0.16321135    -1613.46        656.25465      656.25465      656.25465      2.826293e+08   1.6563187     -16380992      -16380992       998.47222     -16379994      -1612.6954     -1616.9138     -1610.7708      4.3389851     -3.1388716     -4.662081       14505.352    
    202000   335.14993      0.101          0.16326852     0.16379227     0.16310685    -1612.5261      656.55282      656.55282      656.55282      2.8301471e+08  1.6540631     -16372328      -16372328       998.01927     -16371330      -1611.335      -1616.504      -1609.7394      4.9471288     -4.5258026     -4.5988128      14482.879    
    203000   335.04059      0.1015         0.16287235     0.16348992     0.16286229    -1609.4237      656.85098      656.85098      656.85098      2.8340046e+08  1.6518117     -16363664      -16363664       997.69366     -16362667      -1607.4252     -1613.52       -1607.3259      4.9131544     -6.1877064     -3.873638       14447.099    
    204000   335.07409      0.102          0.1621476      0.16276496     0.16237846    -1603.0628      657.14914      657.14914      657.14914      2.8378656e+08  1.6495643     -16355018      -16355018       997.79343     -16354020      -1600.2724     -1606.3652     -1602.5508      4.6381514     -6.2100156     -2.5699271      14447.479    
    205000   334.76299      0.1025         0.16137415     0.16197426     0.16189027    -1596.3111      657.4473       657.4473       657.4473       2.8417302e+08  1.647321      -16346397      -16346397       996.86702     -16345400      -1592.6391     -1598.5617     -1597.7327      4.7996234     -5.0673175     -1.5917418      14486.159    
    206000   334.05211      0.103          0.16083938     0.16122156     0.16132184    -1590.2057      657.74546      657.74546      657.74546      2.8455982e+08  1.6450818     -16337799      -16337799       994.75013     -16336804      -1587.3613     -1591.1331     -1592.1228      5.870498      -4.596583      -2.235625       14515.643    
    207000   333.73899      0.1035         0.16047052     0.1606568      0.16075701    -1585.2762      658.04363      658.04363      658.04363      2.8494698e+08  1.6428466     -16329222      -16329222       993.81773     -16328229      -1583.7209     -1585.5594     -1586.5484      6.6095643     -4.412319      -2.9658738      14528.035    
    208000   334.02343      0.104          0.15991873     0.16046622     0.160304      -1581.3437      658.34179      658.34179      658.34179      2.8533449e+08  1.6406155     -16320668      -16320668       994.66475     -16319673      -1578.2752     -1583.6785     -1582.0774      5.7932885     -3.9485934     -3.1374253      14508.873    
    209000   334.11474      0.1045         0.15914609     0.16036044     0.15981488    -1576.8449      658.63995      658.63995      658.63995      2.8572235e+08  1.6383884     -16312129      -16312129       994.93665     -16311135      -1570.6498     -1582.6345     -1577.2502      4.1726007     -3.6137767     -3.0406708      14484.298    
    210000   333.89961      0.105          0.15865012     0.15999303     0.15931156    -1572.3488      658.93811      658.93811      658.93811      2.8611056e+08  1.6361654     -16303606      -16303606       994.29603     -16302612      -1565.7549     -1579.0085     -1572.2829      2.8788775     -4.2695648     -2.4759093      14519.1      
    211000   333.62515      0.1055         0.15870358     0.1593944      0.15899788    -1569.5234      659.23627      659.23627      659.23627      2.8649912e+08  1.6339464     -16295091      -16295091       993.47873     -16294097      -1566.2826     -1573.1004     -1569.1871      1.7284517     -5.1594485     -2.5268905      14471.305    
    212000   333.24503      0.106          0.15868109     0.1588615      0.15871195    -1566.7556      659.53444      659.53444      659.53444      2.8688803e+08  1.6317313     -16286576      -16286576       992.34678     -16285584      -1566.0606     -1567.8411     -1566.3652      1.1615833     -6.4130589     -2.4275226      14496.028    
    213000   332.99941      0.1065         0.15818931     0.15826758     0.15822705    -1561.5887      659.8326       659.8326       659.8326       2.8727729e+08  1.6295203     -16278076      -16278076       991.61537     -16277085      -1561.2071     -1561.9795     -1561.5796      1.9469568     -7.2464222     -0.83027675     14484.876    
    214000   333.08895      0.107          0.1574332      0.15748709     0.15757506    -1554.3889      660.13076      660.13076      660.13076      2.8766691e+08  1.6273133     -16269610      -16269610       991.88201     -16268618      -1553.7449     -1554.2767     -1555.145       5.0032068     -6.1995514      0.41774558     14477.525    
    215000   332.88859      0.1075         0.15680534     0.15697844     0.15715762    -1549.2767      660.42892      660.42892      660.42892      2.8805688e+08  1.6251103     -16261170      -16261170       991.28538     -16260179      -1547.5483     -1549.2568     -1551.0251      8.3814553     -4.2848903      0.013315147    14505.986    
    216000   332.06776      0.108          0.15632744     0.15670784     0.15679131    -1545.6093      660.72708      660.72708      660.72708      2.884472e+08   1.6229112     -16252740      -16252740       988.8411      -16251752      -1542.8319     -1546.5861     -1547.4099      8.8564315     -3.6849661     -1.3741842      14510.253    
    217000   331.73475      0.1085         0.1557729      0.15621358     0.15611925    -1539.9481      661.02525      661.02525      661.02525      2.8883787e+08  1.6207161     -16244324      -16244324       987.84945     -16243336      -1537.359      -1541.7082     -1540.7772      7.0507257     -4.1813571     -2.1797881      14521.005    
[...]
   3113000   324.25179      1.5565         0.00823811     0.0083101106   0.0080415164  -80.893945      1524.5025      1524.5025      1524.5025      3.5431084e+09  0.13212246    -4725419.8     -4725419.8      965.56646     -4724454.3     -81.303824     -82.014415     -79.363596     -0.34452038     0.55732917     1.7833924      12587.081    
   3114000   324.28039      1.557          0.0082334091   0.0083062693   0.0080372278  -80.851735      1524.8007      1524.8007      1524.8007      3.5451877e+09  0.13204497    -4723123.9     -4723123.9      965.65162     -4722158.3     -81.25743      -81.976504     -79.321271     -0.31818979     0.57294007     1.7599959      12621.917    
   3115000   324.27582      1.5575         0.0082266876   0.0082999504   0.0080316938  -80.790631      1525.0988      1525.0988      1525.0988      3.5472678e+09  0.13196754    -4720828.5     -4720828.5      965.63801     -4719862.9     -81.191094     -81.914142     -79.266655     -0.29746419     0.5741704      1.7400921      12674.086    
   3116000   324.24239      1.558          0.0082195459   0.0082911601   0.0080230279  -80.709709      1525.397       1525.397       1525.397       3.5493487e+09  0.13189017    -4718534.3     -4718534.3      965.53847     -4717568.7     -81.12061      -81.827388     -79.181129     -0.29552637     0.54675707     1.7376929      12658.385    
   3117000   324.20753      1.5585         0.008214908    0.0082808423   0.0080119907  -80.6242        1525.6952      1525.6952      1525.6952      3.5514304e+09  0.13181286    -4716241.6     -4716241.6      965.43465     -4715276.2     -81.074838     -81.72556      -79.072201     -0.30019019     0.49820967     1.7571248      12697.552    
   3118000   324.19077      1.559          0.0082122245   0.0082711418   0.0080005358  -80.545776      1525.9933      1525.9933      1525.9933      3.553513e+09   0.13173561    -4713950.4     -4713950.4      965.38476     -4712985       -81.048354     -81.629823     -78.95915      -0.29554811     0.46230331     1.7788859      12718.64     
   3119000   324.19356      1.5595         0.0082080612   0.0082617988   0.007990422   -80.468072      1526.2915      1526.2915      1526.2915      3.5555963e+09  0.13165842    -4711660.5     -4711660.5      965.39307     -4710695.1     -81.007266     -81.537615     -78.859334     -0.28260112     0.45481843     1.7902315      12692.245    
   3120000   324.21172      1.56           0.0082009493   0.0082526258   0.0079838924  -80.393018      1526.5897      1526.5897      1526.5897      3.5576805e+09  0.13158129    -4709372.2     -4709372.2      965.44715     -4708406.7     -80.937077     -81.447085     -78.794891     -0.27458918     0.46470989     1.7942329      12709.983    
   3121000   324.24844      1.5605         0.0081924445   0.0082454283   0.0079815271  -80.33358       1526.8878      1526.8878      1526.8878      3.5597655e+09  0.13150422    -4707085.1     -4707085.1      965.55649     -4706119.5     -80.853141     -81.37605      -78.771548     -0.28471892     0.47461313     1.7923221      12657.481    
   3122000   324.29759      1.561          0.0081842364   0.0082405322   0.0079808795  -80.28834       1527.186       1527.186       1527.186       3.5618513e+09  0.13142721    -4704798.5     -4704798.5      965.70285     -4703832.8     -80.772133     -81.32773      -78.765157     -0.30082878     0.4865999      1.7969257      12658.656    
   3123000   324.34436      1.5615         0.0081761076   0.0082368814   0.0079784505  -80.241597      1527.4841      1527.4841      1527.4841      3.5639379e+09  0.13135027    -4702512.5     -4702512.5      965.84212     -4701546.7     -80.691908     -81.291699     -78.741185     -0.31406904     0.51198699     1.8181346      12633.098    
   3124000   324.38578      1.562          0.0081706832   0.0082338104   0.0079744054  -80.200342      1527.7823      1527.7823      1527.7823      3.5660253e+09  0.13127338    -4700227.1     -4700227.1      965.96545     -4699261.2     -80.638373     -81.26139      -78.701262     -0.33077944     0.54921285     1.8387677      12618.065    
   3125000   324.42969      1.5625         0.0081677016   0.0082312592   0.0079695538  -80.16618       1528.0805      1528.0805      1528.0805      3.5681136e+09  0.13119655    -4697942       -4697942        966.09623     -4696975.9     -80.608947     -81.236212     -78.653381     -0.35293654     0.57149853     1.8369146      12636.217    
   3126000   324.47831      1.563          0.0081665251   0.0082287943   0.007966189   -80.143131      1528.3786      1528.3786      1528.3786      3.5702026e+09  0.13111978    -4695656.8     -4695656.8      966.24101     -4694690.6     -80.597336     -81.211886     -78.620172     -0.36259874     0.57144476     1.8161148      12642.545    
   3127000   324.51081      1.5635         0.0081658126   0.0082251992   0.007964597   -80.123723      1528.6768      1528.6768      1528.6768      3.5722925e+09  0.13104307    -4693371.4     -4693371.4      966.33777     -4692405       -80.590304     -81.176405     -78.604461     -0.35247586     0.55796149     1.7872269      12638.883    
   3128000   324.5126       1.564          0.0081622892   0.0082188757   0.0079619859  -80.08274       1528.9749      1528.9749      1528.9749      3.5743832e+09  0.13096642    -4691085.7     -4691085.7      966.34311     -4690119.4     -80.555531     -81.113996     -78.578692     -0.34051848     0.54243711     1.7715411      12633.627    
   3129000   324.48631      1.5645         0.0081542316   0.0082094773   0.0079557874  -80.004922      1529.2731      1529.2731      1529.2731      3.5764747e+09  0.13088984    -4688800.9     -4688800.9      966.26484     -4687834.7     -80.476009     -81.021242     -78.517516     -0.34274826     0.52260195     1.7798524      12607.149    
   3130000   324.43866      1.565          0.0081432516   0.0081994831   0.0079469385  -79.906812      1529.5713      1529.5713      1529.5713      3.578567e+09   0.13081331    -4686517.8     -4686517.8      966.12294     -4685551.7     -80.367645     -80.922606     -78.430185     -0.36100241     0.50179809     1.8064546      12610.764    
   3131000   324.37655      1.5655         0.0081327636   0.008190423    0.0079367654  -79.809037      1529.8694      1529.8694      1529.8694      3.5806602e+09  0.13073684    -4684236.6     -4684236.6      965.93799     -4683270.6     -80.264136     -80.83319      -78.329784     -0.3920132      0.49669139     1.8329272      12635.139    
   3132000   324.31834      1.566          0.0081245111   0.0081827111   0.0079265261  -79.722833      1530.1676      1530.1676      1530.1676      3.5827541e+09  0.13066043    -4681957.2     -4681957.2      965.76463     -4680991.5     -80.18269      -80.75708      -78.22873      -0.41748557     0.50374208     1.8450908      12665.766    
   3133000   324.28622      1.5665         0.0081186152   0.0081761333   0.0079192108  -79.657733      1530.4658      1530.4658      1530.4658      3.5848489e+09  0.13058408    -4679679.3     -4679679.3      965.66898     -4678713.7     -80.124502     -80.692162     -78.156534     -0.42697641     0.50052781     1.8393813      12641.694    
   3134000   324.28641      1.567          0.008114295    0.008169465    0.0079154862  -79.60933       1530.7639      1530.7639      1530.7639      3.5869445e+09  0.13050779    -4677402.1     -4677402.1      965.66955     -4676436.5     -80.081865     -80.626351     -78.119775     -0.41881426     0.48310054     1.8335836      12650.473    
   3135000   324.30781      1.5675         0.0081094317   0.0081620971   0.0079129438  -79.560729      1531.0621      1531.0621      1531.0621      3.5890409e+09  0.13043156    -4675125.4     -4675125.4      965.73327     -4674159.7     -80.033868     -80.553635     -78.094684     -0.38199521     0.46915779     1.8343134      12650.025    
   3136000   324.33371      1.568          0.0081048368   0.0081544758   0.0079113219  -79.515205      1531.3602      1531.3602      1531.3602      3.5911381e+09  0.13035539    -4672849.3     -4672849.3      965.8104      -4671883.5     -79.988521     -80.478419     -78.078677     -0.32887624     0.46295868     1.8341379      12634.023    
   3137000   324.34459      1.5685         0.0081012399   0.0081483493   0.0079094767  -79.477148      1531.6584      1531.6584      1531.6584      3.5932361e+09  0.13027927    -4670573.5     -4670573.5      965.84282     -4669607.7     -79.953021     -80.417955     -78.060466     -0.2797377      0.46214923     1.8267085      12637.556    
   3138000   324.33999      1.569          0.0080955398   0.0081439154   0.0079056567  -79.431243      1531.9566      1531.9566      1531.9566      3.595335e+09   0.13020322    -4668298       -4668298        965.8291      -4667332.1     -79.896766     -80.374196     -78.022765     -0.2450834      0.46158907     1.8111413      12646.752    
   3139000   324.34204      1.5695         0.0080862982   0.0081401546   0.0078998925  -79.369505      1532.2547      1532.2547      1532.2547      3.5974346e+09  0.13012723    -4666023       -4666023        965.83521     -4665057.2     -79.805559     -80.33708      -77.965877     -0.234303       0.45321063     1.7849467      12632.677    
   3140000   324.36774      1.57           0.0080759817   0.0081367      0.0078934284  -79.302936      1532.5529      1532.5529      1532.5529      3.5995351e+09  0.13005129    -4663749.3     -4663749.3      965.91174     -4662783.4     -79.703743     -80.302985     -77.902081     -0.25290328     0.44584591     1.7620577      12635.773    
   3141000   324.40687      1.5705         0.008068305    0.0081340522   0.0078879633  -79.250993      1532.8511      1532.8511      1532.8511      3.6016364e+09  0.12997541    -4661476.6     -4661476.6      966.02827     -4660510.6     -79.627979     -80.276854     -77.848145     -0.28782102     0.44276517     1.7560874      12633.26     
   3142000   324.436        1.571          0.0080646425   0.0081311581   0.0078838752  -79.215974      1533.1492      1533.1492      1533.1492      3.6037386e+09  0.1298996     -4659204.3     -4659204.3      966.11502     -4658238.2     -79.591834     -80.248291     -77.807798     -0.3172643      0.44403799     1.7511284      12675.786    
   3143000   324.44458      1.5715         0.0080625912   0.0081276814   0.0078808762  -79.187923      1533.4474      1533.4474      1533.4474      3.6058415e+09  0.12982384    -4656932.1     -4656932.1      966.14055     -4655965.9     -79.571589     -80.213979     -77.778201     -0.33181709     0.43730611     1.7381213      12603.745    
   3144000   324.43258      1.572          0.0080602205   0.0081236799   0.0078770973  -79.154528      1533.7455      1533.7455      1533.7455      3.6079453e+09  0.12974814    -4654659.6     -4654659.6      966.10483     -4653693.5     -79.548192     -80.174487     -77.740906     -0.33172236     0.41128217     1.7155777      12660.931    
   3145000   324.40637      1.5725         0.0080560167   0.0081172287   0.0078710986  -79.099742      1534.0437      1534.0437      1534.0437      3.6100498e+09  0.1296725     -4652387.5     -4652387.5      966.02678     -4651421.4     -79.506703     -80.110818     -77.681703     -0.33434702     0.3697209      1.6840449      12650.182    
   3146000   324.38061      1.573          0.0080498686   0.0081082849   0.0078617556  -79.019357      1534.3419      1534.3419      1534.3419      3.6121552e+09  0.12959692    -4650116.5     -4650116.5      965.95007     -4649150.5     -79.446026     -80.02255      -77.589495     -0.35054715     0.33415892     1.6625729      12653.502    
   3147000   324.36374      1.5735         0.0080435844   0.008100358    0.0078502619  -78.934795      1534.64        1534.64        1534.64        3.6142614e+09  0.1295214     -4647847.2     -4647847.2      965.89982     -4646881.3     -79.384006     -79.944317     -77.476061     -0.37352139     0.33006952     1.6629267      12700.542    
   3148000   324.34263      1.574          0.0080373547   0.0080960062   0.007840385   -78.867492      1534.9382      1534.9382      1534.9382      3.6163685e+09  0.12944593    -4645579.4     -4645579.4      965.83697     -4644613.6     -79.322524     -79.901369     -77.378584     -0.38399995     0.36056892     1.6842362      12694.949    
   3149000   324.30315      1.5745         0.0080307435   0.0080928264   0.0078334055  -78.812322      1535.2364      1535.2364      1535.2364      3.6184763e+09  0.12937053    -4643312.2     -4643312.2      965.71939     -4642346.5     -79.257276     -79.869986     -77.309702     -0.37293266     0.41382706     1.7164407      12685.702    
   3150000   324.25146      1.575          0.0080223162   0.0080866683   0.007827158   -78.743786      1535.5345      1535.5345      1535.5345      3.620585e+09   0.12929518    -4641045.6     -4641045.6      965.56547     -4640080.1     -79.174106     -79.809211     -77.248043     -0.35223214     0.46313916     1.7469451      12304.994    
   3151000   324.21104      1.5755         0.0080125864   0.0080758225   0.0078208473  -78.655338      1535.8327      1535.8327      1535.8327      3.6226945e+09  0.12921989    -4638780.5     -4638780.5      965.44511     -4637815.1     -79.07808      -79.702172     -77.185761     -0.34310606     0.48123086     1.7661586      12674.081    
   3152000   324.19331      1.576          0.0080052098   0.0080646741   0.007816799   -78.581077      1536.1308      1536.1308      1536.1308      3.6248048e+09  0.12914466    -4636517.2     -4636517.2      965.39232     -4635551.8     -79.005279     -79.592145     -77.145809     -0.35606801     0.4733655      1.7721946      12656.342    
   3153000   324.17696      1.5765         0.0080008856   0.0080554      0.0078163088  -78.534729      1536.429       1536.429       1536.429       3.6269159e+09  0.12906949    -4634254.7     -4634254.7      965.34362     -4633289.3     -78.962601     -79.500617     -77.14097      -0.38558984     0.45169415     1.768652       12655.721    
   3154000   324.14856      1.577          0.0079974713   0.0080471197   0.0078167414  -78.497681      1536.7272      1536.7272      1536.7272      3.6290279e+09  0.12899438    -4631992.2     -4631992.2      965.25905     -4631027       -78.928905     -79.418897     -77.14524      -0.41786709     0.42721445     1.7669566      12655.623    
   3155000   324.12163      1.5775         0.00799123     0.0080398111   0.007814212   -78.444784      1537.0253      1537.0253      1537.0253      3.6311406e+09  0.12891932    -4629730       -4629730        965.17887     -4628764.9     -78.867308     -79.346766     -77.120276     -0.44425523     0.4065322      1.7725053      12691.443    
   3156000   324.11852      1.578          0.0079816139   0.0080340594   0.0078089757  -78.377001      1537.3235      1537.3235      1537.3235      3.6332542e+09  0.12884433    -4627468.9     -4627468.9      965.1696      -4626503.7     -78.772405     -79.290002     -77.068598     -0.45542132     0.39380937     1.7847815      12680.142    
   3157000   324.14554      1.5785         0.0079729229   0.0080315852   0.0078036976  -78.322907      1537.6216      1537.6216      1537.6216      3.6353686e+09  0.12876939    -4625208.9     -4625208.9      965.25005     -4624243.7     -78.686631     -79.265583     -77.016508     -0.45509584     0.39528409     1.803927       12654.38     
   3158000   324.19115      1.579          0.0079694022   0.0080320263   0.0077989428  -78.297134      1537.9198      1537.9198      1537.9198      3.6374838e+09  0.12869451    -4622949.4     -4622949.4      965.3859      -4621984       -78.651884     -79.269937     -76.969581     -0.45893472     0.4166476      1.8149455      12617.773    
   3159000   324.23456      1.5795         0.0079696931   0.0080316073   0.0077935328  -78.278915      1538.218       1538.218       1538.218       3.6395999e+09  0.12861968    -4620689.4     -4620689.4      965.51516     -4619723.9     -78.654755     -79.265801     -76.916189     -0.45972673     0.45745606     1.8092033      12552.902    
   3160000   324.25907      1.58           0.007967977    0.0080267701   0.0077866469  -78.234704      1538.5161      1538.5161      1538.5161      3.6417168e+09  0.12854492    -4618429.3     -4618429.3      965.58815     -4617463.7     -78.637819     -79.218062     -76.84823      -0.43854189     0.50036504     1.790889       12522.147    
   3161000   324.25951      1.5805         0.0079622024   0.0080172206   0.0077778319  -78.155292      1538.8143      1538.8143      1538.8143      3.6438344e+09  0.12847021    -4616170.2     -4616170.2      965.58946     -4615204.6     -78.580828     -79.123815     -76.761233     -0.39783458     0.52223843     1.7713049      12494.601    
   3162000   324.2419       1.581          0.0079546872   0.0080056548   0.0077674603  -78.0584        1539.1125      1539.1125      1539.1125      3.645953e+09   0.12839556    -4613913       -4613913        965.53701     -4612947.5     -78.506658     -79.00967      -76.658873     -0.35078342     0.52338169     1.7472218      12450.049    
   3163000   324.22283      1.5815         0.0079485081   0.0079969637   0.0077590385  -77.981776      1539.4106      1539.4106      1539.4106      3.6480723e+09  0.12832097    -4611657.7     -4611657.7      965.48023     -4610692.2     -78.445676     -78.923896     -76.575756     -0.32618961     0.51232861     1.7278255      12437.088    
   3164000   324.22454      1.582          0.007944654    0.0079927996   0.0077547817  -77.941394      1539.7088      1539.7088      1539.7088      3.6501924e+09  0.12824644    -4609403.2     -4609403.2      965.48532     -4608437.7     -78.407639     -78.882799     -76.533745     -0.33878863     0.49829702     1.7318349      12397.195    
   3165000   324.26656      1.5825         0.0079424974   0.007989987    0.0077548636  -77.925316      1540.0069      1540.0069      1540.0069      3.6523134e+09  0.12817197    -4607148.7     -4607148.7      965.61043     -4606183       -78.386354     -78.855041     -76.534554     -0.3696739      0.48335014     1.760135       12407.829    
   3166000   324.3344       1.583          0.0079402112   0.0079860485   0.0077596522  -77.920592      1540.3051      1540.3051      1540.3051      3.6544352e+09  0.12809755    -4604893.7     -4604893.7      965.81246     -4603927.9     -78.363791     -78.816171     -76.581813     -0.39132286     0.46449851     1.790698       12430.645    
   3167000   324.39068      1.5835         0.0079346841   0.0079814419   0.0077643054  -77.902562      1540.6033      1540.6033      1540.6033      3.6565578e+09  0.12802319    -4602638.1     -4602638.1      965.98005     -4601672.1     -78.309244     -78.770707     -76.627737     -0.38568549     0.43891119     1.8087783      12428.074    
   3168000   324.41619      1.584          0.0079251785   0.0079767109   0.0077622697  -77.849031      1540.9014      1540.9014      1540.9014      3.6586812e+09  0.12794889    -4600382.6     -4600382.6      966.05603     -4599416.5     -78.21543      -78.724016     -76.607646     -0.35804272     0.4191729      1.8127157      12436.065    
   3169000   324.40951      1.5845         0.0079137612   0.0079714158   0.0077514597  -77.758489      1541.1996      1541.1996      1541.1996      3.6608055e+09  0.12787464    -4598128.4     -4598128.4      966.03613     -4597162.3     -78.102751     -78.671757     -76.500959     -0.32549761     0.41970281     1.8079638      12416.137    
   3170000   324.37793      1.585          0.0079047268   0.0079657911   0.0077354176  -77.65749       1541.4978      1541.4978      1541.4978      3.6629306e+09  0.12780045    -4595876.2     -459587