LAMMPS (23 Jun 2022 - Update 1)
OMP_NUM_THREADS environment is not set. Defaulting to 1 thread. (src/comm.cpp:98)
  using 1 OpenMP thread(s) per MPI task
###

# Read restart info
read_restart ${read_res}
read_restart ./trial6/8020/equpmf71.res
Reading restart file ...
  restart file = 23 Jun 2022, LAMMPS = 23 Jun 2022
  restoring atom style atomic from restart
  orthogonal box = (1716.7994 1716.7994 1716.7994) to (2283.2006 2283.2006 2283.2006)
  1 by 2 by 2 MPI processor grid
  restoring pair style table from restart
  1000 atoms
  read_restart CPU = 0.097 seconds

# Settings
pair_style table/pgn spline 10941
pair_coeff 1 1 N20e.txt DE_GNP 308 72.9   # 1.35 * r
pair_coeff 2 2 N100e.txt DE_GNP 473.9 111.78
WARNING: 20 of 10941 force values in table DE_GNP are inconsistent with -dE/dr.
WARNING:  Should only be flagged at inflection points (src/pair_table_pgn.cpp:478)
pair_coeff 1 2 mixed_potentiale.txt DE_GNP 391.2 92.95
WARNING: 1564 of 10941 force values in table DE_GNP are inconsistent with -dE/dr.
WARNING:  Should only be flagged at inflection points (src/pair_table_pgn.cpp:478)

# Neighbor list
neighbor 2.0 bin
neigh_modify delay 0 every 1 check no once yes

# Temperature
variable T equal ${Temp}
variable T equal 300

# Deformation
reset_timestep 0
variable tmp equal "lx"
variable L0 equal ${tmp}
variable L0 equal 566.401199130675
variable strain equal "(lx - v_L0)/v_L0"
variable stp equal "step"
variable tmpe equal "temp"
variable p1 equal "v_strain"
variable p2 equal "-pxx*1.01325/10000"
variable p3 equal "-pyy*1.01325/10000"
variable p4 equal "-pzz*1.01325/10000"
variable p5 equal "lx"
variable p6 equal "ly"
variable p7 equal "lz"
variable p8 equal "press"
variable p9 equal "epair"
variable p10 equal "etotal"

# Thermo
thermo_style custom step temp v_p1 v_p2 v_p3 v_p4 press lx ly lz vol density epair pe ke etotal pxx pyy pzz pxy pxz pyz spcpu
thermo ${ts_save}
thermo 1000

# Dump
# dump 1 all custom 2000 ./${N20}${N100}/tensile/trajectory/trajectory_${usic}_${trial}_*.tensile.custom id type x y z ix iy iz
# dump_modify 1 sort id
dump 2 all cfg 50000 ./trial${trial}/${N20}${N100}/tensile/trajectory/dumpten.tens_${usic}_${trial}_*.cfg mass type xs ys zs fx fy fz
dump 2 all cfg 50000 ./trial6/${N20}${N100}/tensile/trajectory/dumpten.tens_${usic}_${trial}_*.cfg mass type xs ys zs fx fy fz
dump 2 all cfg 50000 ./trial6/80${N100}/tensile/trajectory/dumpten.tens_${usic}_${trial}_*.cfg mass type xs ys zs fx fy fz
dump 2 all cfg 50000 ./trial6/8020/tensile/trajectory/dumpten.tens_${usic}_${trial}_*.cfg mass type xs ys zs fx fy fz
dump 2 all cfg 50000 ./trial6/8020/tensile/trajectory/dumpten.tens_1_${trial}_*.cfg mass type xs ys zs fx fy fz
dump 2 all cfg 50000 ./trial6/8020/tensile/trajectory/dumpten.tens_1_6_*.cfg mass type xs ys zs fx fy fz
dump_modify 2 element N20 N100

fix 1 all nvt temp ${T} ${T} 100
fix 1 all nvt temp 300 ${T} 100
fix 1 all nvt temp 300 300 100
fix 2 all deform 1 x erate ${strain_rate} y erate ${strain_rate} z erate ${strain_rate} units box
fix 2 all deform 1 x erate 5e-6 y erate ${strain_rate} z erate ${strain_rate} units box
fix 2 all deform 1 x erate 5e-6 y erate 5e-6 z erate ${strain_rate} units box
fix 2 all deform 1 x erate 5e-6 y erate 5e-6 z erate 5e-6 units box
fix             def1 all print ${ts_save} "${p1} ${p2} ${p3} ${p4}" file ./tensile/${trial}/tensile${N20}${N100}_${usic}_${trial}.txt screen no
fix             def1 all print 1000 "${p1} ${p2} ${p3} ${p4}" file ./tensile/${trial}/tensile${N20}${N100}_${usic}_${trial}.txt screen no
fix             def1 all print 1000 "${p1} ${p2} ${p3} ${p4}" file ./tensile/6/tensile${N20}${N100}_${usic}_${trial}.txt screen no
fix             def1 all print 1000 "${p1} ${p2} ${p3} ${p4}" file ./tensile/6/tensile80${N100}_${usic}_${trial}.txt screen no
fix             def1 all print 1000 "${p1} ${p2} ${p3} ${p4}" file ./tensile/6/tensile8020_${usic}_${trial}.txt screen no
fix             def1 all print 1000 "${p1} ${p2} ${p3} ${p4}" file ./tensile/6/tensile8020_1_${trial}.txt screen no
fix             def1 all print 1000 "${p1} ${p2} ${p3} ${p4}" file ./tensile/6/tensile8020_1_6.txt screen no

timestep       		${ts}
timestep       		0.1
run				${steps_tensile}
run				6000000
Generated 0 of 1 mixed pair_coeff terms from geometric mixing rule
Unused restart file global fix info:
  fix style: npt, fix ID: 5
Neighbor list info ...
  update every 1 steps, delay 0 steps, check no
  max neighbors/atom: 2000, page size: 100000
  master list distance cutoff = 113.78
  ghost atom cutoff = 113.78
  binsize = 56.89, bins = 10 10 10
  1 neighbor lists, perpetual/occasional/extra = 1 0 0
  (1) pair table/pgn, perpetual
      attributes: half, newton on
      pair build: half/bin/atomonly/newton
      stencil: half/bin/3d
      bin: standard
Per MPI rank memory allocation (min/avg/max) = 3.858 | 3.859 | 3.862 Mbytes
   Step          Temp           v_p1           v_p2           v_p3           v_p4          Press            Lx             Ly             Lz           Volume        Density         E_pair         PotEng         KinEng         TotEng          Pxx            Pyy            Pzz            Pxy            Pxz            Pyz           S/CPU     
         0   290.62076      0              0.025911417    0.010622808    0.02152811    -191.01023      566.4012       566.4012       566.4012       1.8170735e+08  2.3933        -13497740      -13497740       865.41899     -13496875      -255.72581     -104.83897     -212.46593      27.694643     -1.9729536      26.544007      0            
      1000   330.28581      0.0005         0.037527303    0.021911211    0.033152522   -304.60082      566.6844       566.6844       566.6844       1.8198005e+08  2.3897136     -13496844      -13496844       983.53474     -13495860      -370.36569     -216.24684     -327.18995      24.848109     -1.4717363      25.718689      12674.301    
      2000   390.18803      0.001          0.046683081    0.031448897    0.042438174   -396.64496      566.9676       566.9676       566.9676       1.8225302e+08  2.3861344     -13495741      -13495741       1161.9133     -13494579      -460.72618     -310.37648     -418.83222      22.542677     -3.5206762      26.158191      14298.132    
      3000   450.86953      0.0015         0.053625469    0.039150102    0.049308546   -467.4204       567.2508       567.2508       567.2508       1.8252626e+08  2.3825624     -13494472      -13494472       1342.6125     -13493129      -529.24223     -386.38146     -486.63751      20.753457     -7.4863927      26.466681      14282.09     
      4000   488.41758      0.002          0.060237845    0.046252666    0.055664433   -533.44829      567.534        567.534        567.534        1.8279978e+08  2.3789974     -13493025      -13493025       1454.4242     -13491570      -594.50131     -456.47832     -549.36524      19.642147     -7.9051697      26.331457      14164.31     
      5000   501.0902       0.0025         0.067710242    0.053899999    0.062939691   -607.12207      567.8172       567.8172       567.8172       1.8307356e+08  2.3754396     -13491339      -13491339       1492.161      -13489847      -668.24814     -531.95163     -621.16645      20.117691     -4.2637193      25.148265      14454.594    
      6000   496.59399      0.003          0.075868381    0.062416595    0.071069179   -688.72162      568.1004       568.1004       568.1004       1.8334763e+08  2.3718889     -13489347      -13489347       1478.7721     -13487869      -748.76271     -616.0039      -701.39826      23.228891     -1.9299856      23.522831      14180.829    
      7000   483.28345      0.0035         0.083993497    0.071213897    0.079572182   -772.36476      568.3836       568.3836       568.3836       1.8362196e+08  2.3683452     -13487006      -13487006       1439.1356     -13485567      -828.95137     -702.82652     -785.31638      25.377904     -2.1084183      20.782639      14246.342    
      8000   466.85013      0.004          0.091959996    0.079462399    0.087929115   -853.20013      568.6668       568.6668       568.6668       1.8389657e+08  2.3648086     -13484317      -13484317       1390.2        -13482927      -907.5746      -784.2329      -867.79289      23.18759      -2.6988437      17.475134      14484.512    
      9000   450.62756      0.0045         0.099888816    0.087258241    0.095805331   -930.84098      568.95         568.95         568.95         1.8417145e+08  2.3612791     -13481289      -13481289       1341.8919     -13479947      -985.82596     -861.17188     -945.52511      19.840114     -2.2438625      16.277149      14308.422    
     10000   435.93107      0.005          0.10745677     0.094969944    0.10351948    -1006.4847      569.23321      569.23321      569.23321      1.8444661e+08  2.3577565     -13477922      -13477922       1298.1283     -13476624      -1060.5158     -937.28047     -1021.6579      19.123324     -1.1755739      18.016218      14208.23     
     11000   422.76086      0.0055         0.11442059     0.10259466     0.11105471    -1079.2662      569.51641      569.51641      569.51641      1.8472204e+08  2.354241      -13474223      -13474223       1258.9097     -13472964      -1129.2434     -1012.5306     -1096.0247      19.408595     -0.71379643     20.555552      14497.232    
     12000   411.15499      0.006          0.12101746     0.11000958     0.11779017    -1147.5194      569.79961      569.79961      569.79961      1.8499774e+08  2.3507324     -13470216      -13470216       1224.3494     -13468992      -1194.3495     -1085.7102     -1162.4986      18.705117     -1.2688047      21.292365      14247.345    
     13000   401.55491      0.0065         0.12756259     0.11695466     0.12407917    -1212.5879      570.08281      570.08281      570.08281      1.8527372e+08  2.3472308     -13465926      -13465926       1195.7619     -13464730      -1258.9449     -1154.2527     -1224.5662      17.906727     -2.6958584      19.488688      14038.123    
     14000   393.90702      0.007          0.13427359     0.12361854     0.13071565    -1278.4202      570.36601      570.36601      570.36601      1.8554998e+08  2.3437362     -13461359      -13461359       1172.9879     -13460186      -1325.1773     -1220.0202     -1290.0631      17.0106       -3.289361       16.836796      14089.857    
     15000   387.99023      0.0075         0.1409637      0.13023714     0.1374048     -1344.208       570.64921      570.64921      570.64921      1.858265e+08   2.3402485     -13456522      -13456522       1155.3686     -13455366      -1391.2035     -1285.3406     -1356.0799      16.314445     -2.7940557      15.666837      14222.63     
     16000   383.65196      0.008          0.14728644     0.13712376     0.14381927    -1408.7655      570.93241      570.93241      570.93241      1.8610331e+08  2.3367677     -13451410      -13451410       1142.45       -13450268      -1453.6042     -1353.3063     -1419.3859      16.65599      -2.5558489      16.874597      14308.575    
     17000   379.89216      0.0085         0.15320482     0.14403731     0.14987527    -1470.9019      571.21561      571.21561      571.21561      1.8638038e+08  2.3332938     -13446022      -13446022       1131.254      -13444891      -1512.014      -1421.5378     -1479.1539      17.666268     -4.0988503      18.857845      14311.686    
     18000   376.5855       0.009          0.15894992     0.15012767     0.15551025    -1528.3751      571.49881      571.49881      571.49881      1.8665773e+08  2.3298268     -13440364      -13440364       1121.4073     -13439243      -1568.7137     -1481.6449     -1534.7668      17.671657     -4.0681225      18.627603      14561.463    
     19000   374.273        0.0095         0.16485209     0.1557536      0.16139459    -1585.6576      571.78201      571.78201      571.78201      1.8693536e+08  2.3263667     -13434450      -13434450       1114.5211     -13433335      -1626.9637     -1537.1685     -1592.8407      16.007986     -1.3296453      17.604756      14382.204    
     20000   372.72387      0.01           0.17080335     0.16151896     0.16756916    -1644.5151      572.06521      572.06521      572.06521      1.8721326e+08  2.3229134     -13428300      -13428300       1109.908      -13427190      -1685.698      -1594.0682     -1653.779       13.730653      1.3807415      16.709176      14215.851    
     21000   371.62098      0.0105         0.17646348     0.16721114     0.17351448    -1701.4198      572.34841      572.34841      572.34841      1.8749144e+08  2.3194669     -13421919      -13421919       1106.6238     -13420812      -1741.5591     -1650.2456     -1712.4548      12.91789       1.6022244      15.64652       14234.559    
     22000   371.06249      0.011          0.1815681      0.17257598     0.17881024    -1753.2834      572.63161      572.63161      572.63161      1.8776989e+08  2.3160273     -13415316      -13415316       1104.9607     -13414211      -1791.9378     -1703.1925     -1764.7198      14.197049     -0.029742818    15.486396      14139.166    
     23000   371.37171      0.0115         0.18659112     0.17794805     0.18378685    -1803.8523      572.91481      572.91481      572.91481      1.8804862e+08  2.3125945     -13408499      -13408499       1105.8815     -13407393      -1841.5112     -1756.2107     -1813.8352      14.792778     -1.7366414      16.617021      14200.858    
     24000   372.36199      0.012          0.19205581     0.18354439     0.18899854    -1857.3854      573.19801      573.19801      573.19801      1.8832763e+08  2.3091684     -13401464      -13401464       1108.8304     -13400355      -1895.4435     -1811.4423     -1865.2705      13.897553     -2.6735683      18.258248      14125.067    
     25000   373.66852      0.0125         0.19749751     0.18896239     0.19423206    -1910.328       573.48121      573.48121      573.48121      1.886069e+08   2.3057491     -13394213      -13394213       1112.721      -13393100      -1949.1489     -1864.9138     -1916.9214      13.18958      -2.4615269      18.236313      14255.295    
     26000   374.85535      0.013          0.20225735     0.19393297     0.1992279     -1958.7736      573.76441      573.76441      573.76441      1.8888646e+08  2.3023365     -13386751      -13386751       1116.2552     -13385635      -1996.1248     -1913.9696     -1966.2265      12.791153     -1.4474589      16.192868      14258.027    
     27000   376.16362      0.0135         0.20640309     0.19862499     0.2037104     -2002.5939      574.04762      574.04762      574.04762      1.8916629e+08  2.2989307     -13379091      -13379091       1120.151      -13377971      -2037.0401     -1960.2763     -2010.4653      11.339349     -0.57525        14.495397      14289.872    
     28000   377.84499      0.014          0.21065393     0.20329366     0.2079427     -2045.86        574.33082      574.33082      574.33082      1.894464e+08   2.2955316     -13371254      -13371254       1125.1579     -13370129      -2078.9926     -2006.3525     -2052.2349      9.004571      -0.048986223    13.290603      14382.571    
     29000   379.42502      0.0145         0.21527269     0.20798892     0.21238941    -2091.1293      574.61402      574.61402      574.61402      1.8972678e+08  2.2921392     -13363237      -13363237       1129.8629     -13362107      -2124.5763     -2052.6911     -2096.1205      9.2204825      0.2194368      12.496907      14384.8      
     30000   380.77994      0.015          0.21980154     0.21241823     0.21682631    -2135.1956      574.89722      574.89722      574.89722      1.9000745e+08  2.2887535     -13355032      -13355032       1133.8976     -13353898      -2169.2725     -2096.4049     -2139.9093      12.107349      0.29820613     13.852289      14305.374    
     31000   382.56012      0.0155         0.2239094      0.21645474     0.22077634    -2174.9831      575.18042      575.18042      575.18042      1.9028838e+08  2.2853744     -13346654      -13346654       1139.1987     -13345515      -2209.8139     -2136.2422     -2178.893       14.019134     -0.18953676     16.544071      14332.293    
     32000   384.95678      0.016          0.22755723     0.22033621     0.22453249    -2212.1093      575.46362      575.46362      575.46362      1.905696e+08   2.282002      -13338122      -13338122       1146.3356     -13336975      -2245.8153     -2174.5493     -2215.9634      13.073688     -0.67844681     19.819689      14298.466    
     33000   387.50028      0.0165         0.23109772     0.22450273     0.2285837     -2250.7909      575.74682      575.74682      575.74682      1.9085109e+08  2.2786362     -13329433      -13329433       1153.9097     -13328279      -2280.7571     -2215.6697     -2255.9457      9.5855276     -0.54568508     21.943823      14264.389    
     34000   389.73727      0.017          0.23501091     0.22879412     0.23283843    -2291.7788      576.03002      576.03002      576.03002      1.9113286e+08  2.275277      -13320576      -13320576       1160.571      -13319415      -2319.3774     -2258.0224     -2297.9366      7.6823503      1.1731479      20.883536      14300.143    
     35000   391.66993      0.0175         0.23907846     0.23258454     0.23670669    -2330.3551      576.31322      576.31322      576.31322      1.914149e+08   2.2719245     -13311552      -13311552       1166.3262     -13310385      -2359.5209     -2295.4309     -2336.1134      8.8980098      3.4479935      18.597873      14280.446    
     36000   393.78858      0.018          0.24269981     0.23573504     0.24000212    -2363.4739      576.59642      576.59642      576.59642      1.9169723e+08  2.2685785     -13302386      -13302386       1172.6351     -13301213      -2395.2609     -2326.524      -2368.6368      10.443158      3.131673       15.551776      14218.05     
     37000   396.21379      0.0185         0.24569136     0.2388635      0.24297566    -2393.3893      576.87962      576.87962      576.87962      1.9197983e+08  2.2652391     -13293097      -13293097       1179.857      -13291917      -2424.7852     -2357.3995     -2397.9833      10.111192      1.25984        12.095511      14296.134    
     38000   398.89172      0.019          0.24860441     0.24223621     0.24595039    -2423.854       577.16282      577.16282      577.16282      1.922627e+08   2.2619062     -13283681      -13283681       1187.8314     -13282493      -2453.5347     -2390.6855     -2427.3417      8.2488432      0.80904233     11.999796      14378.446    
     39000   401.29087      0.0195         0.25185526     0.24568389     0.24912243    -2456.3256      577.44602      577.44602      577.44602      1.9254586e+08  2.2585799     -13274131      -13274131       1194.9757     -13272936      -2485.6182     -2424.7114     -2458.6473      5.021044       2.630035       16.749254      14271.768    
     40000   403.23946      0.02           0.25528086     0.24909004     0.25227683    -2489.1775      577.72922      577.72922      577.72922      1.9282929e+08  2.25526       -13264441      -13264441       1200.7782     -13263240      -2519.4262     -2458.3276     -2489.7788      3.7876665      3.5251693      21.019214      14174.914    
     41000   404.99645      0.0205         0.25847093     0.25240553     0.25546495    -2521.0672      578.01242      578.01242      578.01242      1.93113e+08    2.2519467     -13254611      -13254611       1206.0103     -13253405      -2550.9097     -2491.0489     -2521.243       5.8867546      2.1047773      20.394937      14318.768    
     42000   406.30297      0.021          0.26132233     0.25552933     0.25879138    -2551.6672      578.29562      578.29562      578.29562      1.9339699e+08  2.2486399     -13244653      -13244653       1209.9009     -13243443      -2579.0509     -2521.8784     -2554.0723      7.1329034      1.3389317      16.954061      14264.245    
     43000   407.35809      0.0215         0.26379231     0.25832838     0.26171743    -2578.6269      578.57882      578.57882      578.57882      1.9368126e+08  2.2453396     -13234577      -13234577       1213.0428     -13233364      -2603.4276     -2549.5029     -2582.9502      6.2915878      2.4757924      16.579829      14291.248    
     44000   409.22399      0.022          0.2662029      0.26069        0.26381279    -2601.2195      578.86203      578.86203      578.86203      1.9396581e+08  2.2420457     -13224394      -13224394       1218.5992     -13223176      -2627.2184     -2572.8102     -2603.6298      6.8526741      4.5062187      19.907892      14282.744    
     45000   412.15865      0.0225         0.26875974     0.26300855     0.26553633    -2622.9283      579.14523      579.14523      579.14523      1.9425063e+08  2.2387582     -13214121      -13214121       1227.3381     -13212894      -2652.4524     -2595.6926     -2620.6398      6.7666675      4.3657621      21.15215       14261.254    
     46000   414.88553      0.023          0.27139471     0.26570339     0.267799      -2647.9056      579.42843      579.42843      579.42843      1.9453574e+08  2.2354772     -13203752      -13203752       1235.4583     -13202516      -2678.4575     -2622.2885     -2642.9706      4.3216512      2.4353927      19.545442      14202.327    
     47000   416.35423      0.0235         0.27362866     0.26844265     0.27076453    -2674.022       579.71163      579.71163      579.71163      1.9482112e+08  2.2322026     -13193267      -13193267       1239.8318     -13192027      -2700.5049     -2649.323      -2672.2381      2.9155968      2.4725574      17.018002      14111.273    
     48000   417.35865      0.024          0.27550097     0.27071407     0.27355398    -2696.8304      579.99483      579.99483      579.99483      1.9510678e+08  2.2289343     -13182673      -13182673       1242.8228     -13181430      -2718.9832     -2671.7401     -2699.7679      4.0499864      2.9563083      15.036695      14300.912    
     49000   418.97845      0.0245         0.27765262     0.27239338     0.27584802    -2716.9801      580.27803      580.27803      580.27803      1.9539272e+08  2.2256725     -13171991      -13171991       1247.6463     -13170744      -2740.2183     -2688.3136     -2722.4083      5.012413       3.5677452      15.810136      14136.549    
     50000   420.74827      0.025          0.2800317      0.27427551     0.27796809    -2737.9729      580.56123      580.56123      580.56123      1.9567894e+08  2.222417      -13161227      -13161227       1252.9165     -13159974      -2763.698      -2706.8888     -2743.3318      5.000983       5.6935778      17.712723      13677.718    
     51000   422.08861      0.0255         0.28218745     0.27681273     0.27969689    -2759.0989      580.84443      580.84443      580.84443      1.9596544e+08  2.2191678     -13150366      -13150366       1256.9078     -13149109      -2784.9736     -2731.9293     -2760.3937      5.470458       7.4726137      19.681444      14140.327    
     52000   423.47948      0.026          0.28391747     0.27939328     0.28111416    -2777.9419      581.12763      581.12763      581.12763      1.9625222e+08  2.215925      -13139417      -13139417       1261.0496     -13138156      -2802.0475     -2757.3972     -2774.3811      6.2836492      6.5045274      20.333687      14183.399    
     53000   425.24129      0.0265         0.28550005     0.28134223     0.28295268    -2795.6081      581.41083      581.41083      581.41083      1.9653928e+08  2.2126885     -13128387      -13128387       1266.296      -13127120      -2817.6664     -2776.6319     -2792.5258      5.4716998      6.2349967      18.153315      14040.551    
     54000   426.5978       0.027          0.28728827     0.2828866      0.28503102    -2813.4086      581.69403      581.69403      581.69403      1.9682661e+08  2.2094583     -13117279      -13117279       1270.3354     -13116009      -2835.3147     -2791.8737     -2813.0374      3.0545366      7.2875247      15.921086      13831.778    
     55000   427.62139      0.0275         0.28874235     0.28421614     0.28665339    -2827.9032      581.97723      581.97723      581.97723      1.9711423e+08  2.2062344     -13106103      -13106103       1273.3835     -13104829      -2849.6654     -2804.9952     -2829.049       0.282715       7.3471548      14.801156      14232.692    
     56000   428.61587      0.028          0.28983832     0.28551992     0.28789281    -2839.8752      582.26043      582.26043      582.26043      1.9740213e+08  2.2030167     -13094866      -13094866       1276.3449     -13093590      -2860.4818     -2817.8625     -2841.2811     -1.716834       5.7379249      14.88686       14227.356    
     57000   429.32896      0.0285         0.29111645     0.28710518     0.28926304    -2853.8027      582.54363      582.54363      582.54363      1.9769031e+08  2.1998053     -13083565      -13083565       1278.4683     -13082286      -2873.096      -2833.5078     -2854.8043     -1.0355718      4.2580392      16.959067      14299.117    
     58000   429.89263      0.029          0.29277156     0.28872244     0.29071046    -2869.3296      582.82683      582.82683      582.82683      1.9797877e+08  2.1966002     -13072191      -13072191       1280.1468     -13070911      -2889.4306     -2849.4689     -2869.0892      1.699468       3.8224804      18.66979       12856.274    
     59000   431.00901      0.0295         0.29416428     0.29005309     0.2918553     -2882.055       583.11003      583.11003      583.11003      1.9826751e+08  2.1934013     -13060753      -13060753       1283.4712     -13059470      -2903.1757     -2862.6014     -2880.3878      4.3742481      5.2312494      18.407542      14089.776    
     60000   432.22023      0.03           0.29495803     0.29122698     0.29288857    -2891.9272      583.39324      583.39324      583.39324      1.9855653e+08  2.1902085     -13049263      -13049263       1287.0781     -13047975      -2911.0094     -2874.1868     -2890.5855      5.0161689      6.7359163      16.077496      13235.045    
     61000   432.76452      0.0305         0.29562381     0.29212224     0.29394003    -2900.5217      583.67644      583.67644      583.67644      1.9884583e+08  2.187022      -13037729      -13037729       1288.6988     -13036440      -2917.5802     -2883.0224     -2900.9625      5.5276803      5.4931612      15.246016      14192.637    
     62000   433.21015      0.031          0.29643694     0.29294918     0.29489093    -2909.0453      583.95964      583.95964      583.95964      1.9913541e+08  2.1838417     -13026151      -13026151       1290.0258     -13024861      -2925.6052     -2891.1836     -2910.3472      7.3010118      5.3157861      14.819446      14225.398    
     63000   433.88483      0.0315         0.29747129     0.29391826     0.29589408    -2918.9362      584.24284      584.24284      584.24284      1.9942527e+08  2.1806675     -13014527      -13014527       1292.0349     -13013235      -2935.8134     -2900.7477     -2920.2475      7.0276033      6.4205373      13.678347      14247.551    
     64000   434.72827      0.032          0.29823768     0.29478829     0.29666142    -2926.8439      584.52604      584.52604      584.52604      1.9971541e+08  2.1774994     -13002859      -13002859       1294.5465     -13001565      -2943.377      -2909.3342     -2927.8206      3.448989       9.4350378      14.227223      14160.73     
     65000   435.89994      0.0325         0.29854203     0.29541926     0.29716658    -2931.5828      584.80924      584.80924      584.80924      2.0000584e+08  2.1743375     -12991159      -12991159       1298.0356     -12989861      -2946.3807     -2915.5614     -2932.8061      0.51808946     12.849965      15.737069      14370.364    
     66000   437.06817      0.033          0.29872019     0.296249       0.2979689     -2937.5379      585.09244      585.09244      585.09244      2.0029654e+08  2.1711817     -12979428      -12979428       1301.5144     -12978127      -2948.139      -2923.7503     -2940.7244     -0.91300242     11.031534      15.632142      14126.673    
     67000   437.11661      0.0335         0.29926487     0.2972467      0.29893337    -2945.7848      585.37564      585.37564      585.37564      2.0058753e+08  2.168032      -12967658      -12967658       1301.6586     -12966357      -2953.5147     -2933.5969     -2950.243      -1.0385066      6.516099       15.16477       14069.385    
     68000   436.8071       0.034          0.29992601     0.29781505     0.29940585    -2951.3839      585.65884      585.65884      585.65884      2.008788e+08   2.1648885     -12955853      -12955853       1300.737      -12954553      -2960.0396     -2939.2061     -2954.906       0.79816877     7.1403932      14.954417      14160.985    
     69000   436.83479      0.0345         0.30061925     0.29818384     0.29942092    -2954.9272      585.94204      585.94204      585.94204      2.0117035e+08  2.1617509     -12944023      -12944023       1300.8194     -12942722      -2966.8813     -2942.8457     -2955.0547      3.9979204      10.717577      13.430212      14317.018    
     70000   437.1557       0.035          0.30094353     0.29856126     0.29944108    -2957.302       586.22524      586.22524      586.22524      2.0146219e+08  2.1586195     -12932166      -12932166       1301.775      -12930864      -2970.0818     -2946.5705     -2955.2537      6.0423149      11.426783      11.698347      14129.908    
     71000   437.8787       0.0355         0.30067437     0.29883772     0.29974914    -2958.3394      586.50844      586.50844      586.50844      2.017543e+08   2.1554941     -12920283      -12920283       1303.928      -12918979      -2967.4253     -2949.299      -2958.294       6.6053243      8.1356448      11.972137      14232.634    
     72000   438.35755      0.036          0.30039925     0.29912665     0.30023468    -2959.9821      586.79164      586.79164      586.79164      2.020467e+08   2.1523747     -12908389      -12908389       1305.3539     -12907084      -2964.7101     -2952.1505     -2963.0859      6.1829776      4.6230218      13.269701      14288.622    
     73000   438.46724      0.0365         0.30024909     0.29897254     0.30005546    -2958.3916      587.07484      587.07484      587.07484      2.0233938e+08  2.1492613     -12896491      -12896491       1305.6806     -12895185      -2963.2281     -2950.6295     -2961.3171      4.3288247      5.1923265      13.513297      14270.151    
     74000   438.66019      0.037          0.30008938     0.298503       0.29954857    -2954.654       587.35804      587.35804      587.35804      2.0263234e+08  2.1461539     -12884602      -12884602       1306.2551     -12883296      -2961.6519     -2945.9955     -2956.3145      1.2239013      9.8718513      11.911934      14113.543    
     75000   438.56833      0.0375         0.3000765      0.29830499     0.29936757    -2953.3648      587.64124      587.64124      587.64124      2.0292559e+08  2.1430526     -12872717      -12872717       1305.9816     -12871411      -2961.5248     -2944.0414     -2954.5282     -1.3316804      11.596226      10.148606      14255.975    
     76000   437.95758      0.038          0.30010706     0.29846373     0.29958386    -2954.6991      587.92444      587.92444      587.92444      2.0321911e+08  2.1399572     -12860812      -12860812       1304.1629     -12859508      -2961.8264     -2945.6079     -2956.6629     -1.8540322      10.170337      9.1005602      14215.271    
     77000   437.57025      0.0385         0.29956197     0.298615       0.29937668    -2952.722       588.20765      588.20765      588.20765      2.0351292e+08  2.1368677     -12848898      -12848898       1303.0095     -12847595      -2956.4468     -2947.1009     -2954.6181      0.52835895     9.5953414      9.4676663      14250.027    
     78000   438.02637      0.039          0.29868286     0.29871145     0.29856473    -2947.4761      588.49085      588.49085      588.49085      2.0380702e+08  2.1337842     -12836994      -12836994       1304.3677     -12835689      -2947.7706     -2948.0528     -2946.6048      5.0871878      9.6769948      11.944159      14133.179    
     79000   438.18412      0.0395         0.29820934     0.2988568      0.29815876    -2945.061       588.77405      588.77405      588.77405      2.041014e+08   2.1307066     -12825095      -12825095       1304.8375     -12823790      -2943.0974     -2949.4873     -2942.5982      6.6234203      9.5856931      14.501977      14179.884    
     80000   437.32467      0.04           0.2981656      0.29849588     0.29823675    -2943.9863      589.05725      589.05725      589.05725      2.0439606e+08  2.127635      -12813184      -12813184       1302.2782     -12811881      -2942.6656     -2945.9253     -2943.3679      3.4836325      10.011925      13.92692       14105.572    
     81000   436.52995      0.0405         0.29807636     0.29732275     0.29803979    -2939.1855      589.34045      589.34045      589.34045      2.04691e+08    2.1245692     -12801268      -12801268       1299.9117     -12799968      -2941.7849     -2934.3474     -2941.424       0.013520452    9.9026694      10.753711      14084        
     82000   436.92431      0.041          0.29750328     0.29607948     0.29733052    -2930.8768      589.62365      589.62365      589.62365      2.0498623e+08  2.1215094     -12789370      -12789370       1301.086      -12788069      -2936.1291     -2922.0772     -2934.4241     -0.35305124     10.548674      7.4618222      14319.375    
     83000   438.13672      0.0415         0.29659283     0.29544197     0.29649022    -2923.02        589.90685      589.90685      589.90685      2.0528174e+08  2.1184554     -12777511      -12777511       1304.6963     -12776206      -2927.1436     -2915.7855     -2926.131       0.70973696     11.250226      4.6575757      14085.161    
     84000   439.12909      0.042          0.2954936      0.2953656      0.29588034    -2917.1463      590.19005      590.19005      590.19005      2.0557753e+08  2.1154072     -12765685      -12765685       1307.6514     -12764377      -2916.2951     -2915.0318     -2920.1119      1.3341139      8.9941456      3.6756601      14106.587    
     85000   439.24962      0.0425         0.29422236     0.29523206     0.29536463    -2910.8284      590.47325      590.47325      590.47325      2.0587361e+08  2.1123649     -12753882      -12753882       1308.0104     -12752574      -2903.749      -2913.7139     -2915.0223      1.1553634      7.805002       5.4506711      14205.15     
     86000   438.37948      0.043          0.29288483     0.2946633      0.29460936    -2902.0725      590.75645      590.75645      590.75645      2.0616997e+08  2.1093285     -12742090      -12742090       1305.4192     -12740784      -2890.5486     -2908.1006     -2907.5683      0.6095026      10.344684      7.2828587      14185.09     
     87000   436.87421      0.0435         0.29179373     0.29388143     0.29355815    -2892.4527      591.03965      591.03965      591.03965      2.0646662e+08  2.1062978     -12730307      -12730307       1300.9368     -12729006      -2879.7802     -2900.3843     -2897.1937     -0.070482792    12.438123      7.973138       14203.752    
     88000   435.5314       0.044          0.29107509     0.29266812     0.29227079    -2881.862       591.32285      591.32285      591.32285      2.0676355e+08  2.103273      -12718550      -12718550       1296.9381     -12717253      -2872.6878     -2888.4098     -2884.4884      0.5279236      12.041944      6.9263166      14106.074    
     89000   434.7202       0.0445         0.29081234     0.29134414     0.29119748    -2873.1111      591.60605      591.60605      591.60605      2.0706077e+08  2.1002539     -12706826      -12706826       1294.5225     -12705531      -2870.0947     -2875.3431     -2873.8957      1.4672619      10.14188       5.3983705      14225.456    
     90000   433.91801      0.045          0.29055948     0.29017832     0.2904452     -2865.9693      591.88925      591.88925      591.88925      2.0735827e+08  2.0972407     -12695127      -12695127       1292.1337     -12693835      -2867.5991     -2863.8374     -2866.4713      1.4249933      8.3009561      6.7158169      14266.324    
     91000   433.065        0.0455         0.28958129     0.28936246     0.28978041    -2857.8803      592.17245      592.17245      592.17245      2.0765606e+08  2.0942331     -12683446      -12683446       1289.5936     -12682156      -2857.9451     -2855.7854     -2859.9103      1.4106751      7.2647853      7.9550644      14251.161    
     92000   432.25905      0.046          0.28761201     0.28859736     0.28882615    -2845.7456      592.45565      592.45565      592.45565      2.0795413e+08  2.0912314     -12671799      -12671799       1287.1936     -12670512      -2838.5098     -2848.2345     -2850.4925      1.683264       7.5985856      5.1192426      14334.763    
     93000   431.85695      0.0465         0.28554934     0.28728654     0.28758836    -2830.5757      592.73885      592.73885      592.73885      2.0825248e+08  2.0882353     -12660206      -12660206       1285.9963     -12658920      -2818.1529     -2835.2977     -2838.2764      0.59980106     9.3098517      0.32934212     14269.239    
     94000   431.64488      0.047          0.28410981     0.28579105     0.28612336    -2816.1007      593.02206      593.02206      593.02206      2.0855113e+08  2.085245      -12648672      -12648672       1285.3648     -12647386      -2803.9458     -2820.5384     -2823.818      -1.2885095      12.082954     -1.9753703      14203.003    
     95000   431.25643      0.0475         0.28320431     0.28473394     0.28481428    -2805.3377      593.30526      593.30526      593.30526      2.0885005e+08  2.0822604     -12637175      -12637175       1284.208      -12635891      -2795.0092     -2810.1055     -2810.8984     -1.9464277      11.401136     -1.335251       14268.796    
     96000   430.5547       0.048          0.28235363     0.28404585     0.28381128    -2796.9759      593.58846      593.58846      593.58846      2.0914926e+08  2.0792815     -12625698      -12625698       1282.1184     -12624416      -2786.6137     -2803.3146     -2800.9995     -1.2958581      6.7314975     -1.0393344      14266.348    
     97000   429.84963      0.0485         0.28102053     0.28317842     0.28262023    -2785.8185      593.87166      593.87166      593.87166      2.0944876e+08  2.0763083     -12614238      -12614238       1280.0188     -12612958      -2773.457      -2794.7537     -2789.2448     -1.9981452      3.6739557     -1.7421763      14134.891    
     98000   429.3589       0.049          0.27946861     0.28182196     0.28107306    -2771.1609      594.15486      594.15486      594.15486      2.0974855e+08  2.0733407     -12602825      -12602825       1278.5575     -12601546      -2758.1407     -2781.3665     -2773.9754     -4.2027223      6.4994403     -0.9561884      14236.322    
     99000   428.79196      0.0495         0.2780708      0.28001196     0.27946619    -2755.3218      594.43806      594.43806      594.43806      2.1004861e+08  2.0703788     -12591482      -12591482       1276.8692     -12590205      -2744.3454     -2763.5031     -2758.1168     -5.5818751      11.361667      1.4935716      14356.386    
    100000   427.9606       0.05           0.27628543     0.27816657     0.27792638    -2738.312       594.72126      594.72126      594.72126      2.1034897e+08  2.0674225     -12580212      -12580212       1274.3936     -12578937      -2726.7252     -2745.2906     -2742.9201     -4.7826145      13.144767      2.0032175      13919.939    
    101000   427.32535      0.0505         0.27416198     0.27665822     0.27629048    -2720.9826      595.00446      595.00446      595.00446      2.1064961e+08  2.0644719     -12568997      -12568997       1272.5019     -12567724      -2705.7684     -2730.4043     -2726.775      -2.8810558      11.775781     -0.94579054     14044.132    
    102000   426.54296      0.051          0.27268266     0.2754189      0.27492186    -2707.5365      595.28766      595.28766      595.28766      2.1095054e+08  2.0615268     -12557819      -12557819       1270.1721     -12556549      -2691.1686     -2718.1732     -2713.2678     -1.5420622      9.3576931     -4.5755951      14274.955    
    103000   425.14812      0.0515         0.27164135     0.27418648     0.27353744    -2695.5022      595.57086      595.57086      595.57086      2.1125175e+08  2.0585874     -12546680      -12546680       1266.0185     -12545414      -2680.8917     -2706.0102     -2699.6046     -1.6641184      7.9699128     -6.6033988      14223.752    
    104000   423.85812      0.052          0.27010233     0.27277579     0.2718187     -2680.1442      595.85406      595.85406      595.85406      2.1155325e+08  2.0556535     -12535598      -12535598       1262.1771     -12534335      -2665.7028     -2692.0878     -2682.642      -3.1881384      7.1485305     -6.6410678      14144.395    
    105000   422.70621      0.0525         0.26815826     0.2712451      0.27016832    -2663.2838      596.13726      596.13726      596.13726      2.1185504e+08  2.0527253     -12524575      -12524575       1258.7469     -12523316      -2646.5162     -2676.981      -2666.354      -4.345888       5.2116647     -5.1281665      14102.388    
    106000   421.34001      0.053          0.26637834     0.26963011     0.26868063    -2647.2213      596.42046      596.42046      596.42046      2.1215712e+08  2.0498025     -12513605      -12513605       1254.6786     -12512351      -2628.9498     -2661.0423     -2651.6717     -4.990274       4.7600509     -4.3879236      14226.707    
    107000   420.05607      0.0535         0.26488269     0.26819083     0.26738657    -2633.309       596.70366      596.70366      596.70366      2.1245948e+08  2.0468854     -12502683      -12502683       1250.8552     -12501432      -2614.1889     -2646.8377     -2638.9003     -4.6002333      5.7439076     -4.5969454      14155.689    
    108000   418.99667      0.054          0.26352638     0.26670298     0.26605527    -2619.5728      596.98686      596.98686      596.98686      2.1276213e+08  2.0439737     -12491805      -12491805       1247.7005     -12490557      -2600.8031     -2632.1538     -2625.7614     -4.1331051      5.7520956     -5.2643256      14015.18     
    109000   418.31305      0.0545         0.26208522     0.26489502     0.26434465    -2603.2565      597.27006      597.27006      597.27006      2.1306506e+08  2.0410676     -12480988      -12480988       1245.6648     -12479742      -2586.5801     -2614.3106     -2608.8789     -4.1599563      5.4094324     -5.6035565      14207.984    
    110000   417.49552      0.055          0.26053783     0.26297581     0.26278813    -2586.7317      597.55327      597.55327      597.55327      2.1336829e+08  2.038167      -12470242      -12470242       1243.2304     -12468998      -2571.3084     -2595.3695     -2593.5172     -5.7409282      5.3134178     -5.3033322      14148.625    
    111000   415.94498      0.0555         0.25856873     0.26118436     0.26123077    -2569.2371      597.83647      597.83647      597.83647      2.136718e+08   2.0352719     -12459553      -12459553       1238.6131     -12458314      -2551.875      -2577.6892     -2578.1472     -7.7578508      5.8949748     -4.2273814      14105.53     
    112000   414.12308      0.056          0.25647861     0.2594783      0.25923918    -2550.1969      598.11967      598.11967      598.11967      2.139756e+08   2.0323822     -12448915      -12448915       1233.1878     -12447682      -2531.2471     -2560.8517     -2558.4918     -9.2451799      6.4560701     -3.4387393      14201.741    
    113000   412.4667       0.0565         0.25456516     0.25785812     0.25705036    -2531.3714      598.40287      598.40287      598.40287      2.1427968e+08  2.029498      -12438340      -12438340       1228.2554     -12437112      -2512.3628     -2544.8618     -2536.8898     -8.322199       7.0179297     -2.464929       14019.649    
    114000   411.01036      0.057          0.25272018     0.25632634     0.25531959    -2514.569       598.68607      598.68607      598.68607      2.1458406e+08  2.0266193     -12427834      -12427834       1223.9187     -12426610      -2494.1542     -2529.7443     -2519.8084     -7.0407013      7.7248516     -2.4945817      14154.067    
    115000   409.81782      0.0575         0.25085013     0.25473891     0.25398609    -2498.8079      598.96927      598.96927      598.96927      2.1488872e+08  2.023746      -12417390      -12417390       1220.3675     -12416170      -2475.6983     -2514.0776     -2506.6478     -7.699773       6.9826474     -5.1093653      14009.332    
    116000   409.02477      0.058          0.24917416     0.25304442     0.25240429    -2482.5162      599.25247      599.25247      599.25247      2.1519367e+08  2.0208782     -12407010      -12407010       1218.0059     -12405792      -2459.1578     -2497.3542     -2491.0367     -8.7839582      5.6157848     -7.429052       14215.228    
    117000   408.19915      0.0585         0.24766523     0.25143549     0.2506218     -2466.3953      599.53567      599.53567      599.53567      2.1549891e+08  2.0180158     -12396685      -12396685       1215.5474     -12395469      -2444.2657     -2481.4754     -2473.4448     -9.4126222      4.2148934     -9.1034605      14166.86     
    118000   406.99219      0.059          0.24612972     0.24988941     0.24874558    -2450.0854      599.81887      599.81887      599.81887      2.1580444e+08  2.0151587     -12386409      -12386409       1211.9532     -12385197      -2429.1115     -2466.2167     -2454.928      -9.1980428      3.8650146     -9.3478949      14055.638    
    119000   405.93606      0.0595         0.24443406     0.24821981     0.24670141    -2432.2897      600.10207      600.10207      600.10207      2.1611025e+08  2.0123071     -12376200      -12376200       1208.8083     -12374991      -2412.3766     -2449.739      -2434.7536     -8.6408243      4.5270156     -7.1034293      14209.702    
    120000   404.90038      0.06           0.24283394     0.24640169     0.24466197    -2414.3354      600.38527      600.38527      600.38527      2.1641636e+08  2.0094608     -12366068      -12366068       1205.7242     -12364862      -2396.5847     -2431.7956     -2414.6259     -9.7532347      4.6837495     -4.5428936      14086.47     
    121000   403.04644      0.0605         0.24097859     0.24435541     0.24277801    -2395.3023      600.66847      600.66847      600.66847      2.1672275e+08  2.0066199     -12356008      -12356008       1200.2035     -12354808      -2378.2738     -2411.6004     -2396.0327     -11.638893      4.4232337     -4.5193964      13959.718    
    122000   400.76655      0.061          0.23904283     0.24232764     0.24133331    -2377.5106      600.95167      600.95167      600.95167      2.1702944e+08  2.0037844     -12345998      -12345998       1193.4143     -12344805      -2359.1693     -2391.5879     -2381.7746     -10.551742      3.7244597     -4.7081502      14140.047    
    123000   398.46875      0.0615         0.237623       0.24087137     0.24033792    -2364.7744      601.23487      601.23487      601.23487      2.1733641e+08  2.0009542     -12336024      -12336024       1186.5719     -12334837      -2345.1567     -2377.2156     -2371.9508     -7.843791       2.6120706     -3.9135346      14278.543    
    124000   396.60683      0.062          0.2362952      0.23972093     0.23906059    -2352.4195      601.51807      601.51807      601.51807      2.1764367e+08  1.9981293     -12326094      -12326094       1181.0274     -12324913      -2332.0523     -2365.8616     -2359.3446     -5.83266        2.5550399     -4.3929841      14158.027    
    125000   395.73964      0.0625         0.23450815     0.23825245     0.23706975    -2335.1603      601.80127      601.80127      601.80127      2.1795122e+08  1.9953098     -12316235      -12316235       1178.4451     -12315057      -2314.4155     -2351.3689     -2339.6965     -6.5391331      3.5345092     -5.5028592      13958.035    
    126000   395.20132      0.063          0.23265494     0.23638922     0.23479024    -2315.4351      602.08447      602.08447      602.08447      2.1825906e+08  1.9924955     -12306455      -12306455       1176.842      -12305278      -2296.1257     -2332.9802     -2317.1995     -9.9635592      4.760353      -5.8622303      14130.405    
    127000   393.86714      0.0635         0.23083543     0.23448835     0.23267373    -2296.2333      602.36768      602.36768      602.36768      2.1856719e+08  1.9896865     -12296739      -12296739       1172.8691     -12295566      -2278.1686     -2314.2201     -2296.3112     -13.344327      5.750448      -4.1906915      14078.445    
    128000   392.19601      0.064          0.22872144     0.2327727      0.23098127    -2278.067       602.65088      602.65088      602.65088      2.1887561e+08  1.9868828     -12287083      -12287083       1167.8927     -12285915      -2257.3051     -2297.2879     -2279.6079     -14.769219      6.1906124     -2.4983308      14119.818    
    129000   390.64667      0.0645         0.22665127     0.23101168     0.22978579    -2261.5305      602.93408      602.93408      602.93408      2.1918432e+08  1.9840844     -12277487      -12277487       1163.2791     -12276324      -2236.8741     -2279.9081     -2267.8094     -14.181048      5.4648113     -2.074333       14151.451    
    130000   389.16817      0.065          0.22518438     0.22915997     0.22858094    -2246.6495      603.21728      603.21728      603.21728      2.1949332e+08  1.9812912     -12267952      -12267952       1158.8764     -12266793      -2222.397      -2261.6331     -2255.9185     -12.774332      3.1669482     -1.7141424      13986.438    
    131000   387.70992      0.0655         0.22417688     0.22761224     0.22712945    -2233.4684      603.50048      603.50048      603.50048      2.1980261e+08  1.9785033     -12258467      -12258467       1154.5339     -12257312      -2212.4538     -2246.3581     -2241.5933     -11.033379      1.6827076     -1.4376732      14234.14     
    132000   386.32172      0.066          0.22301057     0.22650843     0.22545112    -2220.479       603.78368      603.78368      603.78368      2.201122e+08   1.9757206     -12249024      -12249024       1150.4001     -12247874      -2200.9432     -2235.4644     -2225.0295     -10.260896      2.8469426     -1.6874779      14188.573    
    133000   384.90093      0.0665         0.22142268     0.22522051     0.22380651    -2205.608       604.06688      604.06688      604.06688      2.2042207e+08  1.9729431     -12239631      -12239631       1146.1692     -12238484      -2185.272      -2222.7536     -2208.7985     -10.559223      4.2408213     -1.6452352      14287.14     
    134000   383.45257      0.067          0.21968432     0.22343595     0.22214048    -2188.5377      604.35008      604.35008      604.35008      2.2073223e+08  1.9701708     -12230297      -12230297       1141.8563     -12229155      -2168.1157     -2205.1414     -2192.3561     -11.854549      3.6118123     -1.7755407      14084.812    
    135000   381.80001      0.0675         0.21803391     0.22166321     0.22037769    -2171.4773      604.63328      604.63328      604.63328      2.2104268e+08  1.9674037     -12221028      -12221028       1136.9352     -12219891      -2151.8274     -2187.6458     -2174.9587     -14.763497      1.2591688     -3.7660002      14185.002    
    136000   380.21577      0.068          0.21637473     0.22018596     0.21848614    -2154.9365      604.91648      604.91648      604.91648      2.2135343e+08  1.9646418     -12211818      -12211818       1132.2176     -12210685      -2135.4525     -2173.0665     -2156.2905     -17.191192     -0.62621238    -5.4704736      14285.551    
    137000   378.77009      0.0685         0.21473902     0.21895324     0.21696817    -2140.5064      605.19968      605.19968      605.19968      2.2166446e+08  1.9618851     -12202658      -12202658       1127.9127     -12201530      -2119.3093     -2160.9004     -2141.3093     -15.580234     -0.214026      -4.1619334      14151.014    
    138000   377.4031       0.069          0.21326347     0.21761518     0.21596444    -2127.9483      605.48288      605.48288      605.48288      2.2197579e+08  1.9591335     -12193544      -12193544       1123.842      -12192420      -2104.7468     -2147.6949     -2131.4033     -11.729736      2.3438118     -0.059467974    14096.123    
    139000   376.08368      0.0695         0.21203145     0.21592508     0.21493686    -2114.9548      605.76608      605.76608      605.76608      2.2228741e+08  1.956387      -12184476      -12184476       1119.913      -12183356      -2092.5877     -2131.0148     -2121.2619     -9.2946993      3.7477311      3.6843011      14216.309    
    140000   374.45227      0.07           0.21105781     0.21416593     0.21379456    -2102.2068      606.04928      606.04928      606.04928      2.2259932e+08  1.9536457     -12175453      -12175453       1115.0549     -12174338      -2082.9786     -2113.6534     -2109.9883     -9.1039283      2.9661426      3.4722854      14238.374    
    141000   372.4626       0.0705         0.20987593     0.21256456     0.21236439    -2088.3457      606.33248      606.33248      606.33248      2.2291152e+08  1.9509095     -12166479      -12166479       1109.13       -12165370      -2071.3144     -2097.8491     -2095.8736     -10.757668      1.5127731     -1.0128811      14241.086    
    142000   371.1182       0.071          0.20828382     0.21102825     0.21047259    -2071.8305      606.61568      606.61568      606.61568      2.2322401e+08  1.9481784     -12157557      -12157557       1105.1266     -12156452      -2055.6015     -2082.6869     -2077.2029     -14.314094      0.58605823    -5.2223657      14225.104    
    143000   370.91542      0.0715         0.2067364      0.20952141     0.20856644    -2055.512       606.89888      606.89888      606.89888      2.2353679e+08  1.9454524     -12148693      -12148693       1104.5228     -12147589      -2040.3296     -2067.8155     -2058.3908     -17.966774      0.67619342    -4.840753       14217.784    
    144000   370.73999      0.072          0.20546999     0.2084544      0.20731527    -2043.7196      607.18209      607.18209      607.18209      2.2384987e+08  1.9427315     -12139882      -12139882       1104.0004     -12138778      -2027.8312     -2057.285      -2046.0427     -17.604733     -0.024406204   -1.2962649      14134.487    
    145000   369.49273      0.0725         0.20442884     0.20777601     0.20662589    -2035.7948      607.46529      607.46529      607.46529      2.2416324e+08  1.9400157     -12131107      -12131107       1100.2862     -12130007      -2017.5558     -2050.5898     -2039.2389     -13.346055     -0.0030511509   1.5992049      14212.094    
    146000   367.44598      0.073          0.20328319     0.20680274     0.20574427    -2025.9238      607.74849      607.74849      607.74849      2.244769e+08   1.9373049     -12122367      -12122367       1094.1914     -12121272      -2006.2491     -2040.9844     -2030.538      -8.8436288      1.945407       1.548155       14306.331    
    147000   365.47352      0.0735         0.2020653      0.2052327      0.20428168    -2011.9407      608.03169      608.03169      608.03169      2.2479085e+08  1.9345992     -12113662      -12113662       1088.3177     -12112574      -1994.2295     -2025.4893     -2016.1034     -9.0748277      3.5817448     -0.94532878     14230.449    
    148000   363.64231      0.074          0.20086517     0.20352053     0.20264281    -1996.9685      608.31489      608.31489      608.31489      2.251051e+08   1.9318985     -12105000      -12105000       1082.8647     -12103917      -1982.3851     -2008.5914     -1999.929      -11.945723      2.5143925     -2.793887       14177.034    
    149000   362.129        0.0745         0.19949553     0.20201496     0.20120047    -1982.7649      608.59809      608.59809      608.59809      2.2541964e+08  1.9292028     -12096381      -12096381       1078.3583     -12095303      -1968.8678     -1993.7327     -1985.6942     -12.950412      0.41098038    -2.50111        14136.7      
    150000   360.94768      0.075          0.1980687      0.20060335     0.20009977    -1969.8062      608.88129      608.88129      608.88129      2.2573447e+08  1.9265121     -12087817      -12087817       1074.8406     -12086743      -1954.7861     -1979.8011     -1974.8312     -11.625512     -0.60000156    -1.5801928      13825.471    
    151000   360.02708      0.0755         0.19686118     0.19937671     0.19899283    -1958.1568      609.16449      609.16449      609.16449      2.260496e+08   1.9238265     -12079304      -12079304       1072.0992     -12078231      -1942.8688     -1967.6952     -1963.9065     -10.892097     -0.15002854     0.52758955     14128.328    
    152000   359.58821      0.076          0.19582461     0.19841875     0.19773888    -1947.4702      609.44769      609.44769      609.44769      2.2636501e+08  1.9211458     -12070837      -12070837       1070.7923     -12069766      -1932.6387     -1958.2408     -1951.531      -10.795314      1.8105593      3.771387       14306.33     
    153000   358.94418      0.0765         0.19487266     0.19762982     0.19666637    -1938.2148      609.73089      609.73089      609.73089      2.2668073e+08  1.9184701     -12062402      -12062402       1068.8745     -12061334      -1923.2436     -1950.4547     -1940.9461     -10.343283      3.7938879      5.2820262      14154.292    
    154000   357.30262      0.077          0.19398809     0.19667363     0.19593772    -1929.7621      610.01409      610.01409      610.01409      2.2699673e+08  1.9157994     -12053987      -12053987       1063.9862     -12052923      -1914.5136     -1941.0178     -1933.755      -10.581126      3.6547509      2.9117763      14136.65     
    155000   355.74767      0.0775         0.19313641     0.19554733     0.19502575    -1920.2549      610.29729      610.29729      610.29729      2.2731303e+08  1.9131336     -12045592      -12045592       1059.3558     -12044532      -1906.1081     -1929.9021     -1924.7545     -12.450623      2.443941      -0.59975694     14138.972    
    156000   355.24172      0.078          0.19241264     0.19433892     0.19379418    -1909.847       610.58049      610.58049      610.58049      2.2762962e+08  1.9104728     -12037233      -12037233       1057.8492     -12036176      -1898.9651     -1917.976      -1912.5999     -13.50219       1.682868      -1.2232805      14257.052    
    157000   354.99876      0.0785         0.19172341     0.1932022      0.19264295    -1900.0528      610.86369      610.86369      610.86369      2.2794651e+08  1.9078169     -12028920      -12028920       1057.1257     -12027863      -1892.1629     -1906.7575     -1901.2381     -13.067832      1.1769458      0.70545193     14260.114    
    158000   354.15323      0.079          0.19088561     0.19249233     0.19164537    -1891.6796      611.14689      611.14689      611.14689      2.2826369e+08  1.9051659     -12020638      -12020638       1054.6078     -12019583      -1883.8945     -1899.7516     -1891.3928     -12.28937       0.14711123     2.3331048      14204.513    
    159000   353.06731      0.0795         0.18982795     0.19196355     0.19076127    -1883.5522      611.43009      611.43009      611.43009      2.2858116e+08  1.9025199     -12012378      -12012378       1051.3742     -12011327      -1873.4563     -1894.533      -1882.6673     -10.506517     -0.69468225     2.6482502      14297.981    
    160000   352.07805      0.08           0.18864437     0.19111281     0.19004581    -1874.5061      611.7133       611.7133       611.7133       2.2889893e+08  1.8998787     -12004141      -12004141       1048.4283     -12003092      -1861.7752     -1886.1368     -1875.6063     -7.9182413     -0.88126387     0.64473538     14259.144    
    161000   351.12273      0.0805         0.18739412     0.18980156     0.18944579    -1864.1055      611.9965       611.9965       611.9965       2.2921699e+08  1.8972424     -11995934      -11995934       1045.5835     -11994889      -1849.4362     -1873.1958     -1869.6846     -6.207152       0.38796878    -2.0115667      14152.489    
    162000   350.20233      0.081          0.18622287     0.18822734     0.18859242    -1852.2662      612.2797       612.2797       612.2797       2.2953535e+08  1.894611      -11987774      -11987774       1042.8427     -11986731      -1837.8769     -1857.6594     -1861.2625     -7.0987135      3.1839091     -1.8964834      14191.081    
    163000   349.55894      0.0815         0.18516079     0.18691995     0.18730549    -1840.2376      612.5629       612.5629       612.5629       2.29854e+08    1.8919845     -11979661      -11979661       1040.9268     -11978620      -1827.3949     -1844.7565     -1848.5614     -9.42682        3.7086883      0.79764916     14308.092    
    164000   348.88308      0.082          0.18435702     0.18636168     0.18596424    -1831.3445      612.8461       612.8461       612.8461       2.3017295e+08  1.8893628     -11971588      -11971588       1038.9142     -11970549      -1819.4623     -1839.2468     -1835.3243     -10.446304      1.8668479      3.3650657      14202.432    
    165000   347.80168      0.0825         0.18377732     0.18621447     0.1849986     -1825.7764      613.1293       613.1293       613.1293       2.3049219e+08  1.8867459     -11963536      -11963536       1035.694      -11962501      -1813.7411     -1837.794      -1825.7942     -9.1687726      0.73438004     4.0841228      14284.687    
    166000   346.38333      0.083          0.18339724     0.18577769     0.18428714    -1820.7486      613.4125       613.4125       613.4125       2.3081172e+08  1.8841339     -11955490      -11955490       1031.4704     -11954458      -1809.99       -1833.4833     -1818.7727     -7.2707887      1.2752559      3.0931967      14231.01     
    167000   345.18528      0.0835         0.18293626     0.18475414     0.18366924    -1813.8322      613.6957       613.6957       613.6957       2.3113155e+08  1.8815267     -11947444      -11947444       1027.9028     -11946416      -1805.4405     -1823.3816     -1812.6744     -6.3328908      1.9168536      1.1830996      14198.112    
    168000   344.73178      0.084          0.18224408     0.18363206     0.18318296    -1806.264       613.9789       613.9789       613.9789       2.3145168e+08  1.8789243     -11939420      -11939420       1026.5524     -11938394      -1798.6092     -1812.3075     -1807.8752     -6.377916       2.2089401     -0.45884306     14259.885    
    169000   345.01243      0.0845         0.1811035      0.18276436     0.18243339    -1797.1914      614.2621       614.2621       614.2621       2.317721e+08   1.8763268     -11931443      -11931443       1027.3881     -11930416      -1787.3526     -1803.744      -1800.4776     -6.0193652      1.9629178     -1.7690948      14222.256    
    170000   345.19769      0.085          0.17976162     0.18210696     0.18151104    -1787.58        614.5453       614.5453       614.5453       2.3209282e+08  1.873734      -11923513      -11923513       1027.9398     -11922485      -1774.1093     -1797.256      -1791.3747     -5.8033946      0.9927611     -1.9523311      14263.949    
    171000   344.61588      0.0855         0.17881817     0.18128716     0.18075706    -1779.2989      614.8285       614.8285       614.8285       2.3241383e+08  1.8711459     -11915612      -11915612       1026.2072     -11914585      -1764.7981     -1789.1651     -1783.9335     -6.802747       1.2281662      0.36499627     14223.82     
    172000   343.59334      0.086          0.1784709      0.18035154     0.17998822    -1772.5493      615.1117       615.1117       615.1117       2.3273514e+08  1.8685627     -11907727      -11907727       1023.1623     -11906704      -1761.3709     -1779.9313     -1776.3456     -9.4346199      2.9135933      3.899277       14165.211    
    173000   342.52833      0.0865         0.1785718      0.17982365     0.17926929    -1768.7795      615.3949       615.3949       615.3949       2.3305675e+08  1.8659841     -11899850      -11899850       1019.9909     -11898830      -1762.3666     -1774.7215     -1769.2503     -11.657143      3.9229094      3.9766976      14293.972    
    174000   341.51423      0.087          0.17846085     0.1793243      0.17866815    -1764.7941      615.6781       615.6781       615.6781       2.3337865e+08  1.8634104     -11891973      -11891973       1016.9711     -11890956      -1761.2716     -1769.7932     -1763.3175     -10.383445      2.4970754      2.0622924      14224.12     
    175000   340.9681       0.0875         0.17767164     0.17856924     0.17788986    -1757.1535      615.9613       615.9613       615.9613       2.3370085e+08  1.8608413     -11884110      -11884110       1015.3448     -11883095      -1753.4828     -1762.3414     -1755.6364     -6.4406499      0.76525285     1.5053655      14288.992    
    176000   340.83085      0.088          0.17642463     0.17770944     0.17700792    -1747.3213      616.2445       616.2445       616.2445       2.3402334e+08  1.858277      -11876288      -11876288       1014.9361     -11875273      -1741.1757     -1753.8558     -1746.9323     -2.8576908      1.6296244      2.5498335      14265.009    
    177000   340.56268      0.0885         0.17514676     0.17690591     0.17619671    -1737.8053      616.52771      616.52771      616.52771      2.3434613e+08  1.8557174     -11868513      -11868513       1014.1375     -11867499      -1728.5641     -1745.9256     -1738.9263     -1.4032313      3.9932649      3.0786858      14216.447    
    178000   339.83164      0.089          0.17413247     0.17619743     0.17560165    -1730.1803      616.81091      616.81091      616.81091      2.3466922e+08  1.8531625     -11860769      -11860769       1011.9606     -11859757      -1718.5538     -1738.9334     -1733.0536     -3.0964066      5.8747678      2.7606214      13761.641    
    179000   338.7071       0.0895         0.17340962     0.17549306     0.17504109    -1723.641       617.09411      617.09411      617.09411      2.3499261e+08  1.8506123     -11853034      -11853034       1008.6119     -11852026      -1711.4198     -1731.9818     -1727.5213     -6.2284798      5.3652931      2.953433       14142.193    
    180000   337.87929      0.09           0.17291865     0.17474653     0.17434417    -1717.2772      617.37731      617.37731      617.37731      2.3531629e+08  1.8480667     -11845312      -11845312       1006.1468     -11844306      -1706.5744     -1724.6141     -1720.6432     -8.5740518      1.7938461      3.4520706      14317.403    
    181000   337.86207      0.0905         0.17253598     0.17417043     0.17364046    -1711.8081      617.66051      617.66051      617.66051      2.3564026e+08  1.8455258     -11837613      -11837613       1006.0956     -11836607      -1702.7978     -1718.9285     -1713.6981     -9.5925546     -1.3148026      3.3477063      14314.568    
    182000   338.17156      0.091          0.17246943     0.17390738     0.17302911    -1708.7126      617.94371      617.94371      617.94371      2.3596454e+08  1.8429896     -11829930      -11829930       1007.0172     -11828923      -1702.1409     -1716.3324     -1707.6645     -8.1868158     -0.46892909     2.8813746      14196.236    
    183000   338.40616      0.0915         0.17226387     0.17353737     0.17233748    -1704.5438      618.22691      618.22691      618.22691      2.3628911e+08  1.840458      -11822259      -11822259       1007.7158     -11821252      -1700.1122     -1712.6807     -1700.8387     -5.3730691      2.4085354      2.6090891      14314.412    
    184000   338.45475      0.092          0.1715921      0.17280882     0.17168365    -1697.7862      618.51011      618.51011      618.51011      2.3661398e+08  1.8379311     -11814606      -11814606       1007.8605     -11813599      -1693.4823     -1705.4905     -1694.3859     -4.0721626      4.5664288      2.8986657      14232.378    
    185000   337.99         0.0925         0.17075633     0.17196716     0.1712659     -1690.8936      618.79331      618.79331      618.79331      2.3693915e+08  1.8354088     -11806978      -11806978       1006.4765     -11805972      -1685.234      -1697.1839     -1690.263      -5.0414056      5.4370973      3.1206397      14206.541    
    186000   336.79597      0.093          0.17018667     0.17143526     0.17104546    -1686.5446      619.07651      619.07651      619.07651      2.3726462e+08  1.8328911     -11799360      -11799360       1002.9209     -11798357      -1679.6119     -1691.9345     -1688.0874     -7.1158068      5.0141814      2.490821       14211.491    
    187000   335.58798      0.0935         0.16970428     0.17082984     0.17056758    -1681.3938      619.35971      619.35971      619.35971      2.3759038e+08  1.830378      -11791749      -11791749       999.32371     -11790750      -1674.851      -1685.9594     -1683.3711     -7.2138851      3.1562138      1.9637444      14289.666    
    188000   335.44617      0.094          0.16890463     0.16990453     0.16962034    -1672.603       619.64291      619.64291      619.64291      2.3791644e+08  1.8278695     -11784168      -11784168       998.90141     -11783169      -1666.9591     -1676.8274     -1674.0226     -4.7578776      0.66085912     2.7206738      14242.826    
    189000   336.06665      0.0945         0.16793999     0.16896689     0.16867998    -1663.2514      619.92611      619.92611      619.92611      2.382428e+08   1.8253655     -11776626      -11776626       1000.7491     -11775625      -1657.4388     -1667.5736     -1664.7419     -2.812303      -1.2540465      3.1020922      14263.48     
    190000   336.06939      0.095          0.1673227      0.16847831     0.16820968    -1658.0662      620.20931      620.20931      620.20931      2.3856946e+08  1.8228662     -11769109      -11769109       1000.7573     -11768108      -1651.3467     -1662.7516     -1660.1004     -2.8419249     -0.36477912     1.8662361      14329.266    
    191000   335.11692      0.0955         0.1671439      0.16825315     0.16805701    -1656.2351      620.49251      620.49251      620.49251      2.3889642e+08  1.8203714     -11761594      -11761594       997.92097     -11760596      -1649.582      -1660.5295     -1658.5937     -3.9837106      1.8429153      0.49718454     14173.384    
    192000   334.22636      0.096          0.16677788     0.16779579     0.16769165    -1652.3245      620.77571      620.77571      620.77571      2.3922367e+08  1.8178811     -11754079      -11754079       995.26903     -11753084      -1645.9697     -1656.0157     -1654.9879     -4.5546152      3.3711342      1.4576303      14215.867    
    193000   333.92889      0.0965         0.16608473     0.16722225     0.1669291     -1645.6488      621.05891      621.05891      621.05891      2.3955123e+08  1.8153954     -11746583      -11746583       994.3832      -11745589      -1639.1289     -1650.3553     -1647.4622     -4.8352238      3.5357591      3.3046461      14274.528    
    194000   333.96719      0.097          0.16538467     0.16669551     0.16595112    -1638.3956      621.34212      621.34212      621.34212      2.3987908e+08  1.8129142     -11739118      -11739118       994.49726     -11738123      -1632.2198     -1645.1568     -1637.8102     -5.2778345      3.290979       4.1107643      14131.196    
    195000   333.91801      0.0975         0.1648799      0.16619637     0.16543977    -1633.4108      621.62532      621.62532      621.62532      2.4020723e+08  1.8104376     -11731668      -11731668       994.3508      -11730674      -1627.2381     -1640.2306     -1632.7636     -6.4462025      3.7194763      3.1945409      14212.223    
    196000   333.57505      0.098          0.16453649     0.1656325      0.16542798    -1630.3873      621.90852      621.90852      621.90852      2.4053568e+08  1.8079654     -11724227      -11724227       993.32954     -11723233      -1623.8489     -1634.6657     -1632.6472     -7.3029814      4.3141894      2.4454746      14249.498    
    197000   333.3095       0.0985         0.16404879     0.16499992     0.16523038    -1626.0518      622.19172      622.19172      622.19172      2.4086443e+08  1.8054978     -11716793      -11716793       992.53878     -11715800      -1619.0357     -1628.4226     -1630.6971     -6.4991209      3.7207227      3.0727389      14255.804    
    198000   333.53277      0.099          0.16344749     0.16437375     0.16450399    -1619.6241      622.47492      622.47492      622.47492      2.4119348e+08  1.8030346     -11709378      -11709378       993.20363     -11708385      -1613.1013     -1622.2428     -1623.5282     -3.6676148      2.8119162      4.5526923      14238.682    
    199000   333.93577      0.0995         0.16299623     0.16383053     0.16356506    -1613.2637      622.75812      622.75812      622.75812      2.4152283e+08  1.8005759     -11701994      -11701994       994.40371     -11701000      -1608.6477     -1616.8816     -1614.2616     -1.2952881      2.8225793      4.3097087      14164.292    
    200000   333.5978       0.1            0.16280845     0.1634658      0.16273356    -1608.7106      623.04132      623.04132      623.04132      2.4185248e+08  1.7981217     -11694632      -11694632       993.39729     -11693638      -1606.7945     -1613.2821     -1606.0554     -1.587838       2.3719828      3.0182354      13912.033    
    201000   332.62761      0.1005         0.16239878     0.16299381     0.16197385    -1603.311       623.32452      623.32452      623.32452      2.4218243e+08  1.795672      -11687279      -11687279       990.50824     -11686288      -1602.7514     -1608.6239     -1598.5576     -3.5390483      0.81725053     2.8122219      14057.629    
    202000   331.92846      0.101          0.16145438     0.16225685     0.16140577    -1595.9109      623.60772      623.60772      623.60772      2.4251268e+08  1.7932266     -11679942      -11679942       988.42628     -11678953      -1593.4308     -1601.3506     -1592.9511     -5.907425       0.44624423     3.1148188      14019.989    
    203000   331.84281      0.1015         0.16054179     0.16155829     0.16110584    -1589.6239      623.89092      623.89092      623.89092      2.4284323e+08  1.7907858     -11672632      -11672632       988.17123     -11671644      -1584.4242     -1594.4564     -1589.9911     -6.3624877      1.8584272      3.3804213      14055.496    
    204000   331.7368       0.102          0.16012265     0.16132267     0.16109602    -1587.4376      624.17412      624.17412      624.17412      2.4317408e+08  1.7883493     -11665334      -11665334       987.85553     -11664346      -1580.2877     -1592.131      -1589.8941     -5.3999214      4.2414794      3.8954768      14295.108    
    205000   331.30991      0.1025         0.15976354     0.16120858     0.1609769     -1585.489       624.45732      624.45732      624.45732      2.4350523e+08  1.7859173     -11658036      -11658036       986.58434     -11657049      -1576.7435     -1591.005      -1588.7185     -4.2295023      6.9867033      4.036315       14119.696    
    206000   331.4611       0.103          0.15929857     0.16085822     0.16035535    -1580.762       624.74052      624.74052      624.74052      2.4383668e+08  1.7834897     -11650748      -11650748       987.03455     -11649761      -1572.1547     -1587.5472     -1582.5843     -3.1073545      8.2421371      4.2760716      14083.365    
    207000   331.90024      0.1035         0.15900602     0.16037067     0.15949251    -1575.3572      625.02372      625.02372      625.02372      2.4416843e+08  1.7810665     -11643480      -11643480       988.34225     -11642491      -1569.2674     -1582.7355     -1574.0687     -2.1175843      7.1181082      5.0003244      14290.688    
    208000   331.70067      0.104          0.15880529     0.15971101     0.15890302    -1570.5874      625.30692      625.30692      625.30692      2.4450048e+08  1.7786476     -11636225      -11636225       987.74795     -11635237      -1567.2864     -1576.2251     -1568.2509     -2.2603985      5.11661        4.7460542      14194.855    
    209000   331.00514      0.1045         0.15847321     0.15889953     0.15863541    -1565.9451      625.59012      625.59012      625.59012      2.4483283e+08  1.7762332     -11628983      -11628983       985.67679     -11627998      -1564.0089     -1568.2165     -1565.6098     -2.6240604      3.9403181      3.8749972      14202.384    
    210000   330.45291      0.105          0.15784069     0.15815124     0.15813427    -1559.7539      625.87333      625.87333      625.87333      2.4516548e+08  1.7738231     -11621760      -11621760       984.03234     -11620776      -1557.7665     -1560.8314     -1560.6639     -3.4175049      3.143167       3.7332136      14197.083    
    211000   330.28859      0.1055         0.15710335     0.15777232     0.15728122    -1553.2754      626.15653      626.15653      626.15653      2.4549844e+08  1.7714174     -11614559      -11614559       983.54302     -11613575      -1550.4896     -1557.0917     -1552.245      -4.709614       1.9064384      4.2667523      14062.087    
    212000   330.12214      0.106          0.15643011     0.15760631     0.15652373    -1548.0225      626.43973      626.43973      626.43973      2.4583169e+08  1.769016      -11607379      -11607379       983.04735     -11606396      -1543.8452     -1555.4533     -1544.7691     -5.6615204      0.58886564     4.0145871      14228.716    
    213000   329.81948      0.1065         0.15606075     0.15730878     0.15622366    -1544.8414      626.72293      626.72293      626.72293      2.4616525e+08  1.766619      -11600206      -11600206       982.1461      -11599224      -1540.1998     -1552.5169     -1541.8076     -5.184839       0.9243943      4.2833778      14125.73     
    214000   330.06233      0.107          0.15590666     0.15674431     0.15606374    -1541.9515      627.00613      627.00613      627.00613      2.4649911e+08  1.7642262     -11593039      -11593039       982.86927     -11592056      -1538.6791     -1546.946      -1540.2294     -2.8245272      2.7950417      6.3344536      14217.501    
    215000   330.95261      0.1075         0.15575474     0.15618349     0.15585555    -1538.9219      627.28933      627.28933      627.28933      2.4683327e+08  1.7618379     -11585883      -11585883       985.52036     -11584898      -1537.1798     -1541.4112     -1538.1747     -1.0841245      3.7277363      7.8656816      14136.42     
    216000   331.15195      0.108          0.1554157      0.15573292     0.15570341    -1535.8237      627.57253      627.57253      627.57253      2.4716773e+08  1.7594538     -11578746      -11578746       986.11396     -11577760      -1533.8337     -1536.9644     -1536.6732     -2.0009304      3.9602716      6.4366218      14075.552    
    217000   330.45219      0.1085         0.15476361     0.15519102     0.155453      -1531.0721      627.85573      627.85573      627.85573      2.475025e+08   1.757074      -11571620      -11571620       984.03019     -11570636      -1527.3981     -1531.6163     -1534.2019     -3.7274742      5.5656214      4.0249212      14353.196    
[...]
   3137000   322.16074      1.5685         0.0061623579   0.0061105745   0.0059316457  -59.888406      1454.8015      1454.8015      1454.8015      3.0790107e+09  0.14124023    -3047326.8     -3047326.8      959.33966     -3046367.5     -60.817744     -60.306682     -58.540792      0.27369717     0.99578261     2.2634157      13598.602    
   3138000   322.15025      1.569          0.0061555996   0.0061053743   0.0059308942  -59.846593      1455.0847      1455.0847      1455.0847      3.0808092e+09  0.14115778    -3045898.5     -3045898.5      959.30844     -3044939.2     -60.751045     -60.25536      -58.533375      0.27958951     0.99592847     2.2752665      13501.72     
   3139000   322.15903      1.5695         0.0061467954   0.0060981107   0.0059284772  -59.785782      1455.3679      1455.3679      1455.3679      3.0826084e+09  0.14107539    -3044470.7     -3044470.7      959.33457     -3043511.4     -60.664153     -60.183673     -58.50952       0.28277049     0.99888026     2.3002387      13449.489    
   3140000   322.16911      1.57           0.0061366523   0.0060886577   0.0059234207  -59.704682      1455.6511      1455.6511      1455.6511      3.0844083e+09  0.14099307    -3043044.2     -3043044.2      959.36458     -3042084.8     -60.564049     -60.09038      -58.459617      0.28510487     1.0073677      2.3349656      13441.364    
   3141000   322.16045      1.5705         0.0061282724   0.0060775691   0.0059166681  -59.618421      1455.9343      1455.9343      1455.9343      3.0862089e+09  0.14091081    -3041619.4     -3041619.4      959.33882     -3040660       -60.481346     -59.980943     -58.392974      0.29003374     1.0084003      2.3534084      13464.329    
   3142000   322.12931      1.571          0.0061239577   0.0060676671   0.0059090292  -59.546522      1456.2175      1456.2175      1456.2175      3.0880102e+09  0.14082862    -3040196       -3040196        959.24607     -3039236.8     -60.438764     -59.883218     -58.317584      0.29940187     0.99265605     2.3394089      13386.765    
   3143000   322.08697      1.5715         0.0061236468   0.0060618002   0.0059026111  -59.505085      1456.5007      1456.5007      1456.5007      3.0898122e+09  0.14074648    -3038773.5     -3038773.5      959.11999     -3037814.4     -60.435695     -59.825316     -58.254243      0.30117127     0.97265184     2.3062308      13365.378    
   3144000   322.05254      1.572          0.006124579    0.006059554    0.0058991091  -59.489241      1456.7839      1456.7839      1456.7839      3.0916149e+09  0.14066442    -3037350.9     -3037350.9      959.01746     -3036391.8     -60.444895     -59.803149     -58.21968       0.29329602     0.9547703      2.2751458      13428.644    
   3145000   322.04743      1.5725         0.0061248476   0.0060590321   0.0058958257  -59.477606      1457.0671      1457.0671      1457.0671      3.0934182e+09  0.14058241    -3035927.9     -3035927.9      959.00226     -3034968.9     -60.447546     -59.797998     -58.187276      0.28312456     0.94502418     2.2592385      13499.402    
   3146000   322.07591      1.573          0.0061239658   0.0060596268   0.0058906593  -59.459666      1457.3503      1457.3503      1457.3503      3.0952223e+09  0.14050047    -3034504.9     -3034504.9      959.08705     -3033545.8     -60.438843     -59.803867     -58.136287      0.28102859     0.94495772     2.2651912      13378.421    
   3147000   322.12527      1.5735         0.0061229767   0.0060596052   0.005885422   -59.439111      1457.6335      1457.6335      1457.6335      3.0970271e+09  0.14041859    -3033081.8     -3033081.8      959.23405     -3032122.6     -60.429081     -59.803654     -58.084599      0.28903438     0.93796138     2.2791233      13380.094    
   3148000   322.17957      1.574          0.0061218356   0.0060576705   0.0058807329  -59.413567      1457.9167      1457.9167      1457.9167      3.0988326e+09  0.14033678    -3031659       -3031659        959.39573     -3030699.6     -60.41782      -59.78456      -58.038322      0.29906946     0.91718698     2.2820391      13409.358    
   3149000   322.21963      1.5745         0.0061189807   0.0060570798   0.0058771662  -59.390498      1458.1999      1458.1999      1458.1999      3.1006388e+09  0.14025503    -3030236.1     -3030236.1      959.51504     -3029276.6     -60.389644     -59.77873      -58.003121      0.30719511     0.88529752     2.2675605      13449.28     
   3150000   322.22941      1.575          0.0061136278   0.0060583735   0.0058751084  -59.370375      1458.4831      1458.4831      1458.4831      3.1024457e+09  0.14017335    -3028813       -3028813        959.54414     -3027853.5     -60.336815     -59.791497     -57.982812      0.31157797     0.84509468     2.237567       13243.143    
   3151000   322.20307      1.5755         0.0061058716   0.0060564592   0.0058723609  -59.329523      1458.7663      1458.7663      1458.7663      3.1042533e+09  0.14009172    -3027390       -3027390        959.46572     -3026430.6     -60.260267     -59.772605     -57.955696      0.30906713     0.81022902     2.2048174      13516.901    
   3152000   322.15326      1.576          0.0060971166   0.0060482558   0.0058669575  -59.255958      1459.0495      1459.0495      1459.0495      3.1060616e+09  0.14001016    -3025967.8     -3025967.8      959.31739     -3025008.4     -60.173862     -59.691644     -57.902369      0.30072195     0.78782582     2.1921119      13534.591    
   3153000   322.1058       1.5765         0.0060893994   0.0060366547   0.0058605427  -59.171303      1459.3327      1459.3327      1459.3327      3.1078706e+09  0.13992867    -3024547       -3024547        959.17608     -3023587.8     -60.097699     -59.57715      -57.83906       0.29795143     0.7759823      2.2188343      13651.47     
   3154000   322.07489      1.577          0.0060842666   0.0060253619   0.0058547276  -59.098137      1459.6159      1459.6159      1459.6159      3.1096803e+09  0.13984724    -3023127.7     -3023127.7      959.08404     -3022168.6     -60.047043     -59.465698     -57.781669      0.30886255     0.78804592     2.2701399      13592.319    
   3155000   322.05915      1.5775         0.0060813209   0.0060180345   0.0058488476  -59.044997      1459.8991      1459.8991      1459.8991      3.1114908e+09  0.13976587    -3021709.5     -3021709.5      959.03716     -3020750.5     -60.017971     -59.393382     -57.723638      0.33035913     0.82336465     2.3055         13562.344    
   3156000   322.05933      1.578          0.0060780807   0.0060137208   0.005841312   -58.995357      1460.1823      1460.1823      1460.1823      3.1133019e+09  0.13968456    -3020292       -3020292        959.0377      -3019333       -59.985993     -59.35081      -57.649267      0.35626804     0.86402224     2.3064095      13573.189    
   3157000   322.08068      1.5785         0.0060751116   0.0060094798   0.0058335877  -58.946226      1460.4655      1460.4655      1460.4655      3.1151137e+09  0.13960332    -3018875.3     -3018875.3      959.10126     -3017916.2     -59.95669      -59.308954     -57.573034      0.36979529     0.90072742     2.2784256      13626.348    
   3158000   322.11801      1.579          0.0060720398   0.0060044554   0.0058275312  -58.899668      1460.7487      1460.7487      1460.7487      3.1169262e+09  0.13952214    -3017459.3     -3017459.3      959.21242     -3016500.1     -59.926373     -59.259368     -57.513262      0.3592244      0.93196118     2.2441406      13436.787    
   3159000   322.15224      1.5795         0.0060686513   0.0059997459   0.0058233352  -58.859223      1461.0319      1461.0319      1461.0319      3.1187394e+09  0.13944102    -3016043.7     -3016043.7      959.31436     -3015084.4     -59.892931     -59.212888     -57.47185       0.32166818     0.95433289     2.226214       13416.849    
   3160000   322.17777      1.58           0.0060647063   0.0059956353   0.0058201533  -58.822255      1461.3151      1461.3151      1461.3151      3.1205533e+09  0.13935996    -3014628.7     -3014628.7      959.39037     -3013669.3     -59.853998     -59.17232      -57.440447      0.27742463     0.96151786     2.2242058      13473.461    
   3161000   322.20288      1.5805         0.0060587997   0.0059915754   0.0058176679  -58.781291      1461.5983      1461.5983      1461.5983      3.122368e+09   0.13927897    -3013214.2     -3013214.2      959.46516     -3012254.7     -59.795704     -59.132252     -57.415918      0.24026508     0.95969434     2.2332138      13638.22     
   3162000   322.23094      1.581          0.0060535564   0.0059886962   0.0058177576  -58.754865      1461.8815      1461.8815      1461.8815      3.1241833e+09  0.13919804    -3011800.1     -3011800.1      959.54871     -3010840.6     -59.743956     -59.103836     -57.416804      0.22035569     0.95379878     2.2429386      13487.374    
   3163000   322.25427      1.5815         0.0060515311   0.0059879858   0.0058208735  -58.756116      1462.1647      1462.1647      1462.1647      3.1259993e+09  0.13911718    -3010385.8     -3010385.8      959.61819     -3009426.2     -59.723968     -59.096825     -57.447555      0.2183241      0.9409131      2.2382887      13462.108    
   3164000   322.26512      1.582          0.0060502212   0.0059876593   0.0058235602  -58.759571      1462.4479      1462.4479      1462.4479      3.1278161e+09  0.13903637    -3008970.7     -3008970.7      959.65051     -3008011.1     -59.711041     -59.093603     -57.474071      0.22925275     0.91950682     2.2223833      13545.062    
   3165000   322.25287      1.5825         0.0060471101   0.005985147    0.0058218999  -58.73561       1462.7311      1462.7311      1462.7311      3.1296335e+09  0.13895563    -3007555.2     -3007555.2      959.61401     -3006595.5     -59.680337     -59.068808     -57.457685      0.24406583     0.89099301     2.2076655      13463.347    
   3166000   322.22293      1.583          0.0060424151   0.005980718    0.0058148933  -58.682544      1463.0143      1463.0143      1463.0143      3.1314517e+09  0.13887495    -3006140       -3006140        959.52485     -3005180.5     -59.634001     -59.025097     -57.388535      0.25328829     0.85992553     2.2021475      13253.3      
   3167000   322.18457      1.5835         0.0060371421   0.0059761635   0.0058052165  -58.61838       1463.2975      1463.2975      1463.2975      3.1332705e+09  0.13879434    -3004725.8     -3004725.8      959.41065     -3003766.4     -59.58196      -58.980148     -57.293033      0.2554714      0.83684979     2.2081006      13356.363    
   3168000   322.14253      1.584          0.0060317224   0.0059713071   0.0057961581  -58.554775      1463.5807      1463.5807      1463.5807      3.1350901e+09  0.13871378    -3003312.6     -3003312.6      959.28544     -3002353.4     -59.528472     -58.932219     -57.203633      0.25082238     0.82947041     2.2096873      13438.983    
   3169000   322.10542      1.5845         0.0060254415   0.0059641405   0.0057892247  -58.487727      1463.8639      1463.8639      1463.8639      3.1369103e+09  0.13863329    -3001900.4     -3001900.4      959.17495     -3000941.3     -59.466484     -58.861491     -57.135206      0.24237936     0.8267895      2.203978       13367.971    
   3170000   322.08591      1.585          0.006018719    0.0059552178   0.0057839161  -58.418794      1464.1471      1464.1471      1464.1471      3.1387313e+09  0.13855286    -3000489.5     -3000489.5      959.11685     -2999530.3     -59.400138     -58.77343      -57.082813      0.23758311     0.81799581     2.1998957      13357.914    
   3171000   322.08791      1.5855         0.0060126728   0.0059465533   0.0057806211  -58.35956       1464.4303      1464.4303      1464.4303      3.1405529e+09  0.13847249    -2999079.7     -2999079.7      959.12279     -2998120.6     -59.340467     -58.687918     -57.050295      0.23605366     0.81675587     2.2020668      13350.612    
   3172000   322.09763      1.586          0.0060086757   0.0059396273   0.0057778077  -58.314371      1464.7135      1464.7135      1464.7135      3.1423753e+09  0.13839219    -2997670.7     -2997670.7      959.15174     -2996711.6     -59.301019     -58.619564     -57.022529      0.23448308     0.82968109     2.2029327      13388.487    
   3173000   322.09995      1.5865         0.006006551    0.0059359665   0.0057759703  -58.289293      1464.9967      1464.9967      1464.9967      3.1441984e+09  0.13831195    -2996261.9     -2996261.9      959.15866     -2995302.8     -59.280049     -58.583434     -57.004395      0.23681544     0.85852585     2.2069379      13349.074    
   3174000   322.10001      1.587          0.0060038846   0.0059336922   0.0057750593  -58.270042      1465.2799      1465.2799      1465.2799      3.1460222e+09  0.13823177    -2994853       -2994853        959.15883     -2993893.9     -59.253734     -58.560989     -56.995404      0.25580531     0.89532344     2.2106968      13350.1      
   3175000   322.11211      1.5875         0.0060006699   0.005930366    0.0057733848  -58.243015      1465.5631      1465.5631      1465.5631      3.1478467e+09  0.13815165    -2993444.2     -2993444.2      959.19485     -2992485       -59.222007     -58.528162     -56.978878      0.29323762     0.9311107      2.2121278      13336.852    
   3176000   322.12312      1.588          0.0059977688   0.0059270097   0.0057706273  -58.213359      1465.8463      1465.8463      1465.8463      3.1496718e+09  0.13807159    -2992035.5     -2992035.5      959.22764     -2991076.3     -59.193376     -58.495038     -56.951663      0.33108251     0.96558819     2.2094191      13341.98     
   3177000   322.11186      1.5885         0.0059935687   0.0059240308   0.0057667531  -58.176997      1466.1295      1466.1295      1466.1295      3.1514977e+09  0.13799159    -2990627.1     -2990627.1      959.19412     -2989667.9     -59.151924     -58.465638     -56.913428      0.34451994     0.99216601     2.2066923      13280.008    
   3178000   322.08224      1.589          0.0059856645   0.0059203768   0.0057609702  -58.119949      1466.4127      1466.4127      1466.4127      3.1533243e+09  0.13791166    -2989219.1     -2989219.1      959.10591     -2988260       -59.073915     -58.429577     -56.856356      0.32071949     1.0055902      2.1999267      13195.788    
   3179000   322.04987      1.5895         0.0059759131   0.0059165396   0.0057544202  -58.053698      1466.6959      1466.6959      1466.6959      3.1551517e+09  0.13783179    -2987812.2     -2987812.2      959.00952     -2986853.2     -58.977677     -58.391706     -56.791712      0.27964152     1.0116562      2.176625       13142.222    
   3180000   322.0202       1.59           0.0059672142   0.0059120857   0.0057476727  -57.988231      1466.9791      1466.9791      1466.9791      3.1569797e+09  0.13775198    -2986406.5     -2986406.5      958.92116     -2985447.6     -58.891825     -58.347749     -56.725119      0.24856019     1.0149217      2.1391434      13172.505    
   3181000   321.99968      1.5905         0.0059626126   0.0059064069   0.0057400833  -57.929444      1467.2623      1467.2623      1467.2623      3.1588084e+09  0.13767223    -2985001.8     -2985001.8      958.86007     -2984043       -58.846411     -58.291704     -56.650218      0.23940799     1.0118826      2.1038138      13138.228    
   3182000   321.99469      1.591          0.0059622962   0.0059009237   0.0057319795  -57.883706      1467.5455      1467.5455      1467.5455      3.1606378e+09  0.13759254    -2983597.9     -2983597.9      958.84522     -2982639.1     -58.843289     -58.237589     -56.570239      0.24060487     0.99912019     2.0887808      13109.672    
   3183000   322.00675      1.5915         0.0059639034   0.0058964837   0.0057247303  -57.850538      1467.8287      1467.8287      1467.8287      3.1624679e+09  0.13751292    -2982194.5     -2982194.5      958.88112     -2981235.6     -58.85915      -58.19377      -56.498695      0.23779192     0.97819235     2.0956295      13166.522    
   3184000   322.03395      1.592          0.0059652791   0.0058933743   0.0057203465  -57.830413      1468.1119      1468.1119      1468.1119      3.1642988e+09  0.13743336    -2980791.1     -2980791.1      958.96212     -2979832.2     -58.872728     -58.163082     -56.45543       0.23430977     0.94333789     2.1207037      13226.518    
   3185000   322.06707      1.5925         0.0059643315   0.0058921382   0.0057198837  -57.821707      1468.3951      1468.3951      1468.3951      3.1661303e+09  0.13735385    -2979387.6     -2979387.6      959.06075     -2978428.6     -58.863376     -58.150883     -56.450863      0.23773463     0.90823029     2.1554495      13276.861    
   3186000   322.09186      1.593          0.005961367    0.0058926339   0.0057219104  -57.820253      1468.6783      1468.6783      1468.6783      3.1679626e+09  0.13727441    -2977983.6     -2977983.6      959.13457     -2977024.5     -58.834118     -58.155775     -56.470865      0.23756487     0.89566278     2.1795623      13240.853    
   3187000   322.10226      1.5935         0.0059578495   0.005893083    0.0057227915  -57.813057      1468.9615      1468.9615      1468.9615      3.1697955e+09  0.13719503    -2976579       -2976579        959.16554     -2975619.9     -58.799403     -58.160207     -56.479561      0.22361602     0.90556088     2.1880929      13195.42     
   3188000   322.10407      1.594          0.0059536355   0.0058910974   0.0057195389  -57.781962      1469.2447      1469.2447      1469.2447      3.1716292e+09  0.13711571    -2975174.4     -2975174.4      959.17092     -2974215.2     -58.757814     -58.140611     -56.44746       0.20269982     0.92952672     2.1831119      13209.293    
   3189000   322.09664      1.5945         0.0059464997   0.005886581    0.0057124795  -57.720405      1469.5279      1469.5279      1469.5279      3.1734636e+09  0.13703646    -2973770.3     -2973770.3      959.14879     -2972811.1     -58.687389     -58.096038     -56.377789      0.19083398     0.95910462     2.1684395      13272.145    
   3190000   322.07632      1.595          0.0059368605   0.005880347    0.0057043742  -57.641522      1469.8111      1469.8111      1469.8111      3.1752987e+09  0.13695726    -2972367.5     -2972367.5      959.08829     -2971408.4     -58.592258     -58.034513     -56.297796      0.19961158     0.97705235     2.1402277      13237.605    
   3191000   322.04269      1.5955         0.0059275185   0.0058730109   0.0056977519  -57.56487       1470.0943      1470.0943      1470.0943      3.1771344e+09  0.13687812    -2970966.3     -2970966.3      958.98814     -2970007.3     -58.500059     -57.962111     -56.232439      0.2274624      0.97442775     2.1109446      13295.48     
   3192000   322.00524      1.596          0.005919422    0.0058651659   0.0056923845  -57.494769      1470.3775      1470.3775      1470.3775      3.1789709e+09  0.13679905    -2969566.2     -2969566.2      958.87661     -2968607.4     -58.420153     -57.884687     -56.179467      0.26329388     0.95447291     2.0939174      13276.634    
   3193000   321.97869      1.5965         0.0059127482   0.0058573101   0.00568766    -57.431428      1470.6607      1470.6607      1470.6607      3.1808081e+09  0.13672003    -2968167.3     -2968167.3      958.79755     -2967208.5     -58.354288     -57.807156     -56.13284       0.29137866     0.92939495     2.0917806      13381.812    
   3194000   321.9718       1.597          0.0059069895   0.0058502286   0.005683394   -57.375153      1470.9439      1470.9439      1470.9439      3.182646e+09   0.13664108    