LAMMPS (23 Jun 2022 - Update 1)
OMP_NUM_THREADS environment is not set. Defaulting to 1 thread. (src/comm.cpp:98)
  using 1 OpenMP thread(s) per MPI task
###

# Read restart info
read_restart ${read_res}
read_restart ./trial6/3070/equpmf71.res
Reading restart file ...
  restart file = 23 Jun 2022, LAMMPS = 23 Jun 2022
  restoring atom style atomic from restart
  orthogonal box = (1650.9375 1650.9375 1650.9375) to (2349.0625 2349.0625 2349.0625)
  2 by 1 by 2 MPI processor grid
  restoring pair style table from restart
  1000 atoms
  read_restart CPU = 0.091 seconds

# Settings
pair_style table/pgn spline 10941
pair_coeff 1 1 N20e.txt DE_GNP 308 72.9   # 1.35 * r
pair_coeff 2 2 N100e.txt DE_GNP 473.9 111.78
WARNING: 20 of 10941 force values in table DE_GNP are inconsistent with -dE/dr.
WARNING:  Should only be flagged at inflection points (src/pair_table_pgn.cpp:478)
pair_coeff 1 2 mixed_potentiale.txt DE_GNP 391.2 92.95
WARNING: 1564 of 10941 force values in table DE_GNP are inconsistent with -dE/dr.
WARNING:  Should only be flagged at inflection points (src/pair_table_pgn.cpp:478)

# Neighbor list
neighbor 2.0 bin
neigh_modify delay 0 every 1 check no once yes

# Temperature
variable T equal ${Temp}
variable T equal 300

# Deformation
reset_timestep 0
variable tmp equal "lx"
variable L0 equal ${tmp}
variable L0 equal 698.125040072711
variable strain equal "(lx - v_L0)/v_L0"
variable stp equal "step"
variable tmpe equal "temp"
variable p1 equal "v_strain"
variable p2 equal "-pxx*1.01325/10000"
variable p3 equal "-pyy*1.01325/10000"
variable p4 equal "-pzz*1.01325/10000"
variable p5 equal "lx"
variable p6 equal "ly"
variable p7 equal "lz"
variable p8 equal "press"
variable p9 equal "epair"
variable p10 equal "etotal"

# Thermo
thermo_style custom step temp v_p1 v_p2 v_p3 v_p4 press lx ly lz vol density epair pe ke etotal pxx pyy pzz pxy pxz pyz spcpu
thermo ${ts_save}
thermo 1000

# Dump
# dump 1 all custom 2000 ./${N20}${N100}/tensile/trajectory/trajectory_${usic}_${trial}_*.tensile.custom id type x y z ix iy iz
# dump_modify 1 sort id
dump 2 all cfg 50000 ./trial${trial}/${N20}${N100}/tensile/trajectory/dumpten.tens_${usic}_${trial}_*.cfg mass type xs ys zs fx fy fz
dump 2 all cfg 50000 ./trial6/${N20}${N100}/tensile/trajectory/dumpten.tens_${usic}_${trial}_*.cfg mass type xs ys zs fx fy fz
dump 2 all cfg 50000 ./trial6/30${N100}/tensile/trajectory/dumpten.tens_${usic}_${trial}_*.cfg mass type xs ys zs fx fy fz
dump 2 all cfg 50000 ./trial6/3070/tensile/trajectory/dumpten.tens_${usic}_${trial}_*.cfg mass type xs ys zs fx fy fz
dump 2 all cfg 50000 ./trial6/3070/tensile/trajectory/dumpten.tens_1_${trial}_*.cfg mass type xs ys zs fx fy fz
dump 2 all cfg 50000 ./trial6/3070/tensile/trajectory/dumpten.tens_1_6_*.cfg mass type xs ys zs fx fy fz
dump_modify 2 element N20 N100

fix 1 all nvt temp ${T} ${T} 100
fix 1 all nvt temp 300 ${T} 100
fix 1 all nvt temp 300 300 100
fix 2 all deform 1 x erate ${strain_rate} y erate ${strain_rate} z erate ${strain_rate} units box
fix 2 all deform 1 x erate 5e-6 y erate ${strain_rate} z erate ${strain_rate} units box
fix 2 all deform 1 x erate 5e-6 y erate 5e-6 z erate ${strain_rate} units box
fix 2 all deform 1 x erate 5e-6 y erate 5e-6 z erate 5e-6 units box
fix             def1 all print ${ts_save} "${p1} ${p2} ${p3} ${p4}" file ./tensile/${trial}/tensile${N20}${N100}_${usic}_${trial}.txt screen no
fix             def1 all print 1000 "${p1} ${p2} ${p3} ${p4}" file ./tensile/${trial}/tensile${N20}${N100}_${usic}_${trial}.txt screen no
fix             def1 all print 1000 "${p1} ${p2} ${p3} ${p4}" file ./tensile/6/tensile${N20}${N100}_${usic}_${trial}.txt screen no
fix             def1 all print 1000 "${p1} ${p2} ${p3} ${p4}" file ./tensile/6/tensile30${N100}_${usic}_${trial}.txt screen no
fix             def1 all print 1000 "${p1} ${p2} ${p3} ${p4}" file ./tensile/6/tensile3070_${usic}_${trial}.txt screen no
fix             def1 all print 1000 "${p1} ${p2} ${p3} ${p4}" file ./tensile/6/tensile3070_1_${trial}.txt screen no
fix             def1 all print 1000 "${p1} ${p2} ${p3} ${p4}" file ./tensile/6/tensile3070_1_6.txt screen no

timestep       		${ts}
timestep       		0.1
run				${steps_tensile}
run				6000000
Generated 0 of 1 mixed pair_coeff terms from geometric mixing rule
Unused restart file global fix info:
  fix style: npt, fix ID: 5
Neighbor list info ...
  update every 1 steps, delay 0 steps, check no
  max neighbors/atom: 2000, page size: 100000
  master list distance cutoff = 113.78
  ghost atom cutoff = 113.78
  binsize = 56.89, bins = 13 13 13
  1 neighbor lists, perpetual/occasional/extra = 1 0 0
  (1) pair table/pgn, perpetual
      attributes: half, newton on
      pair build: half/bin/atomonly/newton
      stencil: half/bin/3d
      bin: standard
Per MPI rank memory allocation (min/avg/max) = 3.84 | 3.845 | 3.85 Mbytes
   Step          Temp           v_p1           v_p2           v_p3           v_p4          Press            Lx             Ly             Lz           Volume        Density         E_pair         PotEng         KinEng         TotEng          Pxx            Pyy            Pzz            Pxy            Pxz            Pyz           S/CPU     
         0   304.66068      0              0.0056546823   0.0060506245   0.012039457   -78.114198      698.12504      698.12504      698.12504      3.4025118e+08  1.7666364     -42154353      -42154353       907.22747     -42153446      -55.807375     -59.715021     -118.8202      -37.916341     -118.58971     -14.377896      0            
      1000   334.28459      0.0005         0.015261103    0.015573561    0.021670689   -172.72918      698.4741       698.4741       698.4741       3.4076182e+08  1.7639891     -42153542      -42153542       995.44242     -42152547      -150.61537     -153.69909     -213.87307     -37.626356     -116.82359     -13.962213      13827.435    
      2000   399.0478       0.001          0.024122668    0.024503717    0.030558187   -260.49698      698.82317      698.82317      698.82317      3.4127296e+08  1.7613471     -42152256      -42152256       1188.2962     -42151068      -238.07222     -241.83288     -301.58585     -36.598032     -115.70043     -14.309409      14231.776    
      3000   461.73055      0.0015         0.032129391    0.032727478    0.038637162   -340.46889      699.17223      699.17223      699.17223      3.4178461e+08  1.7587104     -42150512      -42150512       1374.9547     -42149137      -317.09244     -322.9951      -381.31914     -34.881017     -115.23537     -14.015418      14156.795    
      4000   501.31592      0.002          0.039917241    0.040727495    0.046537049   -418.39554      699.52129      699.52129      699.52129      3.4229678e+08  1.7560789     -42148275      -42148275       1492.8332     -42146783      -393.95254     -401.94912     -459.28496     -32.841636     -114.42187     -13.130729      14138.929    
      5000   515.05571      0.0025         0.047969891    0.048793608    0.054579442   -497.87957      699.87035      699.87035      699.87035      3.4280945e+08  1.7534526     -42145478      -42145478       1533.748      -42143944      -473.42602     -481.55547     -538.65721     -31.447072     -112.80453     -11.824971      14257.609    
      6000   510.95181      0.003          0.056214093    0.056967186    0.062657953   -578.4661       700.21942      700.21942      700.21942      3.4332264e+08  1.7508316     -42142085      -42142085       1521.5272     -42140563      -554.78996     -562.22241     -618.38592     -31.029262     -110.81762     -11.676773      14117.435    
      7000   497.75292      0.0035         0.064296786    0.065053234    0.070656985   -657.97189      700.56848      700.56848      700.56848      3.4383634e+08  1.7482159     -42138096      -42138096       1482.2232     -42136614      -634.55994     -642.0255      -697.33022     -31.161973     -109.33423     -13.230968      14152.043    
      8000   481.32111      0.004          0.072068498    0.072963383    0.078649605   -735.85488      700.91754      700.91754      700.91754      3.4435055e+08  1.7456053     -42133502      -42133502       1433.2921     -42132068      -711.26078     -720.0926      -776.21125     -30.895256     -107.57613     -14.864964      14226.882    
      9000   465.03227      0.0045         0.079677201    0.080715981    0.086681996   -812.81414      701.2666       701.2666       701.2666       3.4486528e+08  1.7429999     -42128304      -42128304       1384.7867     -42126919      -786.35284     -796.6048      -855.48479     -29.734388     -105.08444     -14.710692      14144.481    
     10000   450.55226      0.005          0.087242146    0.088342392    0.094466972   -888.4004       701.61567      701.61567      701.61567      3.4538051e+08  1.7403997     -42122508      -42122508       1341.6677     -42121167      -861.01304     -871.87162     -932.31652     -28.609242     -103.62111     -13.33249       14119.164    
     11000   438.00849      0.0055         0.094783895    0.09584715     0.10181454    -962.07116      701.96473      701.96473      701.96473      3.4589626e+08  1.7378047     -42116118      -42116118       1304.3145     -42114813      -935.44432     -945.93782     -1004.8314     -28.194051     -103.6527      -12.392968      14018.354    
     12000   427.13162      0.006          0.10212347     0.10313481     0.10884578    -1033.322       702.31379      702.31379      702.31379      3.4641253e+08  1.7352148     -42109143      -42109143       1271.925      -42107871      -1007.8803     -1017.8615     -1074.2243     -27.704601     -103.27811     -12.370895      14233.682    
     13000   417.80069      0.0065         0.10913123     0.11021007     0.11576106    -1102.401       702.66285      702.66285      702.66285      3.469293e+08   1.7326301     -42101617      -42101617       1244.1391     -42100373      -1077.0415     -1087.6888     -1142.4728     -26.128958     -101.88291     -12.523156      14106.806    
     14000   409.89164      0.007          0.11592593     0.11716047     0.12258321    -1170.0621      703.01192      703.01192      703.01192      3.4744659e+08  1.7300505     -42093562      -42093562       1220.5873     -42092342      -1144.1        -1156.2839     -1209.8022     -23.878348     -99.463271     -11.98042       14140.961    
     15000   403.20711      0.0075         0.12267629     0.12401808     0.12933648    -1237.0453      703.36098      703.36098      703.36098      3.479644e+08   1.727476      -42084981      -42084981       1200.6819     -42083781      -1210.7208     -1223.9633     -1276.4518     -22.657118     -96.658683     -10.296373      14275.718    
     16000   397.50551      0.008          0.12940381     0.1306276      0.13595763    -1302.7027      703.71004      703.71004      703.71004      3.4848272e+08  1.7249066     -42075876      -42075876       1183.7035     -42074692      -1277.1164     -1289.1941     -1341.7975     -22.489286     -95.39389      -9.242557       14111.33     
     17000   392.99313      0.0085         0.13592848     0.1368944      0.14243442    -1366.0903      704.0591       704.0591       704.0591       3.4900155e+08  1.7223423     -42066256      -42066256       1170.2664     -42065086      -1341.5098     -1351.0427     -1405.7185     -21.912656     -95.52995      -10.086282      14143.575    
     18000   389.64029      0.009          0.14229431     0.14311251     0.14880243    -1428.4374      704.40817      704.40817      704.40817      3.495209e+08   1.7197831     -42056140      -42056140       1160.2822     -42054979      -1404.3357     -1412.4107     -1468.5658     -21.387439     -94.853658     -11.995931      14181.426    
     19000   387.01063      0.0095         0.1485999      0.14948474     0.15506919    -1490.7602      704.75723      704.75723      704.75723      3.5004076e+08  1.717229      -42045540      -42045540       1152.4516     -42044388      -1466.567      -1475.2997     -1530.4139     -21.681505     -92.071161     -12.558846      14209.884    
     20000   384.95261      0.01           0.15479753     0.15573746     0.16123795    -1552.0123      705.10629      705.10629      705.10629      3.5056114e+08  1.7146799     -42034461      -42034461       1146.3231     -42033315      -1527.7328     -1537.0092     -1591.2948     -20.876282     -89.114746     -11.23917       14138.647    
     21000   383.60841      0.0105         0.16078557     0.16167612     0.16716704    -1610.7533      705.45535      705.45535      705.45535      3.5108203e+08  1.7121359     -42022909      -42022909       1142.3203     -42021767      -1586.8302     -1595.6192     -1649.8104     -18.314821     -87.79205      -9.3904738      14127.851    
     22000   382.87021      0.011          0.16644348     0.16739987     0.17278548    -1666.6792      705.80442      705.80442      705.80442      3.5160344e+08  1.7095969     -42010910      -42010910       1140.1221     -42009770      -1642.6694     -1652.1082     -1705.2601     -16.296332     -87.032738     -8.7015398      13998.211    
     23000   382.80288      0.0115         0.17189386     0.17297535     0.17813482    -1720.5495      706.15348      706.15348      706.15348      3.5212536e+08  1.7070629     -41998483      -41998483       1139.9216     -41997344      -1696.4605     -1707.134      -1758.054      -16.219727     -85.899328     -9.1581333      14135.002    
     24000   383.45774      0.012          0.17736439     0.1784865      0.18353384    -1774.4378      706.50254      706.50254      706.50254      3.526478e+08   1.7045339     -41985642      -41985642       1141.8717     -41984500      -1750.4504     -1761.5248     -1811.3381     -16.811254     -84.472953     -9.4752699      14127.423    
     25000   383.94113      0.0125         0.18287687     0.18398463     0.18905976    -1828.8388      706.8516       706.8516       706.8516       3.5317076e+08  1.7020099     -41972382      -41972382       1143.3111     -41971238      -1804.8544     -1815.7871     -1865.8748     -16.430891     -82.92515      -8.7265541      14144.057    
     26000   383.98479      0.013          0.1881442      0.18922143     0.19436716    -1880.8547      707.20067      707.20067      707.20067      3.5369424e+08  1.6994909     -41958699      -41958699       1143.4411     -41957555      -1856.8389     -1867.4704     -1918.2547     -15.371433     -81.622721     -7.9218382      14178.435    
     27000   384.72371      0.0135         0.19315232     0.19426714     0.19936297    -1930.3641      707.54973      707.54973      707.54973      3.5421823e+08  1.6969769     -41944606      -41944606       1145.6415     -41943460      -1906.2652     -1917.2676     -1967.5595     -14.746265     -80.249225     -7.9156716      14135.512    
     28000   385.96688      0.014          0.19828285     0.19929184     0.20439956    -1980.3413      707.89879      707.89879      707.89879      3.5474274e+08  1.6944678     -41930121      -41930121       1149.3435     -41928972      -1956.8995     -1966.8575     -2017.2668     -14.389327     -78.174473     -8.2661552      14128.018    
     29000   386.99091      0.0145         0.20337816     0.20429208     0.2093661     -2029.8918      708.24785      708.24785      708.24785      3.5526776e+08  1.6919637     -41915248      -41915248       1152.3929     -41914096      -2007.1864     -2016.2061     -2066.2828     -13.28983      -75.620772     -7.8868824      14198.899    
     30000   388.15511      0.015          0.20807743     0.209169       0.21401893    -2076.7016      708.59692      708.59692      708.59692      3.5579331e+08  1.6894645     -41900004      -41900004       1155.8596     -41898848      -2053.5646     -2064.3375     -2112.2026     -12.360276     -73.464069     -6.9983168      14099.272    
     31000   389.65818      0.0155         0.21253462     0.21380187     0.21851383    -2121.3926      708.94598      708.94598      708.94598      3.5631937e+08  1.6869702     -41884407      -41884407       1160.3355     -41883247      -2097.5536     -2110.0604     -2156.5638     -12.158653     -72.443547     -6.6190391      14118.495    
     32000   391.0872       0.016          0.21696643     0.21829743     0.22279039    -2164.8302      709.29504      709.29504      709.29504      3.5684595e+08  1.6844808     -41868460      -41868460       1164.5909     -41867296      -2141.2922     -2154.4281     -2198.7702     -12.322113     -71.748363     -6.2119889      14234.203    
     33000   392.77023      0.0165         0.22122994     0.22266664     0.22672825    -2206.1842      709.6441       709.6441       709.6441       3.5737305e+08  1.6819963     -41852171      -41852171       1169.6027     -41851001      -2183.3697     -2197.5489     -2237.6339     -12.136382     -70.601972     -5.0652349      14164.218    
     34000   394.60375      0.017          0.22545843     0.22692264     0.23082911    -2247.5867      709.99317      709.99317      709.99317      3.5790066e+08  1.6795167     -41835547      -41835547       1175.0626     -41834371      -2225.1017     -2239.5523     -2278.1062     -11.003056     -69.375189     -3.7977257      14092.503    
     35000   395.99974      0.0175         0.2298801      0.23111359     0.23515606    -2290.1546      710.34223      710.34223      710.34223      3.584288e+08   1.677042      -41818587      -41818587       1179.2196     -41817407      -2268.7402     -2280.9138     -2320.8099     -10.110469     -67.546475     -3.0143503      14179.483    
     36000   397.49181      0.018          0.23418204     0.2351136      0.23934355    -2331.2417      710.69129      710.69129      710.69129      3.5895746e+08  1.6745721     -41801303      -41801303       1183.6627     -41800120      -2311.1971     -2320.3908     -2362.1372     -9.241412      -64.834983     -3.0414934      14171.397    
     37000   399.82181      0.0185         0.23815264     0.23895121     0.24326426    -2369.8268      711.04035      711.04035      711.04035      3.5948663e+08  1.6721071     -41783714      -41783714       1190.6011     -41782523      -2350.3838     -2358.2651     -2400.8315     -8.5573152     -62.562254     -2.9757655      14125.732    
     38000   402.21763      0.019          0.24190582     0.24277889     0.24694711    -2406.8815      711.38942      711.38942      711.38942      3.6001633e+08  1.6696469     -41765820      -41765820       1197.7354     -41764623      -2387.4248     -2396.0413     -2437.1785     -8.9597327     -61.759194     -1.9962417      14124.187    
     39000   404.20934      0.0195         0.24552878     0.24656888     0.25051469    -2443.0047      711.73848      711.73848      711.73848      3.6054654e+08  1.6671915     -41747626      -41747626       1203.6664     -41746422      -2423.1806     -2433.4456     -2472.3878     -9.3509764     -61.332466     -1.0810468      14237.426    
     40000   405.89572      0.02           0.24901474     0.25025494     0.25406782    -2478.2877      712.08754      712.08754      712.08754      3.6107728e+08  1.664741      -41729142      -41729142       1208.6881     -41727934      -2457.5844     -2469.8242     -2507.4544     -8.6241446     -60.383931     -1.329504       14120.204    
     41000   407.41554      0.0205         0.25245804     0.25372402     0.25742762    -2512.0805      712.4366       712.4366       712.4366       3.6160854e+08  1.6622952     -41710382      -41710382       1213.2139     -41709169      -2491.5671     -2504.0614     -2540.6131     -7.5323399     -59.478493     -1.7315503      14072.163    
     42000   409.03243      0.021          0.25591044     0.25711244     0.26055585    -2544.8761      712.78567      712.78567      712.78567      3.6214031e+08  1.6598543     -41691352      -41691352       1218.0287     -41690134      -2525.6397     -2537.5025     -2571.4863     -7.4673998     -57.72952      -1.1407736      14213.06     
     43000   410.54448      0.0215         0.25932511     0.26055848     0.26367534    -2577.7085      713.13473      713.13473      713.13473      3.6267261e+08  1.6574181     -41672056      -41672056       1222.5314     -41670834      -2559.3399     -2571.5123     -2602.2733     -7.5235935     -54.917995      0.06451461     14166.948    
     44000   411.74777      0.022          0.26259611     0.26378735     0.26683791    -2609.4954      713.48379      713.48379      713.48379      3.6320543e+08  1.6549867     -41652496      -41652496       1226.1146     -41651270      -2591.6221     -2603.3787     -2633.4854     -6.4719622     -52.32452       1.1461952      14129.172    
     45000   413.23006      0.0225         0.26561551     0.26666683     0.2698827     -2638.9178      713.83285      713.83285      713.83285      3.6373877e+08  1.65256       -41632683      -41632683       1230.5285     -41631452      -2621.4213     -2631.797      -2663.5352     -4.7234132     -50.533241      1.9829162      14112.599    
     46000   415.18194      0.023          0.26853474     0.26955935     0.27277557    -2667.5538      714.18192      714.18192      714.18192      3.6427264e+08  1.6501381     -41612633      -41612633       1236.3409     -41611397      -2650.2318     -2660.3439     -2692.0855     -4.0931918     -49.557817      3.3250549      14243.812    
     47000   417.07027      0.0235         0.27143937     0.2726048      0.2756788     -2696.6789      714.53098      714.53098      714.53098      3.6480702e+08  1.6477209     -41592347      -41592347       1241.964      -41591105      -2678.8983     -2690.4002     -2720.7382     -4.2183251     -48.569196      4.3178759      14125.581    
     48000   418.74799      0.024          0.27441903     0.27556043     0.2785146     -2725.5336      714.88004      714.88004      714.88004      3.6534193e+08  1.6453084     -41571822      -41571822       1246.96       -41570575      -2708.3053     -2719.57       -2748.7253     -4.3777934     -47.364372      4.3313933      14122.177    
     49000   420.15599      0.0245         0.27735785     0.27829299     0.28104557    -2752.5172      715.2291       715.2291       715.2291       3.6587736e+08  1.6429006     -41551069      -41551069       1251.1528     -41549817      -2737.3091     -2746.5383     -2773.7041     -4.2131991     -45.774431      3.8434305      14222.466    
     50000   421.50048      0.025          0.27982968     0.28080627     0.28326375    -2776.2142      715.57817      715.57817      715.57817      3.6641331e+08  1.6404976     -41530102      -41530102       1255.1565     -41528847      -2761.7042     -2771.3424     -2795.5959     -3.3103808     -43.515154      3.4437632      13654.86     
     51000   423.16159      0.0255         0.28195298     0.2832766      0.28540626    -2798.3743      715.92723      715.92723      715.92723      3.6694979e+08  1.6380992     -41508935      -41508935       1260.103      -41507675      -2782.6595     -2795.7227     -2816.7408     -2.2353188     -41.419249      3.2272889      14128.313    
     52000   424.75159      0.026          0.28421982     0.28569297     0.28774075    -2821.4608      716.27629      716.27629      716.27629      3.6748679e+08  1.6357055     -41487572      -41487572       1264.8377     -41486308      -2805.0315     -2819.5704     -2839.7804     -1.5374041     -40.064197      3.8883969      14187.954    
     53000   425.85986      0.0265         0.28671368     0.28795999     0.29019701    -2845.2033      716.62535      716.62535      716.62535      3.6802431e+08  1.6333164     -41466019      -41466019       1268.1379     -41464751      -2829.644      -2841.9442     -2864.0218     -1.0534008     -39.207134      5.557409       14168.237    
     54000   426.744        0.027          0.28920734     0.29011094     0.29242591    -2867.8154      716.97442      716.97442      716.97442      3.6856236e+08  1.630932      -41444276      -41444276       1270.7708     -41443005      -2854.2545     -2863.1724     -2886.0193     -1.2022869     -38.228105      7.1435181      13813.04     
     55000   427.67822      0.0275         0.29149154     0.29217816     0.29439555    -2888.6101      717.32348      717.32348      717.32348      3.6910093e+08  1.6285522     -41422350      -41422350       1273.5527     -41421076      -2876.7979     -2883.5742     -2905.4582     -1.1188108     -37.397094      7.5893017      14140.835    
     56000   428.69851      0.028          0.29341277     0.29412068     0.29620376    -2907.2694      717.67254      717.67254      717.67254      3.6964002e+08  1.6261771     -41400246      -41400246       1276.591      -41398969      -2895.7589     -2902.7454     -2923.3039     -0.11028722    -35.916874      7.1701754      14234.785    
     57000   429.74728      0.0285         0.29516766     0.29610356     0.29792072    -2925.214       718.0216       718.0216       718.0216       3.7017964e+08  1.6238066     -41377970      -41377970       1279.714      -41376690      -2913.0783     -2922.315      -2940.2489      1.2378177     -33.308128      7.2809103      14082.83     
     58000   430.50025      0.029          0.29690538     0.29810875     0.29960746    -2943.0762      718.37067      718.37067      718.37067      3.7071979e+08  1.6214407     -41355531      -41355531       1281.9562     -41354249      -2930.2283     -2942.1046     -2956.8957      1.5864887     -31.292044      7.400243       14090.894    
     59000   430.91322      0.0295         0.29867129     0.2999103      0.30136628    -2960.5983      718.71973      718.71973      718.71973      3.7126046e+08  1.6190793     -41332939      -41332939       1283.186      -41331656      -2947.6564     -2959.8845     -2974.254       1.1310069     -29.689037      7.7418213      14193.562    
     60000   431.55998      0.03           0.30032969     0.30136737     0.30303048    -2976.3222      719.06879      719.06879      719.06879      3.7180166e+08  1.6167226     -41310206      -41310206       1285.1119     -41308921      -2964.0235     -2974.2647     -2990.6783      1.2377061     -28.202288      8.7351854      14142.702    
     61000   432.70324      0.0305         0.30195713     0.30271512     0.30455828    -2991.1358      719.41785      719.41785      719.41785      3.7234338e+08  1.6143704     -41287341      -41287341       1288.5164     -41286052      -2980.0851     -2987.5659     -3005.7565      1.9093205     -26.97925       9.1785264      14137.763    
     62000   433.84095      0.031          0.30358575     0.30419867     0.30601592    -3006.1694      719.76692      719.76692      719.76692      3.7288563e+08  1.6120228     -41264348      -41264348       1291.9043     -41263057      -2996.1584     -3002.2074     -3020.1423      2.9502376     -26.744788      9.2907737      14128.601    
     63000   434.63852      0.0315         0.30498478     0.30560931     0.30738997    -3019.9327      720.11598      720.11598      720.11598      3.734284e+08   1.6096798     -41241220      -41241220       1294.2793     -41239926      -3009.9657     -3016.1294     -3033.7032      3.5711328     -27.5655        9.7812336      14230.978    
     64000   435.18037      0.032          0.30613784     0.30693065     0.30869848    -3032.3776      720.46504      720.46504      720.46504      3.739717e+08   1.6073413     -41217952      -41217952       1295.8928     -41216657      -3021.3455     -3029.17       -3046.6171      2.8270775     -27.333632      10.417009      14111.306    
     65000   435.49406      0.0325         0.30725198     0.30830634     0.30988445    -3044.47        720.8141       720.8141       720.8141       3.7451553e+08  1.6050073     -41194560      -41194560       1296.8269     -41193263      -3032.3412     -3042.747      -3058.3217      2.1019617     -25.076043      11.613344      14108.223    
     66000   435.81399      0.033          0.30852038     0.30954565     0.31083186    -3055.8365      721.16317      721.16317      721.16317      3.7505988e+08  1.6026778     -41171061      -41171061       1297.7796     -41169763      -3044.8594     -3054.978      -3067.6719      2.9419423     -22.34523       12.961612      14216.565    
     67000   436.36683      0.0335         0.3098275      0.31054479     0.3116719     -3066.187       721.51223      721.51223      721.51223      3.7560476e+08  1.6003528     -41147471      -41147471       1299.4259     -41146171      -3057.7596     -3064.8388     -3075.9625      4.1053116     -20.898351      13.093682      14156.843    
     68000   437.16527      0.034          0.31085417     0.31136307     0.31262291    -3075.385       721.86129      721.86129      721.86129      3.7615017e+08  1.5980324     -41123795      -41123795       1301.8035     -41122493      -3067.8922     -3072.9146     -3085.3483      4.1715319     -19.980907      12.708348      13989.738    
     69000   438.03661      0.0345         0.31159038     0.31215346     0.31358732    -3083.5798      722.21035      722.21035      722.21035      3.7669611e+08  1.5957164     -41100028      -41100028       1304.3982     -41098724      -3075.158      -3080.7151     -3094.8662      3.2000703     -19.189431      13.022933      14196.152    
     70000   438.79619      0.035          0.31221619     0.31303343     0.3143889     -3091.1704      722.55942      722.55942      722.55942      3.7724257e+08  1.5934049     -41076164      -41076164       1306.6601     -41074858      -3081.3342     -3089.3998     -3102.7772      2.0877943     -18.151276      13.86459       14159.208    
     71000   439.07364      0.0355         0.31293253     0.31391775     0.31514371    -3098.9193      722.90848      722.90848      722.90848      3.7778956e+08  1.5910978     -41052211      -41052211       1307.4863     -41050903      -3088.404      -3098.1274     -3110.2266      1.7035432     -17.301161      13.975668      14147.022    
     72000   438.79849      0.036          0.31364413     0.31456397     0.31565708    -3105.075       723.25754      723.25754      723.25754      3.7833708e+08  1.5887952     -41028179      -41028179       1306.667      -41026872      -3095.4269     -3104.505      -3115.2931      2.0548623     -17.314039      13.937045      14113.105    
     73000   438.58608      0.0365         0.31416253     0.314851       0.31586987    -3108.4247      723.6066       723.6066       723.6066       3.7888513e+08  1.586497      -41004100      -41004100       1306.0345     -41002793      -3100.5432     -3107.3377     -3117.3933      2.426578      -16.388498      14.617922      14237.873    
     74000   438.61897      0.037          0.31451349     0.31508689     0.31613592    -3111.2305      723.95567      723.95567      723.95567      3.7943371e+08  1.5842033     -40979982      -40979982       1306.1324     -40978676      -3104.0069     -3109.6658     -3120.0189      2.2857411     -14.117903      15.098088      14129        
     75000   438.55715      0.0375         0.31482404     0.31552006     0.31648482    -3114.825       724.30473      724.30473      724.30473      3.7998282e+08  1.581914      -40955816      -40955816       1305.9483     -40954510      -3107.0717     -3113.9409     -3123.4623      2.3303602     -12.785418      15.102888      14138.968    
     76000   438.281        0.038          0.31522468     0.31600391     0.31673251    -3118.5496      724.65379      724.65379      724.65379      3.8053246e+08  1.5796291     -40931589      -40931589       1305.126      -40930284      -3111.0257     -3118.7161     -3125.9069      2.8334078     -12.532406      15.151814      14203.029    
     77000   437.79436      0.0385         0.3155615      0.31637087     0.31694181    -3121.5533      725.00285      725.00285      725.00285      3.8108263e+08  1.5773486     -40907304      -40907304       1303.6768     -40906001      -3114.3498     -3122.3377     -3127.9724      3.005031      -12.098931      15.506658      14150.803    
     78000   437.56118      0.039          0.31567839     0.31654997     0.31714067    -3123.1813      725.35192      725.35192      725.35192      3.8163332e+08  1.5750725     -40882981      -40882981       1302.9825     -40881678      -3115.5035     -3124.1053     -3129.9351      2.6225137     -10.455759      15.420297      14086.092    
     79000   437.76773      0.0395         0.31579644     0.31668712     0.31728897    -3124.5087      725.70098      725.70098      725.70098      3.8218455e+08  1.5728007     -40858635      -40858635       1303.5975     -40857332      -3116.6685     -3125.4589     -3131.3987      1.7148968     -8.2520974      14.497174      14145.386    
     80000   437.86065      0.04           0.31597058     0.31679087     0.31725419    -3125.3085      726.05004      726.05004      726.05004      3.8273631e+08  1.5705334     -40834261      -40834261       1303.8742     -40832957      -3118.3872     -3126.4828     -3131.0554      1.2387808     -7.3327014      14.109961      14234.358    
     81000   437.75307      0.0405         0.31595961     0.31663828     0.31699236    -3123.909       726.3991       726.3991       726.3991       3.832886e+08   1.5682704     -40809859      -40809859       1303.5539     -40808555      -3118.279      -3124.9768     -3128.4713      1.7356267     -7.7448642      15.189985      14125.865    
     82000   437.40402      0.041          0.3157773      0.31627167     0.31664349    -3120.9555      726.74817      726.74817      726.74817      3.8384142e+08  1.5660117     -40785445      -40785445       1302.5145     -40784143      -3116.4796     -3121.3587     -3125.0283      2.4090006     -7.3491818      15.855662      14053.767    
     83000   436.70853      0.0415         0.3155763      0.31598051     0.31631619    -3118.2597      727.09723      727.09723      727.09723      3.8439477e+08  1.5637573     -40761030      -40761030       1300.4434     -40759729      -3114.496      -3118.4852     -3121.7981      2.9362157     -5.9578404      15.281614      14242.168    
     84000   435.67601      0.042          0.31537196     0.31584194     0.31607449    -3116.3365      727.44629      727.44629      727.44629      3.8494865e+08  1.5615073     -40736614      -40736614       1297.3688     -40735317      -3112.4792     -3117.1176     -3119.4127      3.3211879     -5.1517214      15.36451       14125.12     
     85000   434.49788      0.0425         0.31499218     0.31562667     0.31584139    -3113.6121      727.79535      727.79535      727.79535      3.8550307e+08  1.5592616     -40712194      -40712194       1293.8605     -40710900      -3108.7311     -3114.993      -3117.1122      2.5816221     -4.8153003      15.816318      14114.314    
     86000   433.91392      0.043          0.31447037     0.31513667     0.31536982    -3108.7321      728.14442      728.14442      728.14442      3.8605801e+08  1.5570203     -40687773      -40687773       1292.1215     -40686481      -3103.5813     -3110.1571     -3112.4581      1.7203046     -3.610544       16.081917      14182.432    
     87000   434.11596      0.0435         0.31408844     0.31457542     0.31472364    -3103.5036      728.49348      728.49348      728.49348      3.8661349e+08  1.5547832     -40663371      -40663371       1292.7232     -40662078      -3099.8119     -3104.618      -3106.0809      1.6136806     -1.9150392      16.75396       14177.351    
     88000   434.28446      0.044          0.31383042     0.31402697     0.31417661    -3099.0509      728.84254      728.84254      728.84254      3.871695e+08   1.5525503     -40638988      -40638988       1293.225      -40637695      -3097.2654     -3099.2052     -3100.6821      1.1964807     -0.79359977     17.271728      14104.53     
     89000   434.08431      0.0445         0.31340238     0.31344035     0.31358095    -3093.7534      729.1916       729.1916       729.1916       3.8772605e+08  1.5503218     -40614623      -40614623       1292.6289     -40613330      -3093.041      -3093.4157     -3094.8033      0.86737125    -0.43633179     17.371818      14050.935    
     90000   433.63686      0.045          0.31260714     0.31276081     0.31275815    -3086.1949      729.54067      729.54067      729.54067      3.8828313e+08  1.5480975     -40590287      -40590287       1291.2965     -40588996      -3085.1926     -3086.7092     -3086.6829      1.1277063     -0.029847833    16.696358      14229.562    
     91000   432.93518      0.0455         0.31168107     0.31193252     0.31180763    -3077.2966      729.88973      729.88973      729.88973      3.8884074e+08  1.5458775     -40565987      -40565987       1289.207      -40564698      -3076.053      -3078.5346     -3077.3021      2.3826609      0.30090029     15.889989      14122.23     
     92000   431.59191      0.046          0.31083246     0.3109604      0.3108807     -3068.2575      730.23879      730.23879      730.23879      3.8939888e+08  1.5436617     -40541732      -40541732       1285.207      -40540447      -3067.6779     -3068.9406     -3068.1539      4.2186008      0.62253608     15.890668      14105.28     
     93000   429.83245      0.0465         0.30982055     0.30986019     0.30988721    -3058.0408      730.58785      730.58785      730.58785      3.8995756e+08  1.5414502     -40517533      -40517533       1279.9676     -40516253      -3057.6911     -3058.0823     -3058.349       4.8026192      1.2243506      15.901254      14204.831    
     94000   428.42999      0.047          0.30863727     0.30875104     0.30884573    -3047.0731      730.93692      730.93692      730.93692      3.9051677e+08  1.5392428     -40493395      -40493395       1275.7914     -40492119      -3046.013      -3047.1359     -3048.0704      4.0113722      1.56033        16.114522      14149.33     
     95000   427.59803      0.0475         0.30763813     0.30783381     0.30773942    -3037.1293      731.28598      731.28598      731.28598      3.9107652e+08  1.5370397     -40469315      -40469315       1273.3139     -40468042      -3036.1523     -3038.0835     -3037.152       3.2283306      1.7722682      17.708604      14131.982    
     96000   427.04374      0.048          0.30685442     0.30701165     0.30655252    -3027.9417      731.63504      731.63504      731.63504      3.916368e+08   1.5348408     -40445286      -40445286       1271.6633     -40444014      -3028.4177     -3029.9694     -3025.4382      3.0308235      2.619282       18.67739       14133.329    
     97000   426.34517      0.0485         0.30594484     0.30598438     0.30545281    -3017.9522      731.9841       731.9841       731.9841       3.9219762e+08  1.5326461     -40421303      -40421303       1269.5831     -40420034      -3019.4408     -3019.8311     -3014.5849      3.5105963      3.4779796      17.634901      14232.31     
     98000   425.5774       0.049          0.30459731     0.30461187     0.30443108    -3005.6428      732.33317      732.33317      732.33317      3.9275897e+08  1.5304556     -40397389      -40397389       1267.2968     -40396121      -3006.1418     -3006.2854     -3004.5011      3.9312226      4.5742281      16.103646      14166.846    
     99000   424.79373      0.0495         0.30309956     0.30324792     0.30328418    -2992.4555      732.68223      732.68223      732.68223      3.9332086e+08  1.5282692     -40373561      -40373561       1264.9632     -40372296      -2991.3601     -2992.8243     -2993.1821      3.9305138      5.8069906      15.411954      14126.894    
    100000   423.51056      0.05           0.30174136     0.30207006     0.30203335    -2979.9976      733.03129      733.03129      733.03129      3.9388328e+08  1.526087      -40349818      -40349818       1261.1421     -40348557      -2977.9557     -2981.1997     -2980.8374      3.3188021      6.4238796      15.654508      13780.59     
    101000   421.75293      0.0505         0.30036026     0.30077118     0.30069834    -2966.7893      733.38035      733.38035      733.38035      3.9444624e+08  1.5239089     -40326145      -40326145       1255.9082     -40324889      -2964.3253     -2968.3807     -2967.6619      2.3217364      6.4100088      16.222762      14124.626    
    102000   419.99608      0.051          0.29887035     0.2991696      0.2991083     -2951.3883      733.72942      733.72942      733.72942      3.9500973e+08  1.521735      -40302554      -40302554       1250.6766     -40301303      -2949.6211     -2952.5744     -2951.9694      1.9832488      6.4420542      17.569739      14098.687    
    103000   418.75718      0.0515         0.29733589     0.29748942     0.29729489    -2934.8473      734.07848      734.07848      734.07848      3.9557376e+08  1.5195653     -40279060      -40279060       1246.9874     -40277813      -2934.4771     -2935.9923     -2934.0725      2.8462181      6.3888842      18.807691      14182.906    
    104000   417.82474      0.052          0.2958549      0.29598336     0.29569527    -2919.7583      734.42754      734.42754      734.42754      3.9613833e+08  1.5173996     -40255672      -40255672       1244.2107     -40254427      -2919.8608     -2921.1287     -2918.2854      4.6581912      6.4830151      18.541776      14186.094    
    105000   416.75368      0.0525         0.29426958     0.29452947     0.29448766    -2905.7873      734.7766       734.7766       734.7766       3.9670343e+08  1.5152381     -40232390      -40232390       1241.0213     -40231149      -2904.2149     -2906.7798     -2906.3673      5.1180865      7.357573       17.499177      14094.685    
    106000   415.44744      0.053          0.29250508     0.29299529     0.29325081    -2890.8666      735.12567      735.12567      735.12567      3.9726908e+08  1.5130806     -40209209      -40209209       1237.1315     -40207972      -2886.8007     -2891.6387     -2894.1604      3.5165834      8.185699       17.175775      14112.835    
    107000   413.87053      0.0535         0.29080389     0.29135322     0.29164695    -2874.5919      735.47473      735.47473      735.47473      3.9783525e+08  1.5109273     -40186129      -40186129       1232.4358     -40184897      -2870.0112     -2875.4327     -2878.3316      2.6869391      8.047332       17.25726       14217.536    
    108000   412.46416      0.054          0.28906157     0.28954831     0.28970204    -2856.5241      735.82379      735.82379      735.82379      3.9840197e+08  1.508778      -40163154      -40163154       1228.2478     -40161926      -2852.8159     -2857.6197     -2859.1368      4.2406648      7.5060168      17.347126      14116.508    
    109000   411.47748      0.0545         0.28728982     0.28774802     0.28767344    -2838.0994      736.17285      736.17285      736.17285      3.9896923e+08  1.5066329     -40140296      -40140296       1225.3097     -40139071      -2835.3301     -2839.8522     -2839.1161      5.2767729      7.1225588      17.035897      14121.19     
    110000   410.44175      0.055          0.28568823     0.28611521     0.28577356    -2821.209       736.52192      736.52192      736.52192      3.9953702e+08  1.5044917     -40117561      -40117561       1222.2254     -40116339      -2819.5236     -2823.7376     -2820.3658      4.8336159      7.711249       16.74447       14203.284    
    111000   409.1156       0.0555         0.28406896     0.28453896     0.28414546    -2805.3405      736.87098      736.87098      736.87098      4.0010535e+08  1.5023547     -40094941      -40094941       1218.2764     -40093723      -2803.5427     -2808.1812     -2804.2976      4.0847607      9.3245341      16.561742      14145.294    
    112000   407.65541      0.056          0.28218235     0.28277807     0.28266836    -2788.4819      737.22004      737.22004      737.22004      4.0067422e+08  1.5002217     -40072430      -40072430       1213.9282     -40071216      -2784.9233     -2790.8026     -2789.7198      4.2259688      10.079656      16.638436      14109.672    
    113000   406.24284      0.0565         0.28014504     0.28073432     0.28102216    -2769.6406      737.5691       737.5691       737.5691       4.0124363e+08  1.4980927     -40050042      -40050042       1209.7218     -40048832      -2764.8166     -2770.6323     -2773.4731      4.6052808      9.2354446      17.421837      13977.117    
    114000   404.61591      0.057          0.2781211      0.27866541     0.27913681    -2749.9739      737.91817      737.91817      737.91817      4.0181358e+08  1.4959677     -40027787      -40027787       1204.8771     -40026582      -2744.8419     -2750.2138     -2754.8661      4.5581762      8.2586787      18.154625      14213.45     
    115000   402.56511      0.0575         0.27617391     0.27683249     0.27713756    -2730.9613      738.26723      738.26723      738.26723      4.0238407e+08  1.4938468     -40005661      -40005661       1198.7702     -40004462      -2725.6246     -2732.1242     -2735.135       4.0856943      7.5723421      18.167974      14115.803    
    116000   400.64102      0.058          0.27426086     0.27501629     0.27510427    -2712.004       738.61629      738.61629      738.61629      4.0295509e+08  1.4917299     -39983661      -39983661       1193.0405     -39982468      -2706.7443     -2714.1997     -2715.0681      3.739008       6.9889979      17.33322       14103.105    
    117000   399.49477      0.0585         0.27232162     0.27309618     0.27298954    -2692.3508      738.96535      738.96535      738.96535      4.0352666e+08  1.4896169     -39961794      -39961794       1189.6272     -39960604      -2687.6054     -2695.2498     -2694.1973      4.0315527      7.1634789      16.182831      14248.922    
    118000   398.66752      0.059          0.27043845     0.27114189     0.27090166    -2672.8579      739.31442      739.31442      739.31442      4.0409877e+08  1.487508      -39940071      -39940071       1187.1638     -39938884      -2669.0199     -2675.9624     -2673.5915      4.568444       8.2342887      14.905808      14132.878    
    119000   397.40986      0.0595         0.26862305     0.26916108     0.26900743    -2654.1379      739.66348      739.66348      739.66348      4.0467142e+08  1.485403      -39918487      -39918487       1183.4187     -39917304      -2651.1034     -2656.4133     -2654.8969      4.810271       9.3636043      14.321301      14112.19     
    120000   395.79358      0.06           0.26667244     0.26723515     0.26727891    -2635.6987      740.01254      740.01254      740.01254      4.0524461e+08  1.483302      -39897033      -39897033       1178.6057     -39895854      -2631.8524     -2637.4059     -2637.8377      5.1247889      9.6790991      14.681259      14128.181    
    121000   394.36193      0.0605         0.26456192     0.26529157     0.26543511    -2616.2961      740.3616       740.3616       740.3616       4.0581834e+08  1.481205      -39875712      -39875712       1174.3425     -39874538      -2611.0231     -2618.2242     -2619.6409      5.6749008      9.5693186      15.173361      14177.207    
    122000   392.78238      0.061          0.26244464     0.26329068     0.26346862    -2596.2791      740.71067      740.71067      740.71067      4.0639261e+08  1.4791119     -39854528      -39854528       1169.6389     -39853359      -2590.1272     -2598.477      -2600.2331      5.5856521      9.8663464      15.65145       14120.895    
    123000   390.73616      0.0615         0.26032032     0.26128439     0.26147689    -2576.1382      741.05973      741.05973      741.05973      4.0696742e+08  1.4770228     -39833477      -39833477       1163.5456     -39832314      -2569.1618     -2578.6764     -2580.5763      4.3409159      10.683122      15.037908      14108.289    
    124000   388.71905      0.062          0.25818749     0.25930336     0.25945082    -2555.9394      741.40879      741.40879      741.40879      4.0754277e+08  1.4749376     -39812561      -39812561       1157.539      -39811403      -2548.1125     -2559.1252     -2560.5805      2.9522769      10.883484      13.819394      14250.341    
    125000   386.95253      0.0625         0.2561377      0.25734438     0.25741478    -2536.0535      741.75786      741.75786      741.75786      4.0811867e+08  1.4728563     -39791789      -39791789       1152.2785     -39790636      -2527.8826     -2539.7915     -2540.4864      2.9961616      10.549873      12.810885      14115.037    
    126000   385.33551      0.063          0.25422682     0.25527615     0.25520071    -2515.6795      742.10692      742.10692      742.10692      4.0869511e+08  1.4707789     -39771171      -39771171       1147.4633     -39770023      -2509.0237     -2519.3798     -2518.6351      4.4631965      10.135571      12.632139      14093.47     
    127000   384.10144      0.0635         0.25227512     0.25321288     0.25292064    -2494.9704      742.45598      742.45598      742.45598      4.0927209e+08  1.4687054     -39750707      -39750707       1143.7885     -39749564      -2489.7618     -2499.0168     -2496.1326      6.0043121      9.3859329      12.863288      14164.912    
    128000   383.19066      0.064          0.25026406     0.25124512     0.25096462    -2475.4463      742.80504      742.80504      742.80504      4.0984961e+08  1.4666359     -39730385      -39730385       1141.0763     -39729244      -2469.9142     -2479.5965     -2476.8282      6.7202935      8.591607       12.736633      14140.148    
    129000   382.17356      0.0645         0.24824765     0.24930878     0.24931853    -2457.0276      743.15411      743.15411      743.15411      4.1042768e+08  1.4645702     -39710185      -39710185       1138.0476     -39709047      -2450.0138     -2460.4864     -2460.5826      6.8733772      8.7504144      11.902859      14122.611    
    130000   381.00463      0.065          0.24616122     0.24749823     0.24760809    -2438.5806      743.50317      743.50317      743.50317      4.1100629e+08  1.4625084     -39690116      -39690116       1134.5667     -39688981      -2429.4223     -2442.6176     -2443.7019      7.2424666      9.2546558      11.063492      14049.104    
    131000   379.93145      0.0655         0.24410435     0.24585094     0.24567956    -2420.0505      743.85223      743.85223      743.85223      4.1158545e+08  1.4604504     -39670189      -39670189       1131.371      -39669058      -2409.1226     -2426.3601     -2424.6688      7.382071       9.9755573      11.089532      14209.879    
    132000   378.73901      0.066          0.24227613     0.24411741     0.24366304    -2401.6994      744.20129      744.20129      744.20129      4.1216514e+08  1.4583964     -39650404      -39650404       1127.8201     -39649276      -2391.0795     -2409.2515     -2404.7672      6.673132       10.178511      11.20147       14115.915    
    133000   377.19567      0.0665         0.24062723     0.24210373     0.24156553    -2382.7502      744.55036      744.55036      744.55036      4.1274538e+08  1.4563461     -39630751      -39630751       1123.2243     -39629628      -2374.8061     -2389.378      -2384.0664      6.3999869      9.8985268      10.625511      14114.541    
    134000   375.3953       0.067          0.23889132     0.2400567      0.2393927     -2363.1572      744.89942      744.89942      744.89942      4.1332617e+08  1.4542997     -39611225      -39611225       1117.8631     -39610108      -2357.674      -2369.1754     -2362.6223      7.2758265      9.45373        9.4377914      14213.942    
    135000   373.68994      0.0675         0.23694339     0.23808409     0.2373635     -2343.5841      745.24848      745.24848      745.24848      4.139075e+08   1.4522572     -39591834      -39591834       1112.7848     -39590721      -2338.4495     -2349.7073     -2342.5956      8.0116972      8.6081811      8.326592       14144.327    
    136000   372.24314      0.068          0.23494895     0.2361501      0.23566946    -2325.0876      745.59754      745.59754      745.59754      4.1448938e+08  1.4502185     -39572581      -39572581       1108.4765     -39571473      -2318.7658     -2330.6203     -2325.8767      7.9542024      7.7510581      7.3318156      14123.956    
    137000   371.02274      0.0685         0.23306093     0.23437009     0.23411553    -2307.9087      745.94661      745.94661      745.94661      4.150718e+08   1.4481835     -39553463      -39553463       1104.8424     -39552358      -2300.1325     -2313.0529     -2310.5407      8.0572862      8.3195516      6.5475505      14170.102    
    138000   369.86063      0.069          0.23126715     0.23276481     0.23235855    -2290.9466      746.29567      746.29567      746.29567      4.1565476e+08  1.4461524     -39534476      -39534476       1101.3818     -39533375      -2282.4293     -2297.2101     -2293.2006      8.4759089      9.3946305      6.0659596      14170.227    
    139000   368.56179      0.0695         0.22951782     0.23122449     0.2304672     -2273.9025      746.64473      746.64473      746.64473      4.1623827e+08  1.4441251     -39515608      -39515608       1097.5141     -39514511      -2265.1648     -2282.0083     -2274.5344      8.9083579      9.3942851      6.4206752      14091.305    
    140000   367.24813      0.07           0.22777988     0.22966144     0.2286516     -2257.0702      746.99379      746.99379      746.99379      4.1682233e+08  1.4421016     -39496850      -39496850       1093.6022     -39495757      -2248.0126     -2266.5822     -2256.6158      8.4406019      8.5844081      7.1026702      14115.998    
    141000   366.32241      0.0705         0.22610433     0.22803178     0.22692062    -2240.5024      747.34286      747.34286      747.34286      4.1740694e+08  1.4400818     -39478209      -39478209       1090.8456     -39477118      -2231.4762     -2250.4986     -2239.5324      7.4734358      7.9170575      6.2144553      14221.586    
    142000   365.43028      0.071          0.22464354     0.22629157     0.22527749    -2224.5665      747.69192      747.69192      747.69192      4.1799209e+08  1.4380659     -39459689      -39459689       1088.189      -39458601      -2217.0594     -2233.3242     -2223.3159      6.976781       7.4863485      4.6090607      14099.164    
    143000   363.99082      0.0715         0.22321963     0.22448097     0.22372664    -2208.8239      748.04098      748.04098      748.04098      4.1857778e+08  1.4360536     -39441286      -39441286       1083.9025     -39440202      -2203.0065     -2215.4549     -2208.0103      6.9264604      7.7376775      4.0364205      14123.125    
    144000   362.28195      0.072          0.22156635     0.22273471     0.2221469     -2192.4433      748.39004      748.39004      748.39004      4.1916403e+08  1.4340452     -39422998      -39422998       1078.8138     -39421920      -2186.6898     -2198.2207     -2192.4194      6.9958019      8.3021801      4.2480834      14208.646    
    145000   361.01948      0.0725         0.21978432     0.22123178     0.22052639    -2176.3056      748.73911      748.73911      748.73911      4.1975082e+08  1.4320404     -39404827      -39404827       1075.0544     -39403752      -2169.1026     -2183.3879     -2176.4262      7.7292476      8.3815178      4.8061883      14112.748    
    146000   360.20487      0.073          0.21819595     0.21996369     0.21905417    -2162.0653      749.08817      749.08817      749.08817      4.2033815e+08  1.4300395     -39386755      -39386755       1072.6286     -39385682      -2153.4266     -2170.8728     -2161.8965      9.3168949      8.0130894      5.1567679      14109.484    
    147000   359.27803      0.0735         0.21685755     0.21873459     0.21776881    -2149.3904      749.43723      749.43723      749.43723      4.2092604e+08  1.4280422     -39368769      -39368769       1069.8686     -39367700      -2140.2176     -2158.7426     -2149.211       10.448385      8.0200967      4.3243442      14111.012    
    148000   358.18208      0.074          0.21551691     0.21727554     0.21638753    -2135.6361      749.78629      749.78629      749.78629      4.2151447e+08  1.4260487     -39350882      -39350882       1066.6051     -39349815      -2126.9865     -2144.3429     -2135.5789      9.9267059      8.230362       2.8431049      14212.94     
    149000   357.19907      0.0745         0.21408926     0.21564039     0.21480468    -2120.3531      750.13536      750.13536      750.13536      4.2210345e+08  1.4240588     -39333109      -39333109       1063.6778     -39332046      -2112.8967     -2128.2052     -2119.9573      8.2818275      7.7627925      2.464369       14107.736    
    150000   355.95583      0.075          0.21271365     0.21408425     0.21331603    -2105.8111      750.48442      750.48442      750.48442      4.2269298e+08  1.4220727     -39315448      -39315448       1059.9757     -39314388      -2099.3205     -2112.8473     -2105.2655      7.11824        7.1967614      3.5657084      13711.12     
    151000   354.39558      0.0755         0.21141568     0.21268044     0.21197934    -2092.5256      750.83348      750.83348      750.83348      4.2328306e+08  1.4200902     -39297872      -39297872       1055.3295     -39296816      -2086.5106     -2098.9928     -2092.0734      6.8715297      7.0867938      4.3811605      14231.271    
    152000   353.05704      0.076          0.2101574      0.21147039     0.21072775    -2080.288       751.18254      751.18254      751.18254      4.2387369e+08  1.4181115     -39280373      -39280373       1051.3436     -39279321      -2074.0923     -2087.0505     -2079.7212      6.9894429      6.4238727      3.6996474      14118.208    
    153000   351.96983      0.0765         0.20884772     0.21030803     0.20953368    -2068.2274      751.53161      751.53161      751.53161      4.2446487e+08  1.4161364     -39262957      -39262957       1048.1061     -39261908      -2061.1668     -2075.5789     -2067.9366      7.3946386      4.9281191      2.3111465      14068.494    
    154000   351.08067      0.077          0.20751888     0.20905652     0.20830421    -2055.6941      751.88067      751.88067      751.88067      4.2505659e+08  1.414165      -39245629      -39245629       1045.4583     -39244583      -2048.0522     -2063.2274     -2055.8027      7.9839429      4.0855638      1.6269979      14161.259    
    155000   350.25438      0.0775         0.20620523     0.20771729     0.20711792    -2043.0642      752.22973      752.22973      752.22973      4.2564887e+08  1.4121972     -39228399      -39228399       1042.9977     -39227356      -2035.0874     -2050.0102     -2044.0949      7.4721773      4.4714231      1.9671146      14153.955    
    156000   349.23425      0.078          0.20494424     0.20638655     0.20592258    -2030.6057      752.57879      752.57879      752.57879      4.2624169e+08  1.4102331     -39211264      -39211264       1039.96       -39210224      -2022.6424     -2036.8769     -2032.2979      5.7891466      4.9545072      2.828747       14084.776    
    157000   347.93138      0.0785         0.20381861     0.20523825     0.20471378    -2019.1484      752.92786      752.92786      752.92786      4.2683507e+08  1.4082726     -39194203      -39194203       1036.0802     -39193166      -2011.5332     -2025.544      -2020.368       4.9459783      5.0874769      2.939934       14104.007    
    158000   346.42163      0.079          0.20283515     0.20420798     0.2035078     -2008.5564      753.27692      753.27692      753.27692      4.27429e+08    1.4063158     -39177201      -39177201       1031.5845     -39176170      -2001.8273     -2015.376      -2008.4658      5.875057       4.833383       2.3987101      14219.784    
    159000   345.05082      0.0795         0.20183498     0.20313302     0.20233284    -1997.8645      753.62598      753.62598      753.62598      4.2802347e+08  1.4043626     -39160265      -39160265       1027.5024     -39159237      -1991.9564     -2004.767      -1996.8699      7.6034457      4.1874867      2.6051633      14108.371    
    160000   344.10165      0.08           0.200702       0.20201142     0.20131394    -1987.0955      753.97504      753.97504      753.97504      4.286185e+08   1.402413      -39143411      -39143411       1024.6759     -39142387      -1980.7747     -1993.6977     -1986.8141      8.1537963      3.7896559      4.1771179      14107.332    
    161000   343.36228      0.0805         0.19952938     0.20094866     0.20041352    -1976.7795      754.32411      754.32411      754.32411      4.2921408e+08  1.400467      -39126639      -39126639       1022.4742     -39125617      -1969.2018     -1983.2091     -1977.9276      7.5110825      3.8477393      5.2722272      14173.757    
    162000   342.59026      0.081          0.19848939     0.19991435     0.19947735    -1966.8759      754.67317      754.67317      754.67317      4.2981021e+08  1.3985246     -39109934      -39109934       1020.1753     -39108913      -1958.938      -1973.0012     -1968.6884      7.0414639      3.6207986      4.4714316      14150.657    
    163000   341.76125      0.0815         0.1976324      0.19893935     0.19850539    -1957.6516      755.02223      755.02223      755.02223      4.3040689e+08  1.3965858     -39093284      -39093284       1017.7066     -39092266      -1950.4802     -1963.3788     -1959.0959      6.5792443      2.8818311      2.7598136      14133.699    
    164000   341.14694      0.082          0.19678598     0.19793552     0.19751102    -1948.2935      755.37129      755.37129      755.37129      4.3100413e+08  1.3946506     -39076694      -39076694       1015.8773     -39075678      -1942.1266     -1953.4717     -1949.2822      5.3367803      2.1932909      1.7581868      14083.059    
    165000   340.70834      0.0825         0.1959106      0.1968694      0.19669552    -1939.2237      755.72036      755.72036      755.72036      4.3160191e+08  1.3927189     -39060169      -39060169       1014.5713     -39059154      -1933.4873     -1942.9499     -1941.2339      4.5050283      2.210116       2.2082676      14225.889    
    166000   339.86341      0.083          0.1949878      0.19595708     0.19601097    -1930.9346      756.06942      756.06942      756.06942      4.3220025e+08  1.3907908     -39043704      -39043704       1012.0552     -39042692      -1924.38       -1933.946      -1934.4779      5.0744637      2.4832876      3.3289904      14094.947    
    167000   338.72172      0.0835         0.19391601     0.19517603     0.19516813    -1922.0665      756.41848      756.41848      756.41848      4.3279914e+08  1.3888663     -39027289      -39027289       1008.6554     -39026281      -1913.8022     -1926.2377     -1926.1597      6.2722949      2.2829058      4.4082301      14120.421    
    168000   337.82149      0.084          0.1928845      0.19432638     0.19404444    -1912.1813      756.76754      756.76754      756.76754      4.3339859e+08  1.3869453     -39010935      -39010935       1005.9747     -39009929      -1903.622      -1917.8523     -1915.0697      6.4955375      2.118923       5.4151242      14201.2      
    169000   337.14376      0.0845         0.19211678     0.19337959     0.19288674    -1902.7325      757.11661      757.11661      757.11661      4.3399859e+08  1.3850279     -38994647      -38994647       1003.9565     -38993643      -1896.0452     -1908.5082     -1903.6441      5.4293113      1.6913711      6.5304251      14123.055    
    170000   336.27876      0.085          0.19159261     0.1924759      0.19201108    -1895.1545      757.46567      757.46567      757.46567      4.3459914e+08  1.383114      -38978419      -38978419       1001.3807     -38977418      -1890.872      -1899.5894     -1895.002       4.3834931      0.94498975     6.6450526      14111.23     
    171000   335.41626      0.0855         0.19088991     0.19163583     0.19138703    -1888.0262      757.81473      757.81473      757.81473      4.3520024e+08  1.3812036     -38962238      -38962238       998.81234     -38961239      -1883.937      -1891.2986     -1888.8431      4.4890742     -0.074692588    5.5337385      14157.599    
    172000   334.9385       0.086          0.18999195     0.19092143     0.19076959    -1880.6907      758.16379      758.16379      758.16379      4.358019e+08   1.3792967     -38946093      -38946093       997.38966     -38945095      -1875.0748     -1884.248      -1882.7494      4.9125717     -0.78605187     4.3101476      14103.441    
    173000   334.77207      0.0865         0.18917683     0.19021451     0.18996326    -1873.031       758.51286      758.51286      758.51286      4.3640412e+08  1.3773934     -38929994      -38929994       996.89407     -38928997      -1867.0301     -1877.2712     -1874.7916      4.8505169     -0.69571823     4.4696368      14095.038    
    174000   334.60683      0.087          0.18848088     0.18945752     0.18910599    -1865.431       758.86192      758.86192      758.86192      4.3700688e+08  1.3754935     -38913946      -38913946       996.402       -38912950      -1860.1616     -1869.8004     -1866.331       4.6397439     -0.34030974     5.1639873      14110.234    
    175000   333.90383      0.0875         0.18781838     0.18873416     0.18853389    -1858.9898      759.21098      759.21098      759.21098      4.3761021e+08  1.3735972     -38897948      -38897948       994.3086      -38896954      -1853.6233     -1862.6614     -1860.6848      4.4011469      0.036832749    5.0446486      14201.003    
    176000   333.05765      0.088          0.186987       0.18796764     0.18803578    -1852.0945      759.56004      759.56004      759.56004      4.3821408e+08  1.3717043     -38881997      -38881997       991.7888      -38881005      -1845.4182     -1855.0963     -1855.7688      4.1051545      0.59214624     4.9596548      14101.598    
    177000   332.6843       0.0885         0.18611113     0.18713727     0.18736504    -1844.2748      759.90911      759.90911      759.90911      4.3881852e+08  1.3698149     -38866091      -38866091       990.67704     -38865100      -1836.774      -1846.9013     -1849.1491      3.8530975      0.93742385     5.2030847      14118.026    
    178000   332.43226      0.089          0.18544151     0.18644005     0.18659778    -1837.2542      760.25817      760.25817      760.25817      4.3942351e+08  1.367929      -38850226      -38850226       989.92652     -38849236      -1830.1654     -1840.0202     -1841.5769      3.7324563      0.36875868     5.4940367      14179.271    
    179000   331.69743      0.0895         0.18492768     0.18589375     0.18576117    -1831.0144      760.60723      760.60723      760.60723      4.4002905e+08  1.3660465     -38834397      -38834397       987.73831     -38833409      -1825.0943     -1834.6287     -1833.3203      4.2722429     -0.62449394     5.6508092      14144.458    
    180000   331.14136      0.09           0.1844068      0.18527027     0.18498688    -1824.7025      760.95629      760.95629      760.95629      4.4063515e+08  1.3641675     -38818603      -38818603       986.08243     -38817617      -1819.9537     -1828.4754     -1825.6785      5.1767558     -0.99482207     6.0374089      14082.173    
    181000   331.27104      0.0905         0.18384721     0.1846382      0.18441372    -1818.8967      761.30536      761.30536      761.30536      4.4124181e+08  1.3622919     -38802853      -38802853       986.46859     -38801867      -1814.4309     -1822.2373     -1820.0219      5.4364796     -1.2280897      6.3764234      14106.734    
    182000   331.4492       0.091          0.18324281     0.18417838     0.18395885    -1813.8993      761.65442      761.65442      761.65442      4.4184902e+08  1.3604198     -38787145      -38787145       986.99911     -38786158      -1808.4659     -1817.6993     -1815.5327      4.5562899     -1.313162       6.381539       14203.408    
    183000   330.85032      0.0915         0.18261528     0.18370062     0.18354101    -1808.8886      762.00348      762.00348      762.00348      4.4245679e+08  1.3585511     -38771464      -38771464       985.21577     -38770479      -1802.2726     -1812.9842     -1811.4089      3.4506634     -1.0029772      5.9346119      14105.272    
    184000   329.94554      0.092          0.18182925     0.18291836     0.18287475    -1801.5375      762.35254      762.35254      762.35254      4.4306512e+08  1.3566858     -38755814      -38755814       982.52147     -38754832      -1794.5152     -1805.2638     -1804.8335      2.5383798     -0.66824773     5.4752745      13816.62     
    185000   329.62941      0.0925         0.18098935     0.18198856     0.1820718     -1793.0741      762.70161      762.70161      762.70161      4.43674e+08    1.3548239     -38740210      -38740210       981.58008     -38739229      -1786.226      -1796.0874     -1796.909       1.650086      -0.83206101     5.6637218      14234.388    
    186000   329.3701       0.093          0.18041852     0.18128223     0.18147514    -1786.9098      763.05067      763.05067      763.05067      4.4428345e+08  1.3529654     -38724650      -38724650       980.80791     -38723669      -1780.5924     -1789.1165     -1791.0204      1.52829       -0.80267511     6.5819637      14004.67     
    187000   328.81689      0.0935         0.17998546     0.18078387     0.1810037     -1782.2947      763.39973      763.39973      763.39973      4.4489345e+08  1.3511104     -38709122      -38709122       979.16055     -38708142      -1776.3184     -1784.1981     -1786.3676      1.8732157     -0.54156959     7.0458909      14080.12     
    188000   328.31728      0.094          0.17946584     0.18035058     0.18050227    -1777.5103      763.74879      763.74879      763.74879      4.45504e+08    1.3492587     -38693627      -38693627       977.67279     -38692649      -1771.1901     -1779.9218     -1781.4189      2.2732567     -0.9686899      6.7391921      14098.578    
    189000   328.03341      0.0945         0.17887773     0.17987275     0.17993563    -1772.1395      764.09786      764.09786      764.09786      4.4611512e+08  1.3474104     -38678166      -38678166       976.82748     -38677189      -1765.386      -1775.206      -1775.8266      2.9693136     -1.3857369      6.169467       14219.49     
    190000   327.91408      0.095          0.17833767     0.1793596      0.17916768    -1766.1484      764.44692      764.44692      764.44692      4.467268e+08   1.3455655     -38662739      -38662739       976.47214     -38661763      -1760.056      -1770.1417     -1768.2476      4.2305459     -0.96924833     5.6392479      14093.229    
    191000   328.08271      0.0955         0.17784454     0.17875986     0.17834264    -1759.839       764.79598      764.79598      764.79598      4.4733903e+08  1.3437239     -38647347      -38647347       976.9743      -38646370      -1755.1892     -1764.2227     -1760.105       4.6828403     -0.64757147     5.9277639      14100.654    
    192000   328.15379      0.096          0.17737824     0.17817433     0.17779694    -1754.5835      765.14504      765.14504      765.14504      4.4795182e+08  1.3418857     -38631987      -38631987       977.18595     -38631010      -1750.5871     -1758.4439     -1754.7194      3.5097843     -1.4436414      6.5775108      14219.005    
    193000   327.79007      0.0965         0.17685347     0.17763827     0.17749453    -1750.0987      765.49411      765.49411      765.49411      4.4856518e+08  1.3400508     -38616651      -38616651       976.10287     -38615675      -1745.4081     -1753.1534     -1751.7348      2.7729321     -2.261166       6.636028       14110.654    
    194000   327.64746      0.097          0.17626017     0.17714826     0.17717441    -1745.4819      765.84317      765.84317      765.84317      4.4917909e+08  1.3382193     -38601342      -38601342       975.6782      -38600366      -1739.5526     -1748.3174     -1748.5755      3.6866429     -2.4144786      6.6879643      14109.189    
    195000   327.80041      0.0975         0.17568917     0.17670725     0.17667314    -1740.5035      766.19223      766.19223      766.19223      4.4979356e+08  1.3363912     -38586075      -38586075       976.13364     -38585099      -1733.9173     -1743.965      -1743.6283      4.4258531     -2.350636       7.4830151      14192.391    
    196000   327.64755      0.098          0.17513485     0.176221       0.17603871    -1734.9932      766.54129      766.54129      766.54129      4.5040859e+08  1.3345663     -38570844      -38570844       975.67847     -38569869      -1728.4466     -1739.166      -1737.3669      3.599134      -1.8718719      7.7604027      14153.667    
    197000   327.22601      0.0985         0.17461495     0.17557577     0.17542676    -1729.1471      766.89036      766.89036      766.89036      4.5102418e+08  1.3327448     -38555639      -38555639       974.42318     -38554664      -1723.3156     -1732.7981     -1731.3275      2.4915733     -1.3004096      7.0643861      14113.34     
    198000   326.82319      0.099          0.17403959     0.17491494     0.17493644    -1723.4673      767.23942      767.23942      767.23942      4.5164034e+08  1.3309266     -38540462      -38540462       973.22364     -38539489      -1717.6372     -1726.2763     -1726.4884      1.6320019     -1.247887       5.6535074      14100.958    
    199000   326.37281      0.0995         0.17352434     0.17444633     0.1745113     -1718.832       767.58848      767.58848      767.58848      4.5225705e+08  1.3291117     -38525312      -38525312       971.88249     -38524341      -1712.5521     -1721.6514     -1722.2926      1.3093521     -1.9616837      4.8732416      14199.957    
    200000   326.1094       0.1            0.17315771     0.1741653      0.17401549    -1715.0703      767.93754      767.93754      767.93754      4.5287433e+08  1.3273001     -38510187      -38510187       971.09811     -38509216      -1708.9337     -1718.8779     -1717.3994      1.9167666     -2.5855858      5.6837927      13795.394    
    201000   326.31319      0.1005         0.17277751     0.17375112     0.17344677    -1710.5861      768.28661      768.28661      768.28661      4.5349216e+08  1.3254918     -38495089      -38495089       971.70495     -38494118      -1705.1814     -1714.7903     -1711.7866      2.9665116     -2.0830918      7.0358544      14095.982    
    202000   326.6094       0.101          0.17223976     0.17316535     0.17288345    -1705.0368      768.63567      768.63567      768.63567      4.5411056e+08  1.3236868     -38480029      -38480029       972.58703     -38479056      -1699.8743     -1709.0091     -1706.227       3.6777172     -0.66959235     7.8677469      14209.875    
    203000   326.77906      0.1015         0.17159882     0.17257764     0.17237402    -1699.3189      768.98473      768.98473      768.98473      4.5472952e+08  1.321885      -38465003      -38465003       973.09223     -38464030      -1693.5487     -1703.2088     -1701.1993      3.8820763     -0.40237303     7.8111655      14123.872    
    204000   326.48723      0.102          0.17109329     0.17208479     0.17201586    -1694.8563      769.33379      769.33379      769.33379      4.5534904e+08  1.3200865     -38450002      -38450002       972.22321     -38449030      -1688.5595     -1698.3449     -1697.6645      3.4554312     -1.7151346      7.0272053      14056.986    
    205000   325.90438      0.1025         0.17070243     0.17154389     0.17168782    -1690.7119      769.68286      769.68286      769.68286      4.5596913e+08  1.3182913     -38435023      -38435023       970.4876      -38434052      -1684.702      -1693.0066     -1694.4271      3.0399826     -2.2376882      6.2885435      14106.835    
    206000   325.47546      0.103          0.17031225     0.17099624     0.17126419    -1686.233       770.03192      770.03192      770.03192      4.5658978e+08  1.3164993     -38420070      -38420070       969.21034     -38419101      -1680.8512     -1687.6017     -1690.2462      2.8676262     -1.7369588      5.8497541      14218.261    
    207000   325.36351      0.1035         0.16991948     0.17048575     0.17072146    -1681.4761      770.38098      770.38098      770.38098      4.5721099e+08  1.3147106     -38405147      -38405147       968.87698     -38404178      -1676.9749     -1682.5635     -1684.8898      2.1716829     -1.7771288      5.6082792      14121.824    
    208000   325.38601      0.104          0.16946537     0.170041       0.17015145    -1676.6439      770.73004      770.73004      770.73004      4.5783276e+08  1.3129251     -38390251      -38390251       968.94399     -38389282      -1672.4932     -1678.1742     -1679.2642      1.3459826     -2.2616306      5.912298       14100.275    
    209000   325.36859      0.1045         0.16895771     0.16967762     0.16971651    -1672.3475      771.07911      771.07911      771.07911      4.584551e+08   1.3111429     -38375379      -38375379       968.89209     -38374411      -1667.483      -1674.5879     -1674.9717      1.770696      -2.7389824      6.536825       14217.441    
    210000   325.4154       0.105          0.16841712     0.16938129     0.16932087    -1668.2927      771.42817      771.42817      771.42817      4.59078e+08    1.3093639     -38360530      -38360530       969.03149     -38359561      -1662.1478     -1671.6634     -1671.067       2.6886543     -3.1926116      7.0477425      14115.3      
    211000   325.48817      0.1055         0.16789447     0.16912345     0.16886233    -1664.2166      771.77723      771.77723      771.77723      4.5970146e+08  1.3075881     -38345701      -38345701       969.24818     -38344732      -1656.9896     -1669.1187     -1666.5417      2.8720474     -2.6862902      6.9070769      14108.464    
    212000   325.46015      0.106          0.16741918     0.16878332     0.16837135    -1659.9189      772.12629      772.12629      772.12629      4.6032549e+08  1.3058155     -38330899      -38330899       969.16475     -38329929      -1652.2989     -1665.7619     -1661.696       2.4422008     -1.3668355      6.6059703      14131.638    
    213000   325.70371      0.1065         0.16699859     0.16819304     0.1678169     -1654.7694      772.47536      772.47536      772.47536      4.6095009e+08  1.3040461     -38316128      -38316128       969.89003     -38315158      -1648.148      -1659.9363     -1656.224       2.2582395     -0.68006257     7.1238717      14148.584    
    214000   325.83948      0.107          0.16660625     0.16754445     0.16728538    -1649.5965      772.82442      772.82442      772.82442      4.6157524e+08  1.3022799     -38301392      -38301392       970.29432     -38300422      -1644.2759     -1653.5352     -1650.9784      2.5683678     -0.44546007     7.4090183      14084.833    
    215000   325.35135      0.1075         0.16621628     0.16700256     0.16691872    -1645.3247      773.17348      773.17348      773.17348      4.6220097e+08  1.3005168     -38286682      -38286682       968.84075     -38285714      -1640.4272     -1648.1872     -1647.3596      2.931192      -0.73845966     6.4982081      14121.438    
    216000   324.7024       0.108          0.1657781      0.16645693     0.1665588     -1640.9041      773.52254      773.52254      773.52254      4.6282726e+08  1.298757      -38271990      -38271990       966.90831     -38271023      -1636.1027     -1642.8022     -1643.8076      2.9885021     -2.0851258      5.8464981      14216.958    
    217000   324.81681      0.1085         0.16536889     0.16594393     0.16610098    -1636.3642      773.87161      773.87161      773.87161      4.6345411e+08  1.2970004     -38257322      -38257322       967.24898     -38256355      -1632.064      -1637.7392     -1639.2892      2.8927707     -3.4313895      6.7054141      14131.082    
[...]
   3065000   322.5901       1.5325         0.014062622    0.014130208    0.01401156    -138.84165      1768.0017      1768.0017      1768.0017      5.5264724e+09  0.10876742    -12404354      -12404354       960.61822     -12403393      -138.78729     -139.45431     -138.28335      0.15381283     0.097801487    0.95913324     14010.631    
   3066000   322.57602      1.533          0.014053498    0.014118718    0.013999707   -138.73484      1768.3507      1768.3507      1768.3507      5.5297464e+09  0.10870302    -12397871      -12397871       960.57631     -12396910      -138.69724     -139.34091     -138.16636      0.16965348     0.11951448     0.92804026     13996.555    
   3067000   322.56247      1.5335         0.014044799    0.014108077    0.013990086   -138.63957      1768.6998      1768.6998      1768.6998      5.5330217e+09  0.10863868    -12391391      -12391391       960.53595     -12390430      -138.61139     -139.23589     -138.07142      0.1789949      0.14993153     0.91567327     13966.883    
   3068000   322.56546      1.534          0.014037391    0.014098758    0.013983909   -138.56422      1769.0489      1769.0489      1769.0489      5.5362982e+09  0.10857438    -12384912      -12384912       960.54486     -12383951      -138.53827     -139.14392     -138.01045      0.17456211     0.1746709      0.91961493     14096.783    
   3069000   322.57639      1.5345         0.014029497    0.014090064    0.013978619   -138.49225      1769.3979      1769.3979      1769.3979      5.5395761e+09  0.10851013    -12378434      -12378434       960.5774      -12377473      -138.46037     -139.05812     -137.95825      0.17511008     0.19140743     0.92247345     13989.855    
   3070000   322.57231      1.535          0.014019397    0.014082112    0.013971416   -138.40916      1769.747       1769.747       1769.747       5.5428552e+09  0.10844594    -12371957      -12371957       960.56525     -12370996      -138.36069     -138.97964     -137.88715      0.18467531     0.19506191     0.92467579     13982.985    
   3071000   322.54937      1.5355         0.014007732    0.014074       0.013960443   -138.308        1770.096       1770.096       1770.096       5.5461357e+09  0.1083818     -12365481      -12365481       960.49696     -12364521      -138.24557     -138.89958     -137.77886      0.19006947     0.18185016     0.94144541     14108.307    
   3072000   322.53208      1.536          0.013996077    0.01406353     0.01394723    -138.19175      1770.4451      1770.4451      1770.4451      5.5494174e+09  0.1083177     -12359008      -12359008       960.44546     -12358048      -138.13054     -138.79625     -137.64846      0.18253514     0.16322365     0.96486883     14052.816    
   3073000   322.53566      1.5365         0.013984954    0.014051123    0.013936685   -138.07965      1770.7942      1770.7942      1770.7942      5.5527005e+09  0.10825366    -12352538      -12352538       960.45613     -12351578      -138.02076     -138.6738      -137.54438      0.16102266     0.16199978     0.97992402     14047.972    
   3074000   322.54715      1.537          0.013973552    0.014040435    0.013928245   -137.97921      1771.1432      1771.1432      1771.1432      5.5559848e+09  0.10818967    -12346071      -12346071       960.49034     -12345111      -137.90824     -138.56832     -137.46109      0.13846778     0.17071412     0.97516701     14017.3      
   3075000   322.55868      1.5375         0.013962984    0.014031376    0.013917655   -137.87981      1771.4923      1771.4923      1771.4923      5.5592704e+09  0.10812573    -12339606      -12339606       960.52468     -12338645      -137.80394     -138.47891     -137.35657      0.12631546     0.16999709     0.96314349     14133.642    
   3076000   322.56546      1.538          0.013955686    0.014021224    0.013904483   -137.77907      1771.8414      1771.8414      1771.8414      5.5625573e+09  0.10806183    -12333143      -12333143       960.54487     -12332183      -137.73191     -138.37872     -137.22658      0.13295333     0.15813488     0.95757221     13999.987    
   3077000   322.55296      1.5385         0.013950906    0.014010161    0.013891366   -137.6838       1772.1904      1772.1904      1772.1904      5.5658455e+09  0.10799799    -12326682      -12326682       960.50765     -12325722      -137.68474     -138.26954     -137.09712      0.15616377     0.13810078     0.95705005     14005.136    
   3078000   322.52749      1.539          0.01394269     0.013999516    0.013879072   -137.58131      1772.5395      1772.5395      1772.5395      5.569135e+09   0.1079342     -12320223      -12320223       960.4318      -12319263      -137.60365     -138.16448     -136.97579      0.1789274      0.11294174     0.94994829     14104.274    
   3079000   322.50341      1.5395         0.013929417    0.013991006    0.013867181   -137.47053      1772.8885      1772.8885      1772.8885      5.5724258e+09  0.10787046    -12313767      -12313767       960.36008     -12312807      -137.47265     -138.0805      -136.85844      0.18183278     0.091098953    0.94052196     14003.482    
   3080000   322.49025      1.54           0.013916244    0.013984242    0.013856692   -137.37044      1773.2376      1773.2376      1773.2376      5.5757179e+09  0.10780677    -12307313      -12307313       960.3209      -12306353      -137.34265     -138.01374     -136.75492      0.16434759     0.086607744    0.94523432     13976.274    
   3081000   322.485        1.5405         0.01390561     0.013976653    0.013847313   -137.27963      1773.5867      1773.5867      1773.5867      5.5790113e+09  0.10774313    -12300861      -12300861       960.30526     -12299901      -137.2377      -137.93884     -136.66235      0.14698135     0.10101348     0.96444248     13942.725    
   3082000   322.47512      1.541          0.013894708    0.013966393    0.013838339   -137.18049      1773.9357      1773.9357      1773.9357      5.582306e+09   0.10767954    -12294411      -12294411       960.27584     -12293451      -137.13011     -137.83759     -136.57379      0.13966306     0.11833791     0.97343917     14084.649    
   3083000   322.46348      1.5415         0.013882521    0.013954702    0.013830691   -137.07678      1774.2848      1774.2848      1774.2848      5.585602e+09   0.107616      -12287963      -12287963       960.24118     -12287003      -137.00983     -137.7222      -136.4983       0.139949       0.13150399     0.95109827     13982.364    
   3084000   322.46829      1.542          0.013871139    0.013944397    0.013825472   -136.98826      1774.6339      1774.6339      1774.6339      5.5888993e+09  0.10755251    -12281518      -12281518       960.25549     -12280558      -136.8975      -137.62049     -136.4468       0.14440417     0.13988566     0.90810185     13976.976    
   3085000   322.50956      1.5425         0.013862231    0.013936994    0.013820505   -136.91827      1774.9829      1774.9829      1774.9829      5.5921979e+09  0.10748907    -12275074      -12275074       960.37841     -12274113      -136.80959     -137.54744     -136.39778      0.1418665      0.13801286     0.8755569      14064.705    
   3086000   322.56554      1.543          0.013856015    0.013932138    0.013813704   -136.85947      1775.332       1775.332       1775.332       5.5954978e+09  0.10742568    -12268630      -12268630       960.54509     -12267669      -136.74824     -137.49951     -136.33066      0.13556739     0.12426092     0.87637277     13972.838    
   3087000   322.59117      1.5435         0.013850511    0.013926365    0.01380499    -136.7937       1775.681       1775.681       1775.681       5.5987989e+09  0.10736234    -12262186      -12262186       960.62143     -12261226      -136.69392     -137.44253     -136.24466      0.13127334     0.10774408     0.89723331     13944.297    
   3088000   322.57482      1.544          0.013844599    0.013916365    0.013793739   -136.70435      1776.0301      1776.0301      1776.0301      5.6021014e+09  0.10729905    -12255744      -12255744       960.57273     -12254783      -136.63557     -137.34384     -136.13362      0.12827941     0.10627245     0.91231739     13986.308    
   3089000   322.53291      1.5445         0.013839607    0.013902963    0.013781685   -136.60418      1776.3792      1776.3792      1776.3792      5.6054052e+09  0.10723581    -12249304      -12249304       960.44792     -12248343      -136.5863      -137.21158     -136.01466      0.12787105     0.12590763     0.90514826     14073.149    
   3090000   322.47634      1.545          0.013833758    0.013889731    0.013770734   -136.50538      1776.7282      1776.7282      1776.7282      5.6087103e+09  0.10717261    -12242865      -12242865       960.27947     -12241905      -136.52857     -137.08099     -135.90658      0.1343641      0.15099997     0.89485325     13965.101    
   3091000   322.42657      1.5455         0.01382326     0.013877594    0.013760421   -136.39699      1777.0773      1777.0773      1777.0773      5.6120166e+09  0.10710947    -12236429      -12236429       960.13126     -12235469      -136.42497     -136.96121     -135.8048       0.14407106     0.16080546     0.89564858     13947.631    
   3092000   322.39794      1.546          0.013808535    0.013866438    0.013751233   -136.28162      1777.4264      1777.4264      1777.4264      5.6153243e+09  0.10704638    -12229996      -12229996       960.04601     -12229036      -136.27965     -136.8511      -135.71412      0.15977405     0.15012339     0.90189372     14044.41     
   3093000   322.39519      1.5465         0.013792501    0.013855587    0.013742004   -136.16282      1777.7754      1777.7754      1777.7754      5.6186333e+09  0.10698334    -12223565      -12223565       960.03784     -12222605      -136.1214      -136.74402     -135.62303      0.18241346     0.13078166     0.90987989     13907.405    
   3094000   322.43341      1.547          0.013777788    0.013845172    0.013731501   -136.0456       1778.1245      1778.1245      1778.1245      5.6219436e+09  0.10692034    -12217139      -12217139       960.15164     -12216178      -135.97619     -136.64123     -135.51938      0.19335739     0.11908312     0.92247603     13889.101    
   3095000   322.51035      1.5475         0.013766509    0.013837414    0.013721296   -135.9494       1778.4735      1778.4735      1778.4735      5.6252551e+09  0.1068574     -12210715      -12210715       960.38075     -12209754      -135.86488     -136.56466     -135.41866      0.18590945     0.12211753     0.93538513     13857.398    
   3096000   322.58292      1.548          0.013757667    0.013832292    0.013712558   -135.87472      1778.8226      1778.8226      1778.8226      5.628568e+09   0.10679451    -12204292      -12204292       960.59685     -12203332      -135.77762     -136.51411     -135.33242      0.17065166     0.13170557     0.9379701      13913.705    
   3097000   322.62061      1.5485         0.013751265    0.013827669    0.013705861   -135.81642      1779.1717      1779.1717      1779.1717      5.6318822e+09  0.10673166    -12197871      -12197871       960.70909     -12196910      -135.71443     -136.46849     -135.26633      0.15628794     0.12607128     0.92435855     13773.451    
   3098000   322.61729      1.549          0.013747248    0.013822435    0.013701114   -135.77036      1779.5207      1779.5207      1779.5207      5.6351976e+09  0.10666887    -12191449      -12191449       960.69921     -12190488      -135.67479     -136.41682     -135.21948      0.14397476     0.10526285     0.90097632     13775.002    
   3099000   322.58491      1.5495         0.013743176    0.013814962    0.013695844   -135.71505      1779.8698      1779.8698      1779.8698      5.6385144e+09  0.10660612    -12185026      -12185026       960.60278     -12184066      -135.63461     -136.34307     -135.16747      0.13041744     0.093611126    0.86955841     13849.971    
   3100000   322.53891      1.55           0.013736399    0.013804357    0.013687408   -135.63011      1780.2189      1780.2189      1780.2189      5.6418325e+09  0.10654342    -12178605      -12178605       960.4658      -12177644      -135.56772     -136.23841     -135.08421      0.11253971     0.1053637      0.84334095     13481.859    
   3101000   322.48366      1.5505         0.013726316    0.013792631    0.013675441   -135.519        1780.5679      1780.5679      1780.5679      5.6451519e+09  0.10648077    -12172185      -12172185       960.30127     -12171225      -135.4682      -136.12269     -134.96611      0.09613121     0.13151255     0.84492283     13757.931    
   3102000   322.43304      1.551          0.013715356    0.013781647    0.013662684   -135.40484      1780.917       1780.917       1780.917       5.6484725e+09  0.10641818    -12165768      -12165768       960.15052     -12164808      -135.36004     -136.01428     -134.84021      0.091073889    0.15296047     0.86584013     13754.854    
   3103000   322.4019       1.5515         0.013705353    0.013772754    0.013651045   -135.30439      1781.266       1781.266       1781.266       5.6517945e+09  0.10635563    -12159354      -12159354       960.0578      -12158394      -135.26132     -135.92652     -134.72534      0.10558456     0.15380226     0.88883067     13869.626    
   3104000   322.39208      1.552          0.013696195    0.013764652    0.013640794   -135.21389      1781.6151      1781.6151      1781.6151      5.6551178e+09  0.10629313    -12152942      -12152942       960.02857     -12151982      -135.17094     -135.84655     -134.62417      0.13397908     0.13626841     0.91224239     13727.809    
   3105000   322.38932      1.5525         0.013686144    0.013754419    0.013630682   -135.11389      1781.9642      1781.9642      1781.9642      5.6584424e+09  0.10623067    -12146532      -12146532       960.02033     -12145572      -135.07174     -135.74556     -134.52437      0.15489158     0.12040757     0.93412206     13719.775    
   3106000   322.39383      1.553          0.01367339     0.01374169     0.013618889   -134.99126      1782.3132      1782.3132      1782.3132      5.6617683e+09  0.10616827    -12140125      -12140125       960.03377     -12139165      -134.94587     -135.61993     -134.40798      0.16014887     0.12084688     0.94699795     13783.732    
   3107000   322.42322      1.5535         0.013660472    0.013728904    0.013605777   -134.86357      1782.6623      1782.6623      1782.6623      5.6650955e+09  0.10610592    -12133721      -12133721       960.12128     -12132761      -134.81837     -135.49374     -134.27858      0.15055843     0.12916858     0.95631784     13764.848    
   3108000   322.47299      1.554          0.013650708    0.013717487    0.013594566   -134.75701      1783.0114      1783.0114      1783.0114      5.668424e+09   0.10604361    -12127321      -12127321       960.26949     -12126361      -134.72201     -135.38107     -134.16793      0.14372973     0.12997893     0.96421158     13737.377    
   3109000   322.50818      1.5545         0.013643354    0.013708421    0.013588599   -134.68336      1783.3604      1783.3604      1783.3604      5.6717538e+09  0.10598135    -12120923      -12120923       960.37429     -12119963      -134.64943     -135.29159     -134.10905      0.14693805     0.12267761     0.96301706     13739.697    
   3110000   322.51691      1.555          0.013636615    0.013701516    0.013585584   -134.62855      1783.7095      1783.7095      1783.7095      5.6750849e+09  0.10591915    -12114525      -12114525       960.40028     -12113565      -134.58293     -135.22345     -134.07929      0.15365265     0.1135155      0.94608797     13852.735    
   3111000   322.52438      1.5555         0.013629005    0.013694569    0.013579987   -134.56226      1784.0585      1784.0585      1784.0585      5.6784173e+09  0.10585699    -12108128      -12108128       960.42254     -12107167      -134.50782     -135.15489     -134.02406      0.16464406     0.11112593     0.92373959     13730.169    
   3112000   322.53659      1.556          0.01362026     0.013686575    0.013570547   -134.47613      1784.4076      1784.4076      1784.4076      5.681751e+09   0.10579488    -12101731      -12101731       960.45887     -12100771      -134.42151     -135.076       -133.93089      0.17063287     0.11646443     0.91295095     13775.531    
   3113000   322.53682      1.5565         0.013608621    0.013676683    0.013558555   -134.36585      1784.7567      1784.7567      1784.7567      5.685086e+09   0.10573282    -12095337      -12095337       960.45956     -12094376      -134.30664     -134.97836     -133.81254      0.15495436     0.11989034     0.92255765     13777.694    
   3114000   322.54071      1.557          0.013593859    0.013665807    0.013547686   -134.24575      1785.1057      1785.1057      1785.1057      5.6884223e+09  0.1056708     -12088946      -12088946       960.47116     -12087985      -134.16096     -134.87103     -133.70526      0.13204141     0.12130796     0.93927039     13891.616    
   3115000   322.56419      1.5575         0.013579954    0.013657542    0.013541393   -134.15211      1785.4548      1785.4548      1785.4548      5.6917599e+09  0.10560884    -12082558      -12082558       960.54108     -12081597      -134.02372     -134.78946     -133.64316      0.12223646     0.12063715     0.9419718      13791.523    
   3116000   322.58928      1.558          0.013571748    0.013650916    0.013537971   -134.09206      1785.8039      1785.8039      1785.8039      5.6950989e+09  0.10554692    -12076171      -12076171       960.6158      -12075210      -133.94274     -134.72406     -133.60939      0.1267388      0.11255079     0.92825612     13810.439    
   3117000   322.60325      1.5585         0.01356886     0.013641862    0.013531798   -134.03247      1786.1529      1786.1529      1786.1529      5.6984391e+09  0.10548505    -12069784      -12069784       960.65739     -12068823      -133.91423     -134.63471     -133.54846      0.12819226     0.10015931     0.90301413     13912.459    
   3118000   322.61449      1.559          0.013566305    0.013629336    0.013519943   -133.94385      1786.502       1786.502       1786.502       5.7017806e+09  0.10542323    -12063398      -12063398       960.69086     -12062437      -133.88902     -134.51109     -133.43146      0.12685325     0.088555623    0.87170796     13927.748    
   3119000   322.62247      1.5595         0.013559432    0.013616178    0.013505609   -133.8308       1786.851       1786.851       1786.851       5.7051235e+09  0.10536146    -12057015      -12057015       960.71462     -12056054      -133.82119     -134.38122     -133.29         0.13150613     0.08462589     0.84849458     13910.387    
   3120000   322.62411      1.56           0.013547213    0.013603784    0.013493235   -133.70913      1787.2001      1787.2001      1787.2001      5.7084676e+09  0.10529974    -12050635      -12050635       960.71951     -12049674      -133.7006      -134.25891     -133.16788      0.14019362     0.093184476    0.8461956      13928.497    
   3121000   322.61893      1.5605         0.013533224    0.013592964    0.013483772   -133.59638      1787.5492      1787.5492      1787.5492      5.7118131e+09  0.10523806    -12044258      -12044258       960.70408     -12043297      -133.56254     -134.15212     -133.07448      0.15370081     0.11152029     0.86075404     14072.165    
   3122000   322.60005      1.561          0.013520829    0.013584537    0.013476202   -133.50298      1787.8982      1787.8982      1787.8982      5.7151598e+09  0.10517644    -12037884      -12037884       960.64787     -1203