LAMMPS (23 Jun 2022 - Update 1)
OMP_NUM_THREADS environment is not set. Defaulting to 1 thread. (src/comm.cpp:98)
  using 1 OpenMP thread(s) per MPI task
###

# Read restart info
read_restart ${read_res}
read_restart ./trial6/0100/equpmf191.res
Reading restart file ...
  restart file = 23 Jun 2022, LAMMPS = 23 Jun 2022
  restoring atom style atomic from restart
  orthogonal box = (1625.677 1625.677 1625.677) to (2374.323 2374.323 2374.323)
  1 by 2 by 2 MPI processor grid
  restoring pair style table from restart
  1000 atoms
  read_restart CPU = 0.027 seconds

# Settings
pair_style table/pgn spline 10941
pair_coeff 1 1 N20e.txt DE_GNP 308 72.9   # 1.35 * r
pair_coeff 2 2 N100e.txt DE_GNP 473.9 111.78
WARNING: 20 of 10941 force values in table DE_GNP are inconsistent with -dE/dr.
WARNING:  Should only be flagged at inflection points (src/pair_table_pgn.cpp:478)
pair_coeff 1 2 mixed_potentiale.txt DE_GNP 391.2 92.95
WARNING: 1564 of 10941 force values in table DE_GNP are inconsistent with -dE/dr.
WARNING:  Should only be flagged at inflection points (src/pair_table_pgn.cpp:478)

# Neighbor list
neighbor 2.0 bin
neigh_modify delay 0 every 1 check no once yes

# Temperature
variable T equal ${Temp}
variable T equal 300

# Deformation
reset_timestep 0
variable tmp equal "lx"
variable L0 equal ${tmp}
variable L0 equal 748.645985740882
variable strain equal "(lx - v_L0)/v_L0"
variable stp equal "step"
variable tmpe equal "temp"
variable p1 equal "v_strain"
variable p2 equal "-pxx*1.01325/10000"
variable p3 equal "-pyy*1.01325/10000"
variable p4 equal "-pzz*1.01325/10000"
variable p5 equal "lx"
variable p6 equal "ly"
variable p7 equal "lz"
variable p8 equal "press"
variable p9 equal "epair"
variable p10 equal "etotal"

# Thermo
thermo_style custom step temp v_p1 v_p2 v_p3 v_p4 press lx ly lz vol density epair pe ke etotal pxx pyy pzz pxy pxz pyz spcpu
thermo ${ts_save}
thermo 1000

# Dump
# dump 1 all custom 2000 ./${N20}${N100}/tensile/trajectory/trajectory_${usic}_${trial}_*.tensile.custom id type x y z ix iy iz
# dump_modify 1 sort id
dump 2 all cfg 50000 ./trial${trial}/${N20}${N100}/tensile/trajectory/dumpten.tens_${usic}_${trial}_*.cfg mass type xs ys zs fx fy fz
dump 2 all cfg 50000 ./trial6/${N20}${N100}/tensile/trajectory/dumpten.tens_${usic}_${trial}_*.cfg mass type xs ys zs fx fy fz
dump 2 all cfg 50000 ./trial6/0${N100}/tensile/trajectory/dumpten.tens_${usic}_${trial}_*.cfg mass type xs ys zs fx fy fz
dump 2 all cfg 50000 ./trial6/0100/tensile/trajectory/dumpten.tens_${usic}_${trial}_*.cfg mass type xs ys zs fx fy fz
dump 2 all cfg 50000 ./trial6/0100/tensile/trajectory/dumpten.tens_1_${trial}_*.cfg mass type xs ys zs fx fy fz
dump 2 all cfg 50000 ./trial6/0100/tensile/trajectory/dumpten.tens_1_6_*.cfg mass type xs ys zs fx fy fz
dump_modify 2 element N20 N100

fix 1 all nvt temp ${T} ${T} 100
fix 1 all nvt temp 300 ${T} 100
fix 1 all nvt temp 300 300 100
fix 2 all deform 1 x erate ${strain_rate} y erate ${strain_rate} z erate ${strain_rate} units box
fix 2 all deform 1 x erate 5e-6 y erate ${strain_rate} z erate ${strain_rate} units box
fix 2 all deform 1 x erate 5e-6 y erate 5e-6 z erate ${strain_rate} units box
fix 2 all deform 1 x erate 5e-6 y erate 5e-6 z erate 5e-6 units box
fix             def1 all print ${ts_save} "${p1} ${p2} ${p3} ${p4}" file ./tensile/${trial}/tensile${N20}${N100}_${usic}_${trial}.txt screen no
fix             def1 all print 1000 "${p1} ${p2} ${p3} ${p4}" file ./tensile/${trial}/tensile${N20}${N100}_${usic}_${trial}.txt screen no
fix             def1 all print 1000 "${p1} ${p2} ${p3} ${p4}" file ./tensile/6/tensile${N20}${N100}_${usic}_${trial}.txt screen no
fix             def1 all print 1000 "${p1} ${p2} ${p3} ${p4}" file ./tensile/6/tensile0${N100}_${usic}_${trial}.txt screen no
fix             def1 all print 1000 "${p1} ${p2} ${p3} ${p4}" file ./tensile/6/tensile0100_${usic}_${trial}.txt screen no
fix             def1 all print 1000 "${p1} ${p2} ${p3} ${p4}" file ./tensile/6/tensile0100_1_${trial}.txt screen no
fix             def1 all print 1000 "${p1} ${p2} ${p3} ${p4}" file ./tensile/6/tensile0100_1_6.txt screen no

timestep       		${ts}
timestep       		0.1
run				${steps_tensile}
run				6000000
Generated 0 of 1 mixed pair_coeff terms from geometric mixing rule
Unused restart file global fix info:
  fix style: npt, fix ID: 5
Neighbor list info ...
  update every 1 steps, delay 0 steps, check no
  max neighbors/atom: 2000, page size: 100000
  master list distance cutoff = 113.78
  ghost atom cutoff = 113.78
  binsize = 56.89, bins = 14 14 14
  1 neighbor lists, perpetual/occasional/extra = 1 0 0
  (1) pair table/pgn, perpetual
      attributes: half, newton on
      pair build: half/bin/atomonly/newton
      stencil: half/bin/3d
      bin: standard
Per MPI rank memory allocation (min/avg/max) = 3.841 | 3.841 | 3.841 Mbytes
   Step          Temp           v_p1           v_p2           v_p3           v_p4          Press            Lx             Ly             Lz           Volume        Density         E_pair         PotEng         KinEng         TotEng          Pxx            Pyy            Pzz            Pxy            Pxz            Pyz           S/CPU     
         0   305.19978      0              0.0081032011  -0.082354705    0.025601951    160.04459      748.64599      748.64599      748.64599      4.1959422e+08  1.6702616     -58079198      -58079198       908.83284     -58078289      -79.972377      812.77774     -252.67161      208.40347      306.82869      645.60754      0            
      1000   302.05862      0.0005         0.019152195   -0.070107932    0.036786683    46.612566      749.02031      749.02031      749.02031      4.2022393e+08  1.6677587     -58080160      -58080160       899.47898     -58079260      -189.01747      691.91149     -363.05633      206.09312      302.30449      637.61166      15403.318    
      2000   292.77844      0.001          0.029959886   -0.058146034    0.047540106   -63.669571      749.39463      749.39463      749.39463      4.2085427e+08  1.6652608     -58080114      -58080114       871.84421     -58079243      -295.68109      573.85674     -469.18436      204.15666      297.65005      630.00335      17929.878    
      3000   298.11967      0.0015         0.040464062   -0.046465271    0.057742396   -170.21527      749.76895      749.76895      749.76895      4.2148523e+08  1.6627679     -58079083      -58079083       887.74946     -58078195      -399.34924      458.57657     -569.87314      202.31908      292.87182      621.87461      18114.078    
      4000   312.0628       0.002          0.050710852   -0.03502188     0.067627067   -274.08846      750.14328      750.14328      750.14328      4.2211683e+08  1.66028       -58077088      -58077088       929.26974     -58076158      -500.47719      345.63908     -667.42726      199.97647      288.27594      613.13891      17984.854    
      5000   322.01094      0.0025         0.060850491   -0.023717804    0.077532836   -377.22024      750.5176       750.5176       750.5176       4.2274905e+08  1.657797      -58074141      -58074141       958.8936      -58073182      -600.54765      234.07652     -765.1896       197.23601      283.87333      604.54212      18131.533    
      6000   322.64608      0.003          0.070965098   -0.012508411    0.087527991   -480.25225      750.89192      750.89192      750.89192      4.2338191e+08  1.655319      -58070251      -58070251       960.78494     -58069291      -700.37107      123.44841     -863.83411      194.90222      279.59485      596.58979      18008.086    
      7000   322.01221      0.0035         0.080951193   -0.0014727096   0.097389246   -581.84959      751.26625      751.26625      751.26625      4.240154e+08   1.6528459     -58065430      -58065430       958.89738     -58064471      -798.92616      14.534514     -961.15713      193.00843      275.68489      588.96659      18064.777    
      8000   322.72281      0.004          0.090710138    0.0093271534   0.10691697    -680.82658      751.64057      751.64057      751.64057      4.2464952e+08  1.6503777     -58059697      -58059697       961.01342     -58058736      -895.23946     -92.051847     -1055.1884      191.22194      271.89976      581.1098       18129.393    
      9000   324.74777      0.0045         0.10022924     0.019913586    0.11617858    -777.43698      752.01489      752.01489      752.01489      4.2528427e+08  1.6479145     -58053069      -58053069       967.04339     -58052102      -989.18572     -196.53182     -1146.5934      189.27428      267.56351      572.90536      17732.718    
     10000   327.56619      0.005          0.10956107     0.03036655     0.12538689    -872.81688      752.38922      752.38922      752.38922      4.2591966e+08  1.6454561     -58045554      -58045554       975.43618     -58044578      -1081.2837     -299.69454     -1237.4724      186.95691      262.91811      564.78012      18123.726    
     11000   330.61267      0.0055         0.11879076     0.040735807    0.13457143    -967.5072       752.76354      752.76354      752.76354      4.2655568e+08  1.6430027     -58037153      -58037153       984.50809     -58036168      -1172.3737     -402.03115     -1328.1168      184.29324      258.66739      557.08298      17912.697    
     12000   333.51893      0.006          0.12781851     0.05093721     0.14352376    -1060.2171      753.13786      753.13786      753.13786      4.2719233e+08  1.6405541     -58027884      -58027884       993.16243     -58026891      -1261.4706     -502.71118     -1416.4694      181.89931      254.86388      549.52805      18063.458    
     13000   336.27516      0.0065         0.13651434     0.060860565    0.15212508    -1149.7656      753.51218      753.51218      753.51218      4.2782961e+08  1.6381104     -58017771      -58017771       1001.37       -58016770      -1347.2918     -600.64708     -1501.3578      180.24229      250.82945      541.75818      17850.559    
     14000   338.95972      0.007          0.14498677     0.070556247    0.16039738    -1236.7477      753.88651      753.88651      753.88651      4.2846753e+08  1.6356715     -58006840      -58006840       1009.3642     -58005831      -1430.9081     -696.33602     -1582.9991      178.83453      246.16547      533.62227      17867.116    
     15000   341.5078       0.0075         0.15331787     0.080083473    0.16847461    -1322.0691      754.26083      754.26083      754.26083      4.2910608e+08  1.6332374     -57995105      -57995105       1016.9519     -57994088      -1513.1297     -790.36243     -1662.7152      176.90916      241.4071       525.44144      17938.297    
     16000   343.8177       0.008          0.16149705     0.089477178    0.17652926    -1406.3771      754.63515      754.63515      754.63515      4.2974526e+08  1.6308082     -57982571      -57982571       1023.8304     -57981547      -1593.8519     -883.07109     -1742.2083      174.46599      237.1315       517.46698      17822.547    
     17000   345.92597      0.0085         0.16952196     0.098745393    0.18462709    -1489.9069      755.00948      755.00948      755.00948      4.3038508e+08  1.6283838     -57969248      -57969248       1030.1085     -57968218      -1673.0516     -974.54126     -1822.1278      172.02321      233.15368      509.77912      18081.653    
     18000   348.03003      0.009          0.1774091      0.10787316     0.1926426     -1572.2506      755.3838       755.3838       755.3838       4.3102553e+08  1.6259643     -57955151      -57955151       1036.374      -57954115      -1750.8917     -1064.6253     -1901.2347      169.68161      229.25749      502.51843      17907.093    
     19000   350.32487      0.0095         0.18519012     0.11687731     0.20040133    -1652.9937      755.75812      755.75812      755.75812      4.3166662e+08  1.6235495     -57940296      -57940296       1043.2076     -57939252      -1827.6844     -1153.4894     -1977.8073      167.4703       225.26461      495.23328      18156.689    
     20000   352.76276      0.01           0.19277396     0.12574387     0.20784853    -1731.6107      756.13245      756.13245      756.13245      4.3230835e+08  1.6211394     -57924695      -57924695       1050.4672     -57923645      -1902.531      -1240.9955     -2051.3055      165.44421      220.86757      487.31751      17923.979    
     21000   355.16632      0.0105         0.20005089     0.13439323     0.21504396    -1807.6752      756.50677      756.50677      756.50677      4.3295071e+08  1.6187342     -57908363      -57908363       1057.6246     -57907305      -1974.3487     -1326.3581     -2122.3188      163.24592      216.11483      478.9214       18050.044    
     22000   357.46766      0.011          0.20708569     0.14279917     0.22212777    -1881.7752      756.88109      756.88109      756.88109      4.335937e+08   1.6163337     -57891315      -57891315       1064.4777     -57890250      -2043.7769     -1409.3182     -2192.2306      160.79436      211.71068      470.6078       17901.451    
     23000   359.64102      0.0115         0.21403407     0.15096593     0.22913397    -1954.5488      757.25541      757.25541      757.25541      4.3423734e+08  1.6139379     -57873565      -57873565       1070.9495     -57872494      -2112.352      -1489.9179     -2261.3765      158.42129      207.75763      462.92971      18046.732    
     24000   361.59848      0.012          0.22095821     0.15898617     0.23597469    -2026.2162      757.62974      757.62974      757.62974      4.3488161e+08  1.6115469     -57855123      -57855123       1076.7785     -57854046      -2180.688      -1569.0715     -2328.8891      156.20183      203.98185      455.46903      18006.508    
     25000   363.30032      0.0125         0.22779104     0.16689676     0.2425866     -2096.4698      758.00406      758.00406      758.00406      4.3552651e+08  1.6091606     -57836006      -57836006       1081.8463     -57834924      -2248.1228     -1647.143      -2394.1436      154.24218      200.05912      447.759        18029.839    
     26000   365.02329      0.013          0.23436822     0.17465059     0.24902713    -2164.8028      758.37838      758.37838      758.37838      4.3617205e+08  1.606779      -57816232      -57816232       1086.977      -57815145      -2313.0345     -1723.6673     -2457.7067      152.33837      196.01301      439.8329       18086.961    
     27000   366.93641      0.0135         0.24070789     0.18224662     0.25537135    -2231.5186      758.75271      758.75271      758.75271      4.3681824e+08  1.6044021     -57795812      -57795812       1092.674      -57794719      -2375.6022     -1798.6343     -2520.3193      150.34704      192.02898      432.00891      17933.958    
     28000   368.73277      0.014          0.24697403     0.18966577     0.26164827    -2297.1891      759.12703      759.12703      759.12703      4.3746505e+08  1.6020299     -57774755      -57774755       1098.0232     -57773657      -2437.4441     -1871.8556     -2582.2676      148.27366      188.19694      424.5465       18075.775    
     29000   370.23123      0.0145         0.25316866     0.1968619      0.26777241    -2361.3882      759.50135      759.50135      759.50135      4.3811251e+08  1.5996624     -57753075      -57753075       1102.4854     -57751973      -2498.5804     -1942.8759     -2642.7082      146.19904      184.44357      417.15306      17930.91     
     30000   371.80301      0.015          0.25917907     0.20386206     0.27362389    -2423.4395      759.87568      759.87568      759.87568      4.3876061e+08  1.5972995     -57730786      -57730786       1107.1659     -57729679      -2557.8985     -2011.9621     -2700.4578      144.1944       180.57881      409.53863      18095.257    
     31000   373.55258      0.0155         0.26501303     0.21078363     0.27925702    -2483.9335      760.25         760.25         760.25         4.3940934e+08  1.5949413     -57707901      -57707901       1112.3758     -57706789      -2615.4752     -2080.2727     -2756.0525      142.3578       176.61998      401.78419      17901.462    
     32000   375.21837      0.016          0.27070524     0.21760729     0.28477978    -2543.2759      760.62432      760.62432      760.62432      4.4005871e+08  1.5925877     -57684434      -57684434       1117.3362     -57683316      -2671.653      -2147.6169     -2810.5579      140.4502       172.80914      394.34964      18054.555    
     33000   376.75008      0.0165         0.27622785     0.22423625     0.29022569    -2601.1671      760.99864      760.99864      760.99864      4.4070873e+08  1.5902388     -57660394      -57660394       1121.8974     -57659272      -2726.1569     -2213.0397     -2864.3048      138.32104      169.15909      387.27354      18049.417    
     34000   378.25424      0.017          0.28157192     0.23064436     0.29558791    -2657.4692      761.37297      761.37297      761.37297      4.4135938e+08  1.5878945     -57635797      -57635797       1126.3765     -57634671      -2778.8988     -2276.2828     -2917.2258      136.22046      165.44832      380.32466      18009.321    
     35000   379.80647      0.0175         0.28675696     0.23688306     0.30077879    -2712.127       761.74729      761.74729      761.74729      4.4201067e+08  1.5855547     -57610660      -57610660       1130.9988     -57609529      -2830.0711     -2337.854      -2968.4559      134.32014      161.67093      373.26973      18060.556    
     36000   381.32657      0.018          0.29185013     0.24302343     0.30575342    -2765.4478      762.12161      762.12161      762.12161      4.426626e+08   1.5832196     -57584994      -57584994       1135.5254     -57583859      -2880.3369     -2398.4548     -3017.5516      132.38534      157.78327      366.17799      17923.551    
     37000   382.71724      0.0185         0.29684058     0.2490869      0.31054039    -2817.5602      762.49594      762.49594      762.49594      4.4331518e+08  1.5808891     -57558806      -57558806       1139.6666     -57557666      -2929.5887     -2458.2966     -3064.7954      130.25466      153.78284      359.27963      18038.071    
     38000   383.95085      0.019          0.30167707     0.25502972     0.31516239    -2868.2266      762.87026      762.87026      762.87026      4.4396839e+08  1.5785631     -57532102      -57532102       1143.3401     -57530959      -2977.3212     -2516.9477     -3110.4109      128.38663      150.12551      352.59543      17768.83     
     39000   384.99404      0.0195         0.30636111     0.26080801     0.31964388    -2917.3879      763.24458      763.24458      763.24458      4.4462225e+08  1.5762417     -57504900      -57504900       1146.4465     -57503753      -3023.5491     -2573.9749     -3154.6398      126.64772      146.94623      345.59716      18018.297    
     40000   385.94998      0.02           0.31091479     0.26641239     0.32406972    -2965.3653      763.61891      763.61891      763.61891      4.4527675e+08  1.5739248     -57477218      -57477218       1149.2931     -57476069      -3068.4904     -2629.2859     -3198.3195      124.3173       143.60624      338.29218      17870.856    
     41000   387.03299      0.0205         0.31527725     0.27184159     0.32841131    -3011.86        763.99323      763.99323      763.99323      4.4593189e+08  1.5716125     -57449072      -57449072       1152.5181     -57447920      -3111.5445     -2682.8679     -3241.1676      121.69009      139.88253      331.20452      18094.891    
     42000   388.26723      0.021          0.31953875     0.27712135     0.3325886     -3056.9906      764.36755      764.36755      764.36755      4.4658767e+08  1.5693047     -57420466      -57420466       1156.1935     -57419310      -3153.6023     -2734.9751     -3282.3943      119.41364      136.16721      324.36642      17978.778    
     43000   389.37257      0.0215         0.32378167     0.28233916     0.33658028    -3101.2455      764.74187      764.74187      764.74187      4.4724409e+08  1.5670014     -57391409      -57391409       1159.485      -57390249      -3195.4766     -2786.4709     -3321.7891      117.64875      132.52546      317.65031      18018.447    
     44000   390.32398      0.022          0.3279362      0.28748796     0.34038893    -3144.3806      765.1162       765.1162       765.1162       4.4790116e+08  1.5647026     -57361911      -57361911       1162.3182     -57360748      -3236.4787     -2837.2855     -3359.3775      115.97486      128.94659      310.86444      18086.114    
     45000   391.40464      0.0225         0.33188723     0.29245513     0.34406534    -3185.8136      765.49052      765.49052      765.49052      4.4855887e+08  1.5624083     -57331984      -57331984       1165.5362     -57330818      -3275.4723     -2886.3077     -3395.6609      114.02648      125.59587      304.06755      17882.993    
     46000   392.69188      0.023          0.33565334     0.29723747     0.34764633    -3225.7164      765.86484      765.86484      765.86484      4.4921723e+08  1.5601185     -57301640      -57301640       1169.3694     -57300471      -3312.6409     -2933.5057     -3431.0025      111.9437       122.56094      297.21092      18141.188    
     47000   393.85872      0.0235         0.33927359     0.30185371     0.35107682    -3264.0978      766.23917      766.23917      766.23917      4.4987622e+08  1.5578332     -57270895      -57270895       1172.844      -57269723      -3348.37       -2979.0645     -3464.8588      109.85309      119.86811      290.45229      17848.44     
     48000   394.58928      0.024          0.34280622     0.30632129     0.35438778    -3301.3086      766.61349      766.61349      766.61349      4.5053587e+08  1.5555523     -57239765      -57239765       1175.0195     -57238590      -3383.2343     -3023.1561     -3497.5355      107.77981      116.95562      283.70917      18130.033    
     49000   395.19345      0.0245         0.34622162     0.31064331     0.35749081    -3336.9709      766.98781      766.98781      766.98781      4.5119615e+08  1.5532759     -57208262      -57208262       1176.8186     -57207086      -3416.9417     -3065.8111     -3528.16        105.67812      113.27034      276.78218      17936.939    
     50000   396.239        0.025          0.34947986     0.31485569     0.36037333    -3371.0301      767.36214      767.36214      767.36214      4.5185709e+08  1.5510039     -57176393      -57176393       1179.9321     -57175213      -3449.0981     -3107.384      -3556.6082      103.3856       109.27596      269.86502      17532.776    
     51000   397.55044      0.0255         0.35264231     0.31894359     0.36318241    -3404.1231      767.73646      767.73646      767.73646      4.5251866e+08  1.5487364     -57144168      -57144168       1183.8373     -57142984      -3480.309      -3147.7285     -3584.3317      101.2086       105.71957      263.27191      17928.707    
     52000   398.64209      0.026          0.35575258     0.32291415     0.36598641    -3436.6416      768.11078      768.11078      768.11078      4.5318088e+08  1.5464732     -57111600      -57111600       1187.0881     -57110413      -3511.005      -3186.9149     -3612.0051      99.3081        102.52414      256.81919      17981.122    
     53000   399.45593      0.0265         0.35873488     0.32679926     0.36863088    -3467.9333      768.4851       768.4851       768.4851       4.5384375e+08  1.5442145     -57078702      -57078702       1189.5116     -57077512      -3540.438      -3225.2579     -3638.1039      97.313626      99.45514       250.01933      18030.279    
     54000   400.27623      0.027          0.3614847      0.33059458     0.37097722    -3497.184       768.85943      768.85943      768.85943      4.5450727e+08  1.5419602     -57045492      -57045492       1191.9543     -57044300      -3567.5766     -3262.7148     -3661.2605      95.036891      96.547933      242.7131       17365.7      
     55000   401.14982      0.0275         0.36402137     0.33423281     0.37308031    -3524.4164      769.23375      769.23375      769.23375      4.5517143e+08  1.5397102     -57011986      -57011986       1194.5557     -57010792      -3592.6116     -3298.6213     -3682.0164      93.150478      93.243123      235.35998      18129.965    
     56000   402.03844      0.028          0.36643202     0.33769022     0.37505785    -3550.2265      769.60807      769.60807      769.60807      4.5583623e+08  1.5374647     -56978192      -56978192       1197.2018     -56976994      -3616.4029     -3332.7433     -3701.5332      91.366712      89.188974      228.27415      17957.127    
     57000   402.9322       0.0285         0.3688218      0.34101831     0.37694413    -3575.2422      769.9824       769.9824       769.9824       4.5650169e+08  1.5352235     -56944114      -56944114       1199.8633     -56942914      -3639.9882     -3365.589      -3720.1493      88.941563      85.150752      221.41216      18150.906    
     58000   403.84945      0.029          0.37116678     0.34423829     0.37868613    -3599.2802      770.35672      770.35672      770.35672      4.5716779e+08  1.5329866     -56909769      -56909769       1202.5947     -56908566      -3663.1314     -3397.3678     -3737.3416      86.337417      81.780784      214.51323      17820.682    
     59000   404.77568      0.0295         0.37333203     0.3473697      0.38027742    -3621.9398      770.73104      770.73104      770.73104      4.5783454e+08  1.5307541     -56875175      -56875175       1205.3529     -56873970      -3684.5007     -3428.2724     -3753.0464      84.08137       78.702958      207.60363      18082.036    
     60000   405.72451      0.03           0.37531362     0.3503945      0.38169617    -3643.0769      771.10537      771.10537      771.10537      4.5850194e+08  1.528526      -56840347      -56840347       1208.1783     -56839139      -3704.0574     -3458.1248     -3767.0484      81.845158      75.207839      200.6028       18010.073    
     61000   406.58796      0.0305         0.37719579     0.35326533     0.38293301    -3662.7819      771.47969      771.47969      771.47969      4.5916998e+08  1.5263021     -56805292      -56805292       1210.7495     -56804081      -3722.633      -3486.4577     -3779.255       79.30229       71.358957      193.26703      17969.278    
     62000   407.28951      0.031          0.3789623      0.35591367     0.38394858    -3680.6466      771.85401      771.85401      771.85401      4.5983868e+08  1.5240826     -56770019      -56770019       1212.8386     -56768806      -3740.0672     -3512.5948     -3789.2779      76.652087      67.811585      185.56956      18093.451    
     63000   408.04667      0.0315         0.38052817     0.35835974     0.38475811    -3696.508       772.22833      772.22833      772.22833      4.6050802e+08  1.5218673     -56734545      -56734545       1215.0933     -56733330      -3755.521      -3536.7357     -3797.2673      74.206827      64.582606      177.71312      17901.697    
     64000   408.85084      0.032          0.38192341     0.36078116     0.38543734    -3711.2983      772.60266      772.60266      772.60266      4.6117801e+08  1.5196564     -56698889      -56698889       1217.488      -56697672      -3769.291      -3560.6332     -3803.9708      71.775358      61.070172      170.13984      18099.209    
     65000   409.43967      0.0325         0.38324174     0.36324945     0.38602561    -3725.6906      772.97698      772.97698      772.97698      4.6184865e+08  1.5174497     -56663066      -56663066       1219.2414     -56661847      -3782.3019     -3584.9934     -3809.7766      69.054162      57.07264       163.25643      17896.857    
     66000   410.08654      0.033          0.38445041     0.36562619     0.38645038    -3738.8831      773.3513       773.3513       773.3513       4.6251994e+08  1.5152473     -56627086      -56627086       1221.1677     -56625865      -3794.2305     -3608.4499     -3813.9687      65.822419      52.915084      156.18557      18087.281    
     67000   411.01682      0.0335         0.3854552      0.36773408     0.38665413    -3749.7933      773.72563      773.72563      773.72563      4.6319189e+08  1.5130492     -56590963      -56590963       1223.9379     -56589739      -3804.1471     -3629.2532     -3815.9796      62.574191      48.723944      148.29332      17880.798    
     68000   411.87685      0.034          0.38630582     0.36955649     0.38666657    -3758.6278      774.09995      774.09995      774.09995      4.6386448e+08  1.5108553     -56554708      -56554708       1226.4989     -56553481      -3812.542      -3647.239      -3816.1023      59.58018       44.636293      140.03777      18132.463    
     69000   412.36435      0.0345         0.38714503     0.37119425     0.38657331    -3766.4696      774.47427      774.47427      774.47427      4.6453772e+08  1.5086657     -56518332      -56518332       1227.9506     -56517104      -3820.8244     -3663.4024     -3815.1819      56.604123      40.877075      132.13123      17989.862    
     70000   412.57481      0.035          0.38794698     0.37275098     0.38637456    -3773.5752      774.8486       774.8486       774.8486       4.6521162e+08  1.5064803     -56481845      -56481845       1228.5773     -56480617      -3828.7391     -3678.7662     -3813.2205      53.41461       37.306121      124.44218      17991.021    
     71000   412.79777      0.0355         0.38852836     0.37429643     0.38601265    -3779.3813      775.22292      775.22292      775.22292      4.6588616e+08  1.5042991     -56445265      -56445265       1229.2413     -56444035      -3834.4768     -3694.0185     -3809.6486      49.908304      33.278728      116.68615      18083.492    
     72000   413.08778      0.036          0.3888271      0.37576666     0.38544612    -3783.3371      775.59724      775.59724      775.59724      4.6656136e+08  1.5021221     -56408612      -56408612       1230.1049     -56407382      -3837.4252     -3708.5286     -3804.0574      46.197268      28.511543      108.83043      17939.616    
     73000   413.37364      0.0365         0.38894595     0.37704817     0.38466977    -3785.3899      775.97156      775.97156      775.97156      4.6723721e+08  1.4999493     -56371900      -56371900       1230.9561     -56370669      -3838.5981     -3721.1762     -3796.3955      42.429875      23.920543      100.59662      18170.097    
     74000   413.69871      0.037          0.38905472     0.37814903     0.38369348    -3786.1575      776.34589      776.34589      776.34589      4.6791371e+08  1.4977807     -56335136      -56335136       1231.9241     -56333904      -3839.6715     -3732.0408     -3786.7602      38.64925       20.03405       92.081122      17893.062    
     75000   414.01174      0.0375         0.3891185      0.37911366     0.38266021    -3786.1415      776.72021      776.72021      776.72021      4.6859086e+08  1.4956163     -56298330      -56298330       1232.8563     -56297097      -3840.3011     -3741.561      -3776.5626      34.659823      16.074959      83.899201      18208.987    
     76000   414.14802      0.038          0.38899449     0.37992256     0.3816782     -3785.1641      777.09453      777.09453      777.09453      4.6926867e+08  1.493456      -56261497      -56261497       1233.2621     -56260264      -3839.0771     -3749.5441     -3766.871       30.522365      11.619222      76.152898      17948.28     
     77000   414.07681      0.0385         0.38863256     0.38053206     0.38061598    -3782.4841      777.46886      777.46886      777.46886      4.6994713e+08  1.4912999     -56224652      -56224652       1233.05       -56223419      -3835.5051     -3755.5594     -3756.3877      25.996464      7.0165146      68.473338      18162.894    
     78000   414.04869      0.039          0.3880335      0.38098721     0.3792885     -3777.6436      777.84318      777.84318      777.84318      4.7062625e+08  1.489148      -56187809      -56187809       1232.9663     -56186576      -3829.5929     -3760.0514     -3743.2864      21.315513      2.4434377      60.281483      17908.748    
     79000   414.22206      0.0395         0.38732767     0.38139969     0.37772852    -3771.5466      778.2175       778.2175       778.2175       4.7130601e+08  1.4870001     -56150982      -56150982       1233.4826     -56149748      -3822.6269     -3764.1223     -3727.8907      16.522483     -1.9723497      51.913375      18057.76     
     80000   414.36283      0.04           0.38652302     0.38174835     0.37609316    -3764.6666      778.59183      778.59183      778.59183      4.7198644e+08  1.4848565     -56114188      -56114188       1233.9018     -56112954      -3814.6857     -3767.5633     -3711.7509      11.699082     -6.128772       43.836002      18096.717    
     81000   414.30628      0.0405         0.38561606     0.38190201     0.37447198    -3756.8552      778.96615      778.96615      778.96615      4.7266751e+08  1.4827169     -56077436      -56077436       1233.7334     -56076203      -3805.7346     -3769.0798     -3695.7511      6.7373922     -9.97904        35.758168      17938.151    
     82000   414.10836      0.041          0.38460082     0.38184423     0.37285516    -3748.0063      779.34047      779.34047      779.34047      4.7334925e+08  1.4805814     -56040735      -56040735       1233.144      -56039502      -3795.715      -3768.5096     -3679.7944      1.4237856     -13.963877      27.485306      18138.074    
     83000   413.91628      0.0415         0.38342354     0.38163715     0.37115698    -3737.8655      779.71479      779.71479      779.71479      4.7403163e+08  1.4784501     -56004092      -56004092       1232.572      -56002860      -3784.0962     -3766.4658     -3663.0346     -4.2542553     -18.412698      19.264166      17905.468    
     84000   413.72558      0.042          0.38200886     0.3813383      0.36929335    -3726.0976      780.08912      780.08912      780.08912      4.7471468e+08  1.4763228     -55967521      -55967521       1232.0041     -55966289      -3770.1344     -3763.5164     -3644.642      -10.043742     -23.199284      11.100197      18110.204    
     85000   413.45062      0.0425         0.38039323     0.3809834      0.36727428    -3712.9728      780.46344      780.46344      780.46344      4.7539837e+08  1.4741996     -55931038      -55931038       1231.1853     -55929807      -3754.1893     -3760.0138     -3624.7153     -15.287251     -28.062909      3.0370618      17935.234    
     86000   413.07967      0.043          0.37861711     0.38051136     0.36519565    -3698.7388      780.83776      780.83776      780.83776      4.7608273e+08  1.4720805     -55894659      -55894659       1230.0807     -55893429      -3736.6604     -3755.3551     -3604.2008     -20.284965     -32.460987     -5.0678013      17929.028    
     87000   412.65051      0.0435         0.37675426     0.37984887     0.36312142    -3683.6074      781.21209      781.21209      781.21209      4.7676774e+08  1.4699655     -55858393      -55858393       1228.8027     -55857164      -3718.2755     -3748.8169     -3583.7298     -25.739121     -36.075481     -13.233245      17773.046    
     88000   412.03753      0.044          0.37485736     0.37902746     0.36099535    -3667.6706      781.58641      781.58641      781.58641      4.7745341e+08  1.4678545     -55822249      -55822249       1226.9774     -55821022      -3699.5545     -3740.7102     -3562.7471     -31.503009     -39.74084      -21.277828      17923.311    
     89000   411.25445      0.0445         0.37283643     0.37808875     0.35869571    -3650.3689      781.96073      781.96073      781.96073      4.7813973e+08  1.4657475     -55786233      -55786233       1224.6455     -55785008      -3679.6094     -3731.4458     -3540.0514     -37.26896      -44.148539     -29.262881      17998.121    
     90000   410.54368      0.045          0.37060239     0.37709004     0.35627863    -3631.7824      782.33506      782.33506      782.33506      4.7882671e+08  1.4636446     -55750355      -55750355       1222.529      -55749133      -3657.5612     -3721.5893     -3516.1967     -43.062511     -48.758221     -37.333099      17966.619    
     91000   409.9001       0.0455         0.36823353     0.37599577     0.3539223     -3612.6379      782.70938      782.70938      782.70938      4.7951435e+08  1.4615456     -55714630      -55714630       1220.6125     -55713410      -3634.1824     -3710.7898     -3492.9415     -48.501903     -52.963169     -45.473916      18151.008    
     92000   409.21995      0.046          0.36575492     0.3746657      0.35158906    -3592.4325      783.0837       783.0837       783.0837       4.8020265e+08  1.4594507     -55679072      -55679072       1218.5871     -55677854      -3609.7204     -3697.663      -3469.9143     -53.597754     -56.817922     -53.680741      17925.849    
     93000   408.54198      0.0465         0.36316925     0.37318038     0.34916412    -3571.0626      783.45802      783.45802      783.45802      4.8089161e+08  1.4573598     -55643690      -55643690       1216.5683     -55642473      -3584.2018     -3683.004      -3445.9819     -58.759748     -60.534002     -61.58606       18155.231    
     94000   407.7969       0.047          0.36045024     0.37168174     0.34664258    -3548.8924      783.83235      783.83235      783.83235      4.8158122e+08  1.4552729     -55608494      -55608494       1214.3495     -55607280      -3557.3673     -3668.2136     -3421.0963     -63.856146     -64.031611     -69.161926      17908.589    
     95000   406.74589      0.0475         0.35760885     0.3701452      0.3440728     -3526.0362      784.20667      784.20667      784.20667      4.822715e+08   1.45319       -55573487      -55573487       1211.2198     -55572276      -3529.3249     -3653.0491     -3395.7345     -68.415507     -67.301927     -76.520459      18102.954    
     96000   405.29239      0.048          0.3546904      0.36849849     0.34149203    -3502.5279      784.58099      784.58099      784.58099      4.8296243e+08  1.451111      -55538673      -55538673       1206.8915     -55537466      -3500.5221     -3636.7973     -3370.2643     -72.744314     -70.719661     -83.97554       17954.225    
     97000   403.69642      0.0485         0.35166989     0.3666666      0.33886542    -3477.9239      784.95532      784.95532      784.95532      4.8365402e+08  1.449036      -55504067      -55504067       1202.139      -55502865      -3470.712      -3618.718      -3344.3417     -77.386839     -74.092629     -91.242517      17940.733    
     98000   402.30941      0.049          0.34862949     0.36472033     0.33620051    -3452.7521      785.32964      785.32964      785.32964      4.8434628e+08  1.446965      -55469674      -55469674       1198.0087     -55468476      -3440.7055     -3599.5098     -3318.041      -82.127524     -77.103954     -97.830911      18041.865    
     99000   401.04432      0.0495         0.3455636      0.36277498     0.33355263    -3427.5556      785.70396      785.70396      785.70396      4.8503919e+08  1.4448979     -55435495      -55435495       1194.2415     -55434300      -3410.4476     -3580.3107     -3291.9085     -86.348518     -79.998684     -103.96152      17851.875    
    100000   399.73536      0.05           0.34234166     0.36076844     0.33093905    -3401.7572      786.07829      786.07829      786.07829      4.8573276e+08  1.4428348     -55401535      -55401535       1190.3437     -55400345      -3378.6495     -3560.5077     -3266.1145     -89.656867     -82.696492     -110.08117      17517.586    
    101000   398.39352      0.0505         0.33897844     0.35862189     0.32829965    -3374.9485      786.45261      786.45261      786.45261      4.86427e+08    1.4407755     -55367811      -55367811       1186.3479     -55366624      -3345.4571     -3539.3228     -3240.0656     -92.237138     -85.073215     -116.3995       17882.106    
    102000   397.07983      0.051          0.33565258     0.35636584     0.32561312    -3347.7475      786.82693      786.82693      786.82693      4.8712189e+08  1.4387202     -55334329      -55334329       1182.4359     -55333146      -3312.6334     -3517.0574     -3213.5516     -94.339156     -87.449211     -122.57449      18125.364    
    103000   395.60849      0.0515         0.33237817     0.35409188     0.32285799    -3320.4311      787.20125      787.20125      787.20125      4.8781745e+08  1.4366688     -55301087      -55301087       1178.0545     -55299909      -3280.3175     -3494.6152     -3186.3606     -96.078815     -90.151079     -128.27628      18006.007    
    104000   393.88876      0.052          0.32898466     0.35173187     0.3200275     -3292.1919      787.57558      787.57558      787.57558      4.8851367e+08  1.4346213     -55268087      -55268087       1172.9335     -55266914      -3246.8262     -3471.3237     -3158.4258     -98.058807     -92.839225     -133.55629      18076.368    
    105000   392.13631      0.0525         0.3254509      0.34921793     0.31717046    -3262.8976      787.9499       787.9499       787.9499       4.8921055e+08  1.4325777     -55235338      -55235338       1167.715      -55234170      -3211.9506     -3446.513      -3130.2291     -99.936445     -95.060818     -138.10472      17948.329    
    106000   390.4981       0.053          0.32193886     0.34656799     0.31435182    -3233.3537      788.32422      788.32422      788.32422      4.8990809e+08  1.4305379     -55202851      -55202851       1162.8367     -55201688      -3177.2895     -3420.3602     -3102.4113     -101.08898     -96.549544     -142.03263      18034.412    
    107000   388.91542      0.0535         0.3185078      0.3438547      0.31154008    -3203.8904      788.69855      788.69855      788.69855      4.906063e+08   1.4285021     -55170630      -55170630       1158.1237     -55169472      -3143.4276     -3393.582      -3074.6615     -101.45348     -97.382294     -146.05893      18032.169    
    108000   387.2971       0.054          0.31502737     0.34108245     0.30871258    -3174.0189      789.07287      789.07287      789.07287      4.9130517e+08  1.4264701     -55138682      -55138682       1153.3046     -55137528      -3109.0784     -3366.2221     -3046.7563     -101.17081     -98.462822     -150.28545      17920.401    
    109000   385.67427      0.0545         0.31141154     0.33825164     0.30587199    -3143.4663      789.44719      789.44719      789.44719      4.920047e+08   1.4244419     -55107008      -55107008       1148.4721     -55105859      -3073.3929     -3338.2841     -3018.7219     -100.493       -99.835072     -154.1693       18112.167    
    110000   384.043        0.055          0.30777179     0.33537339     0.30304796    -3112.7334      789.82151      789.82151      789.82151      4.927049e+08   1.4224176     -55075608      -55075608       1143.6145     -55074464      -3037.4714     -3309.878      -2990.8508     -99.596801     -100.92946     -157.18275      17969.925    
    111000   382.40027      0.0555         0.30421345     0.33240218     0.30024972    -3082.0474      790.19584      790.19584      790.19584      4.9340576e+08  1.4203971     -55044479      -55044479       1138.7227     -55043341      -3002.3533     -3280.5544     -2963.2344     -98.613918     -101.67332     -159.12762      18105.832    
    112000   380.80557      0.056          0.30072887     0.32929258     0.29745649    -3051.1652      790.57016      790.57016      790.57016      4.9410728e+08  1.4183805     -55013631      -55013631       1133.974      -55012497      -2967.9632     -3249.8651     -2935.6673     -97.741247     -102.37904     -160.64141      17897.2      
    113000   379.244        0.0565         0.29723903     0.32608007     0.29459935    -3019.7169      790.94448      790.94448      790.94448      4.9480947e+08  1.4163676     -54983077      -54983077       1129.3239     -54981948      -2933.5212     -3218.16       -2907.4695     -96.489789     -102.99657     -161.99201      18147.016    
    114000   377.65692      0.057          0.29372362     0.3228085      0.29166072    -2987.7222      791.31881      791.31881      791.31881      4.9551233e+08  1.4143586     -54952818      -54952818       1124.5978     -54951694      -2898.8268     -3185.8722     -2878.4675     -94.201628     -103.15493     -163.09503      17969.68     
    115000   375.96492      0.0575         0.29021962     0.31950794     0.2887612     -2955.7982      791.69313      791.69313      791.69313      4.9621585e+08  1.4123533     -54922843      -54922843       1119.5593     -54921724      -2864.2449     -3153.2982     -2849.8514     -91.390628     -102.92821     -163.46066      18036.529    
    116000   374.2622       0.058          0.28675108     0.31624194     0.28597685    -2924.4835      792.06745      792.06745      792.06745      4.9692003e+08  1.4103519     -54893147      -54893147       1114.4889     -54892032      -2830.0131     -3121.0653     -2822.3721     -89.149634     -102.42392     -162.95318      18138.446    
    117000   372.65111      0.0585         0.28335238     0.31294146     0.28325381    -2893.4868      792.44178      792.44178      792.44178      4.9762488e+08  1.4083542     -54863737      -54863737       1109.6914     -54862627      -2796.4706     -3088.4921     -2795.4978     -87.263128     -101.49815     -162.06772      18021.295    
    118000   371.10673      0.059          0.28008169     0.30956431     0.28044511    -2862.3772      792.8161       792.8161       792.8161       4.983304e+08   1.4063603     -54834624      -54834624       1105.0925     -54833519      -2764.1913     -3055.1622     -2767.778      -84.978803     -100.26977     -161.0006       18060.576    
    119000   369.59838      0.0595         0.27690901     0.30605211     0.27744658    -2830.5213      793.19042      793.19042      793.19042      4.9903658e+08  1.4043702     -54805814      -54805814       1100.6009     -54804714      -2732.8794     -3020.4995     -2738.1849     -81.769378     -98.959899     -159.5287       17755.745    
    120000   368.15794      0.06           0.27376923     0.30242119     0.27438151    -2798.1641      793.56474      793.56474      793.56474      4.9974343e+08  1.4023838     -54777299      -54777299       1096.3115     -54776202      -2701.8923     -2984.6651     -2707.935      -77.693937     -97.847658     -157.31422      18072.439    
    121000   366.74422      0.0605         0.27065491     0.29878573     0.27150986    -2766.5121      793.93907      793.93907      793.93907      5.0045095e+08  1.4004012     -54749066      -54749066       1092.1017     -54747974      -2671.1563     -2948.7859     -2679.594      -73.523631     -96.953292     -154.39696      18016.377    
    122000   365.24031      0.061          0.26765741     0.29524866     0.2689595     -2736.6249      794.31339      794.31339      794.31339      5.0115914e+08  1.3984223     -54721111      -54721111       1087.6233     -54720023      -2641.5732     -2913.8777     -2654.4239     -69.956026     -95.685698     -151.34553      18134.275    
    123000   363.70765      0.0615         0.2648431      0.29182233     0.26654423    -2708.1492      794.68771      794.68771      794.68771      5.0186799e+08  1.3964471     -54693434      -54693434       1083.0593     -54692351      -2613.7982     -2880.0625     -2630.587      -67.149243     -93.5297       -147.84876      17958.575    
    124000   362.40035      0.062          0.26215332     0.28838578     0.26395207    -2679.4676      795.06204      795.06204      795.06204      5.0257751e+08  1.3944757     -54666037      -54666037       1079.1664     -54664958      -2587.2521     -2846.1464     -2605.0044     -64.578923     -90.740556     -143.79981      18180.317    
    125000   361.25968      0.0625         0.25949972     0.28486992     0.26111975    -2649.8541      795.43636      795.43636      795.43636      5.032877e+08   1.3925079     -54638915      -54638915       1075.7696     -54637840      -2561.0632     -2811.4475     -2577.0515     -61.341462     -88.080312     -139.66308      17969.978    
    126000   359.92661      0.063          0.25687039     0.28129447     0.25822073    -2619.9049      795.81068      795.81068      795.81068      5.0399856e+08  1.3905439     -54612067      -54612067       1071.8        -54610996      -2535.1137     -2776.1605     -2548.4404     -57.006064     -86.24025      -135.83016      18031.32     
    127000   358.25326      0.0635         0.2542716      0.27771536     0.25550838    -2590.6582      796.18501      796.18501      796.18501      5.0471009e+08  1.3885835     -54585483      -54585483       1066.817      -54584416      -2509.4655     -2740.8375     -2521.6716     -52.358613     -84.876387     -131.76078      18109.751    
    128000   356.48491      0.064          0.2518116      0.27421774     0.25308878    -2563.0993      796.55933      796.55933      796.55933      5.0542228e+08  1.3866269     -54559152      -54559152       1061.5512     -54558091      -2485.1873     -2706.3187     -2497.7921     -48.675914     -82.889867     -126.88561      17967.841    
    129000   354.87929      0.0645         0.24950249     0.27083872     0.25081751    -2536.9149      796.93365      796.93365      796.93365      5.0613515e+08  1.3846739     -54533076      -54533076       1056.7699     -54532020      -2462.3981     -2672.9704     -2475.3764     -46.037107     -79.882844     -121.19476      18111.833    
    130000   353.37215      0.065          0.24726883     0.26755325     0.24850279    -2511.1436      797.30797      797.30797      797.30797      5.0684868e+08  1.3827245     -54507255      -54507255       1052.2819     -54506202      -2440.3537     -2640.5453     -2452.5318     -43.238749     -76.882073     -115.46294      17934.257    
    131000   352.00273      0.0655         0.24501747     0.26434508     0.24605331    -2485.125       797.6823       797.6823       797.6823       5.0756289e+08  1.3807789     -54481678      -54481678       1048.204      -54480630      -2418.1344     -2608.8831     -2428.3574     -39.563546     -74.699564     -110.65429      18203.494    
    132000   350.87621      0.066          0.24274422     0.26123784     0.24358392    -2459.3009      798.05662      798.05662      798.05662      5.0827777e+08  1.3788368     -54456333      -54456333       1044.8494     -54455288      -2395.6992     -2578.2171     -2403.9864     -35.863029     -73.046682     -106.54182      17920.712    
    133000   349.83076      0.0665         0.24060876     0.25825434     0.24128791    -2434.9075      798.43094      798.43094      798.43094      5.0899332e+08  1.3768985     -54431207      -54431207       1041.7363     -54430165      -2374.6238     -2548.7722     -2381.3266     -33.004617     -71.196423     -101.89785      18075.238    
    134000   348.5764       0.067          0.23867161     0.25537811     0.23921485    -2412.2529      798.80527      798.80527      798.80527      5.0970954e+08  1.3749637     -54406297      -54406297       1038.001      -54405259      -2355.5057     -2520.386      -2360.8671     -30.788982     -68.69401      -96.101046      17983.155    
    135000   347.08429      0.0675         0.23682982     0.25254744     0.23725012    -2390.4182      799.17959      799.17959      799.17959      5.1042643e+08  1.3730326     -54381602      -54381602       1033.5577     -54380569      -2337.3286     -2492.4495     -2341.4766     -28.34437      -65.776665     -90.007297      17961.857    
    136000   345.57885      0.068          0.23496372     0.249711       0.23521513    -2368.2535      799.55391      799.55391      799.55391      5.1114399e+08  1.3711051     -54357117      -54357117       1029.0748     -54356088      -2318.9116     -2464.456      -2321.3928     -25.500931     -62.955635     -84.976178      18107.339    
    137000   344.15167      0.0685         0.23312835     0.24693193     0.23312281    -2346.19        799.92824      799.92824      799.92824      5.1186223e+08  1.3691812     -54332830      -54332830       1024.8249     -54331805      -2300.7979     -2437.0287     -2300.7433     -22.74469      -60.549533     -81.073829      17898.973    
    138000   342.72655      0.069          0.23134224     0.24431334     0.23111916    -2325.1081      800.30256      800.30256      800.30256      5.1258113e+08  1.3672608     -54308731      -54308731       1020.5812     -54307710      -2283.1704     -2411.1852     -2280.9688     -20.63735      -58.208894     -77.694435      18124.928    
    139000   341.26038      0.0695         0.22963859     0.24192235     0.22932608    -2305.739       800.67688      800.67688      800.67688      5.1330071e+08  1.3653441     -54284811      -54284811       1016.2151     -54283795      -2266.3567     -2387.588      -2263.2724     -18.956634     -56.432247     -73.841563      17865.438    
    140000   339.80284      0.07           0.22801055     0.23968219     0.22766592    -2287.5521      801.0512       801.0512       801.0512       5.1402097e+08  1.363431      -54261062      -54261062       1011.8748     -54260050      -2250.2891     -2365.4793     -2246.8879     -17.298923     -55.194063     -69.40391       18090.936    
    141000   338.50134      0.0705         0.22648185     0.23751275     0.22601051    -2269.9403      801.42553      801.42553      801.42553      5.1474189e+08  1.3615214     -54237474      -54237474       1007.9992     -54236466      -2235.202      -2344.0685     -2230.5503     -15.393824     -53.752734     -64.959219      17951.361    
    142000   337.42022      0.071          0.22503966     0.23537508     0.2243247     -2252.6176      801.79985      801.79985      801.79985      5.1546349e+08  1.3596154     -54214044      -54214044       1004.7798     -54213039      -2220.9688     -2322.9714     -2213.9126     -13.572657     -51.508186     -60.989771      18140.041    
    143000   336.34443      0.0715         0.22366487     0.23330748     0.22274004    -2236.0799      802.17417      802.17417      802.17417      5.1618577e+08  1.357713      -54190765      -54190765       1001.5763     -54189763      -2207.4006     -2302.5658     -2198.2733     -12.113029     -49.150039     -57.50622       17973.721    
    144000   335.04721      0.072          0.22225864     0.23126626     0.22129906    -2219.9982      802.5485       802.5485       802.5485       5.1690872e+08  1.3558141     -54167633      -54167633       997.71339     -54166635      -2193.5222     -2282.4205     -2184.0519     -11.050152     -47.331356     -54.377343      17892.515    
    145000   333.74624      0.0725         0.22079899     0.22922891     0.219868      -2203.7862      802.92282      802.92282      802.92282      5.1763234e+08  1.3539187     -54144642      -54144642       993.83932     -54143648      -2179.1166     -2262.3134     -2169.9284     -10.286864     -45.727818     -51.507387      17976.483    
    146000   332.68202      0.073          0.2193641      0.22730238     0.21839831    -2187.8931      803.29714      803.29714      803.29714      5.1835664e+08  1.3520269     -54121789      -54121789       990.67026     -54120799      -2164.9554     -2243.3001     -2155.4237     -9.4274317     -44.079142     -48.842825      17912.299    
    147000   331.76019      0.0735         0.21804872     0.2255896      0.2169847     -2173.2808      803.67147      803.67147      803.67147      5.1908161e+08  1.3501386     -54099068      -54099068       987.9252      -54098080      -2151.9736     -2226.3962     -2141.4725     -8.1335529     -42.623323     -46.067521      18086.046    
    148000   330.78521      0.074          0.21689962     0.22403857     0.21570533    -2160.1892      804.04579      804.04579      804.04579      5.1980726e+08  1.3482538     -54076468      -54076468       985.02186     -54075483      -2140.6328     -2211.0888     -2128.8461     -6.9161346     -41.308377     -42.946854      17872.196    
    149000   329.786        0.0745         0.21581481     0.22253733     0.21446631    -2147.6057      804.42011      804.42011      804.42011      5.2053359e+08  1.3463725     -54053986      -54053986       982.0464      -54053004      -2129.9265     -2196.2727     -2116.6179     -6.312819      -39.818747     -39.944815      18126.006    
    150000   328.83326      0.075          0.21463596     0.22102443     0.21319543    -2134.5697      804.79443      804.79443      804.79443      5.2126059e+08  1.3444947     -54031622      -54031622       979.20929     -54030642      -2118.2922     -2181.3415     -2104.0753     -6.2026261     -38.575569     -37.598652      17212.99     
    151000   327.94887      0.0755         0.21337104     0.21951059     0.21191815    -2121.2264      805.16876      805.16876      805.16876      5.2198827e+08  1.3426204     -54009370      -54009370       976.57573     -54008394      -2105.8084     -2166.4011     -2091.4696     -5.9416348     -37.977466     -35.904716      18043.493    
    152000   327.2053       0.076          0.21217176     0.21804352     0.21074847    -2108.6068      805.54308      805.54308      805.54308      5.2271663e+08  1.3407496     -53987219      -53987219       974.36151     -53986245      -2093.9725     -2151.9222     -2079.9257     -5.1860237     -37.483031     -34.415077      17895.978    
    153000   326.58162      0.0765         0.21113        0.21667832     0.20973153    -2097.343       805.9174       805.9174       805.9174       5.2344566e+08  1.3388823     -53965161      -53965161       972.50428     -53964189      -2083.6911     -2138.4487     -2069.8893     -4.4672772     -36.278822     -32.323286      17882.847    
    154000   325.93535      0.077          0.21019382     0.21536753     0.20876921    -2086.7853      806.29173      806.29173      806.29173      5.2417537e+08  1.3370184     -53943198      -53943198       970.57983     -53942227      -2074.4517     -2125.5123     -2060.3919     -4.5352162     -34.298645     -29.59428       18037.31     
    155000   325.17542      0.0775         0.20921871     0.21410287     0.20773786    -2076.0241      806.66605      806.66605      806.66605      5.2490576e+08  1.335158      -53921333      -53921333       968.31689     -53920364      -2064.8281     -2113.031      -2050.2132     -5.0919628     -32.511139     -27.251814      17907.259    
    156000   324.3986       0.078          0.20815185     0.21289041     0.20663579    -2064.9002      807.04037      807.04037      807.04037      5.2563682e+08  1.333301      -53899562      -53899562       966.00363     -53898596      -2054.299      -2101.0649     -2039.3367     -5.2716172     -31.561955     -25.835905      18115.325    
    157000   323.7598       0.0785         0.20705952     0.21173437     0.20555114    -2053.9355      807.4147       807.4147       807.4147       5.2636857e+08  1.3314475     -53877881      -53877881       964.10139     -53876917      -2043.5186     -2089.6558     -2028.632      -4.9380765     -31.292932     -25.019132      17919.288    
    158000   323.19633      0.079          0.20607648     0.2105835      0.20454022    -2043.5898      807.78902      807.78902      807.78902      5.2710099e+08  1.3295974     -53856285      -53856285       962.42348     -53855323      -2033.8167     -2078.2976     -2018.655      -4.4775965     -31.292116     -24.01258       18147.442    
    159000   322.64087      0.0795         0.20521482     0.20943527     0.20359638    -2033.8727      808.16334      808.16334      808.16334      5.278341e+08   1.3277507     -53834771      -53834771       960.76942     -53833810      -2025.3128     -2066.9654     -2009.34       -4.2403615     -31.132287     -22.360112      17901.098    
    160000   322.12519      0.08           0.20435505     0.20835872     0.20270241    -2024.5618      808.53766      808.53766      808.53766      5.2856788e+08  1.3259075     -53813339      -53813339       959.23382     -53812380      -2016.8275     -2056.3407     -2000.5172     -4.4391098     -30.39846      -20.673569      18141.509    
    161000   321.62071      0.0805         0.20338869     0.20732896     0.20185936    -2015.2217      808.91199      808.91199      808.91199      5.2930234e+08  1.3240677     -53791990      -53791990       957.73155     -53791032      -2007.2903     -2046.1778     -1992.197      -5.2196663     -29.062637     -19.456436      17952.795    
    162000   321.12586      0.081          0.20239553     0.20628156     0.20103387    -2005.7931      809.28631      809.28631      809.28631      5.3003748e+08  1.3222312     -53770721      -53770721       956.25799     -53769764      -1997.4886     -2035.8407     -1984.05       -6.0378254     -27.62045      -18.643753      18049.671    
    163000   320.74921      0.0815         0.20149803     0.20525188     0.20015072    -1996.5478      809.66063      809.66063      809.66063      5.307733e+08   1.3203982     -53749527      -53749527       955.13638     -53748572      -1988.631      -2025.6786     -1975.334      -6.1259269     -26.684703     -17.678747      18083.559    
    164000   320.49752      0.082          0.20072035     0.20431378     0.19920995    -1987.8084      810.03496      810.03496      810.03496      5.3150981e+08  1.3185685     -53728403      -53728403       954.38688     -53727449      -1980.9558     -2016.4202     -1966.0493     -5.5486795     -26.447167     -16.476516      17957.579    
    165000   320.20999      0.0825         0.19999761     0.20351344     0.19835025    -1979.9697      810.40928      810.40928      810.40928      5.3224699e+08  1.3167423     -53707344      -53707344       953.53067     -53706390      -1973.823      -2008.5215     -1957.5647     -5.2069831     -26.752025     -15.339346      18119.916    
    166000   319.80261      0.083          0.19920593     0.20271621     0.19761324    -1972.318       810.7836       810.7836       810.7836       5.3298486e+08  1.3149194     -53686351      -53686351       952.31756     -53685398      -1966.0097     -2000.6534     -1950.2911     -5.6993848     -26.620147     -14.41593       18005.421    
    167000   319.47568      0.0835         0.19827876     0.20175404     0.196886      -1963.7102      811.15793      811.15793      811.15793      5.337234e+08   1.3130998     -53665429      -53665429       951.34403     -53664478      -1956.8592     -1991.1575     -1943.1137     -6.6374927     -25.675052     -13.914209      18138.863    
    168000   319.32852      0.084          0.1973553      0.20073215     0.19611712    -1954.7811      811.53225      811.53225      811.53225      5.3446263e+08  1.3112836     -53644581      -53644581       950.90579     -53643630      -1947.7454     -1981.0723     -1935.5255     -7.2925752     -24.611941     -13.582477      17953.588    
    169000   319.07303      0.0845         0.19659481     0.19986267     0.1953018     -1946.7367      811.90657      811.90657      811.90657      5.3520254e+08  1.3094708     -53623797      -53623797       950.145       -53622847      -1940.2399     -1972.4912     -1927.4789     -7.2790969     -24.131197     -13.100247      18115.486    
    170000   318.55631      0.085          0.19596387     0.19915071     0.19448777    -1939.6409      812.28089      812.28089      812.28089      5.3594314e+08  1.3076613     -53603069      -53603069       948.6063      -53602121      -1934.0131     -1965.4647     -1919.4451     -6.6348459     -24.361955     -12.297476      17891.796    
    171000   318.09876      0.0855         0.19526066     0.1983902      0.19372       -1932.2999      812.65522      812.65522      812.65522      5.3668442e+08  1.3058552     -53582400      -53582400       947.2438      -53581453      -1927.0729     -1957.959      -1911.8678     -6.0462004     -24.688601     -11.052606      18003.179    
    172000   317.93701      0.086          0.19442411     0.19750268     0.19303961    -1924.3898      813.02954      813.02954      813.02954      5.3742638e+08  1.3040523     -53561795      -53561795       946.76212     -53560848      -1918.8168     -1949.1999     -1905.1529     -6.3102828     -24.382029     -10.091537      18101.999    
    173000   317.83074      0.0865         0.19356639     0.19662432     0.19238513    -1916.5255      813.40386      813.40386      813.40386      5.3816902e+08  1.3022528     -53541252      -53541252       946.44568     -53540306      -1910.3518     -1940.5312     -1898.6936     -7.4505405     -23.410691     -9.936386       17867.683    
    174000   317.71353      0.087          0.19282862     0.19591327     0.19167555    -1909.4249      813.77819      813.77819      813.77819      5.3891235e+08  1.3004566     -53520768      -53520768       946.09664     -53519822      -1903.0705     -1933.5137     -1891.6906     -8.4930174     -22.426619     -10.307383      18135.968    
    175000   317.67244      0.0875         0.19221529     0.19531057     0.19093532    -1902.9893      814.15251      814.15251      814.15251      5.3965636e+08  1.2986637     -53500338      -53500338       945.9743      -53499392      -1897.0174     -1927.5654     -1884.3851     -8.6613875     -22.083903     -10.42456       17952.392    
    176000   317.56149      0.088          0.19159246     0.19463841     0.19024436    -1896.456       814.52683      814.52683      814.52683      5.4040105e+08  1.2968741     -53479961      -53479961       945.64389     -53479016      -1890.8705     -1920.9318     -1877.5658     -7.9211612     -22.243568     -9.7094113      18119.002    
    177000   317.34931      0.0885         0.19082399     0.19377817     0.18958087    -1888.9153      814.90116      814.90116      814.90116      5.4114643e+08  1.2950877     -53459644      -53459644       945.01206     -53458699      -1883.2863     -1912.4419     -1871.0177     -7.160862      -22.513763     -8.284011       17885.642    
    178000   317.2456       0.089          0.189973       0.19284003     0.18889598    -1880.7764      815.27548      815.27548      815.27548      5.418925e+08   1.2933047     -53439388      -53439388       944.70323     -53438443      -1874.8877     -1903.1831     -1864.2584     -7.19573       -22.630782     -7.282002       18119.351    
    179000   317.12046      0.0895         0.18927438     0.19208523     0.18826098    -1873.9061      815.6498       815.6498       815.6498       5.4263925e+08  1.2915249     -53419185      -53419185       944.33057     -53418241      -1867.9929     -1895.7338     -1857.9914     -8.0236467     -22.551758     -7.2390081      17950.369    
    180000   316.75311      0.09           0.18872921     0.1915481      0.1876615     -1868.3734      816.02412      816.02412      816.02412      5.4338669e+08  1.2897484     -53399030      -53399030       943.23667     -53398087      -1862.6125     -1890.4327     -1852.075      -8.9793424     -22.099833     -7.7302439      17913.14     
    181000   316.3678       0.0905         0.18812924     0.1910223      0.18701518    -1862.5437      816.39845      816.39845      816.39845      5.4413481e+08  1.2879751     -53378924      -53378924       942.08929     -53377982      -1856.6912     -1885.2435     -1845.6963     -9.4777524     -21.269402     -7.7554209      18057.219    
    182000   316.2552       0.091          0.18740965     0.1903204      0.18626367    -1855.3951      816.77277      816.77277      816.77277      5.4488362e+08  1.2862051     -53358877      -53358877       941.75399     -53357935      -1849.5895     -1878.3163     -1838.2795     -9.4811113     -20.483652     -6.9947859      17955.885    
    183000   316.30037      0.0915         0.18667776     0.18944702     0.18546456    -1847.4853      817.14709      817.14709      817.14709      5.4563312e+08  1.2844384     -53338890      -53338890       941.88848     -53337948      -1842.3662     -1869.6967     -1830.3929     -9.2364882     -20.184382     -5.8600092      18105.919    
    184000   316.36398      0.092          0.18602295     0.18860443     0.18474555    -1840.1939      817.52142      817.52142      817.52142      5.463833e+08   1.2826748     -53318954      -53318954       942.07792     -53318012      -1835.9038     -1861.381      -1823.2968     -8.8929487     -20.575649     -5.1868534      17919.106    
    185000   316.29011      0.0925         0.18543676     0.1880005      0.18420071    -1834.4863      817.89574      817.89574      817.89574      5.4713417e+08  1.2809145     -53299061      -53299061       941.85793     -53298119      -1830.1186     -1855.4206     -1817.9196     -8.5079217     -21.011861     -5.3987098      18087.676    
    186000   316.07311      0.093          0.18486662     0.1875884      0.18376663    -1829.827       818.27006      818.27006      818.27006      5.4788573e+08  1.2791575     -53279212      -53279212       941.21175     -53278270      -1824.4917     -1851.3536     -1813.6357     -8.5809949     -20.975673     -6.0477673      17960.635    
    187000   316.03755      0.0935         0.18427525     0.18710354     0.18328345    -1824.6969      818.64439      818.64439      818.64439      5.4863797e+08  1.2774036     -53259410      -53259410       941.10586     -53258469      -1818.6553     -1846.5684     -1808.867      -9.1070261     -20.740273     -6.2440395      18046.525    
    188000   316.19288      0.094          0.18366085     0.18642044     0.18269197    -1818.4826      819.01871      819.01871      819.01871      5.4939091e+08  1.2756529     -53239655      -53239655       941.56841     -53238713      -1812.5917     -1839.8267     -1803.0296     -9.4019027     -20.623461     -5.661041       17884.225    
    189000   316.21518      0.0945         0.18306572     0.185586       0.18199698    -1811.4933      819.39303      819.39303      819.39303      5.5014453e+08  1.2739054     -53219948      -53219948       941.63482     -53219006      -1806.7182     -1831.5914     -1796.1705     -9.0820935     -20.33719      -4.6784718      18059.237    
    190000   316.07273      0.095          0.18247585     0.18477286     0.18130429    -1804.5991      819.76735      819.76735      819.76735      5.5089884e+08  1.2721612     -53200291      -53200291       941.21061     -53199350      -1800.8967     -1823.5664     -1789.3342     -8.6491354     -19.927047     -3.8617313      18035.663    
    191000   315.96881      0.0955         0.18187134     0.18412781     0.18067538    -1798.4194      820.14168      820.14168      820.14168      5.5165384e+08  1.2704201     -53180691      -53180691       940.90117     -53179750      -1794.9306     -1817.2002     -1783.1274     -8.8721496     -19.78016      -3.6633433      17888.933    
    192000   315.92283      0.096          0.18127182     0.1836288      0.18009833    -1792.9072      820.516        820.516        820.516        5.5240953e+08  1.2686822     -53161139      -53161139       940.76423     -53160198      -1789.0138     -1812.2754     -1777.4323     -9.4433844     -19.949684     -3.8347265      18127.842    
    193000   315.75446      0.0965         0.18065601     0.18315573     0.17952625    -1787.443       820.89032      820.89032      820.89032      5.5316591e+08  1.2669474     -53141626      -53141626       940.26287     -53140685      -1782.9362     -1807.6065     -1771.7864     -9.6217516     -20.212358     -3.9884248      17931.579    
    194000   315.61637      0.097          0.1800049      0.18260448     0.17895329    -1781.6026      821.26465      821.26465      821.26465      5.5392298e+08  1.2652158     -53122152      -53122152       939.85165     -53121212      -1776.5102     -1802.1661     -1766.1316     -9.2120811     -20.050991     -3.828385       18117.752    
    195000   315.80168      0.0975         0.17941764     0.18197507     0.17840179    -1775.7858      821.63897      821.63897      821.63897      5.5468074e+08  1.2634874     -53102725      -53102725       940.40349     -53101785      -1770.7144     -1795.9543     -1760.6888     -8.8362189     -19.558906     -3.6058388      17940.852    
    196000   316.10531      0.098          0.17895822     0.18135026     0.17790064    -1770.5704      822.01329      822.01329      822.01329      5.5543919e+08  1.2617621     -53083344      -53083344       941.30764     -53082403      -1766.1803     -1789.7879     -1755.7429     -8.8795406     -19.105425     -3.5316476      18115.157    
    197000   316.09823      0.0985         0.17850819     0.18073573     0.17740126    -1765.4254      822.38762      822.38762      822.38762      5.5619834e+08  1.2600399     -53064002      -53064002       941.28656     -53063061      -1761.7389     -1783.723      -1750.8143     -9.2058551     -18.986623     -3.3813876      17890.986    
    198000   315.82116      0.099          0.17790851     0.18009002     0.17680081    -1759.353       822.76194      822.76194      822.76194      5.5695817e+08  1.2583209     -53044706      -53044706       940.46148     -53043765      -1755.8205     -1777.3503     -1744.8883     -9.54655       -19.153217     -2.8376864      17997.602    
    199000   315.59721      0.0995         0.17718367     0.17941799     0.17612621    -1752.5384      823.13626      823.13626      823.13626      5.5771869e+08  1.256605      -53025462      -53025462       939.7946      -53024522      -1748.6669     -1770.7179     -1738.2306     -9.4671632     -19.229624     -2.073606       18010.563    
    200000   315.54652      0.1            0.17653017     0.17883299     0.17552586    -1746.4891      823.51058      823.51058      823.51058      5.5847991e+08  1.2548922     -53006264      -53006264       939.64365     -53005324      -1742.2173     -1764.9444     -1732.3056     -8.7702019     -19.098744     -1.6233321      17275.889    
    201000   315.60213      0.1005         0.17606054     0.17837142     0.17506443    -1741.9077      823.88491      823.88491      823.88491      5.5924182e+08  1.2531826     -52987102      -52987102       939.80924     -52986162      -1737.5824     -1760.389      -1727.7516     -8.0803828     -18.848817     -1.886911       18077.968    
    202000   315.70069      0.101          0.1756688      0.1779252      0.17464154    -1737.7598      824.25923      824.25923      824.25923      5.6000442e+08  1.251476      -52967975      -52967975       940.10275     -52967035      -1733.7162     -1755.9852     -1723.578      -8.279128      -18.610324     -2.3430276      17978.773    
    203000   315.71419      0.1015         0.1751927      0.1773894      0.17412581    -1732.7343      824.63355      824.63355      824.63355      5.6076772e+08  1.2497726     -52948890      -52948890       940.14296     -52947950      -1729.0175     -1750.6973     -1718.4881     -9.2192832     -18.551849     -2.2804928      18136.472    
    204000   315.66014      0.102          0.17457051     0.17673795     0.1734625     -1726.3622      825.00788      825.00788      825.00788      5.6153171e+08  1.2480722     -52929856      -52929856       939.98199     -52928916      -1722.8769     -1744.268      -1711.9418     -9.7472505     -18.400411     -1.5161309      17908.48     
    205000   315.61278      0.1025         0.1739141      0.17605344     0.17280889    -1719.8007      825.3822       825.3822       825.3822       5.6229639e+08  1.2463749     -52910867      -52910867       939.84096     -52909927      -1716.3987     -1737.5124     -1705.4911     -9.2236771     -18.124708     -0.74936036     18112.689    
    206000   315.565        0.103          0.17338816     0.17544513     0.1723519     -1714.566       825.75652      825.75652      825.75652      5.6306177e+08  1.2446807     -52891916      -52891916       939.69868     -52890976      -1711.2081     -1731.5088     -1700.981      -8.2143173     -17.974769     -0.52709269     17894.952    
    207000   315.59131      0.1035         0.17299204     0.17492075     0.17203064    -1710.4809      826.13085      826.13085      826.13085      5.6382784e+08  1.2429896     -52872998      -52872998       939.77703     -52872058      -1707.2987     -1726.3336     -1697.8104     -7.6307142     -18.050514     -0.77270789     18036.25     
    208000   315.72977      0.104          0.17259989     0.17443531     0.17165569    -1706.3604      826.50517      826.50517      826.50517      5.645946e+08   1.2413015     -52854115      -52854115       940.18936     -52853175      -1703.4285     -1721.5427     -1694.11       -7.8114104     -18.18865      -1.0549676      18036.739    
    209000   315.85739      0.1045         0.17210769     0.1739579      0.17112776    -1701.4339      826.87949      826.87949      826.87949      5.6536206e+08  1.2396165     -52835271      -52835271       940.56938     -52834331      -1698.5709     -1716.831      -1688.8997     -8.4361597     -18.063734     -1.0227057      17863.195    
    210000   315.855        0.105          0.17150501     0.17345112     0.17051841    -1695.7794      827.25381      827.25381      827.25381      5.6613022e+08  1.2379345     -52816471      -52816471       940.56226     -52815530      -1692.6229     -1711.8295     -1682.8859     -8.8576336     -17.698973     -0.40244075     18137.475    
    211000   315.76998      0.1055         0.17090284     0.17290637     0.1699469     -1690.1262      827.62814      827.62814      827.62814      5.6689907e+08  1.2362555     -52797714      -52797714       940.30907     -52796773      -1686.6799     -1706.4532     -1677.2455     -8.7281182     -17.424114      0.47183689     17881.801    
    212000   315.7227       0.106          0.17038059     0.17234572     0.16946156    -1684.9671      828.00246      828.00246      828.00246      5.6766861e+08  1.2345796     -52778993      -52778993       940.16829     -52778053      -1681.5257     -1700.92       -1672.4555     -8.3414595     -17.462797      0.90404254     18136.714    
    213000   315.7132       0.1065         0.16996488     0.17180495     0.16903338    -1680.4119      828.37678      828.37678      828.37678      5.6843885e+08  1.2329068     -52760302      -52760302       940.13999     -52759362      -1677.4229     -1695.583      -1668.2297     -8.0016114     -17.74155       0.67118682     18012.794    
    214000   315.74531      0.107          0.16959363     0.17128069     0.1685625     -1675.9168      828.75111      828.75111      828.75111      5.6920979e+08  1.2312369     -52741647      -52741647       940.23562     -52740707      -1673.759      -1690.409      -1663.5826     -7.8055762     -17.920832      0.11235703     18134.815    
    215000   315.87868      0.1075         0.16914698     0.17073906     0.16802309    -1670.8911      829.12543      829.12543      829.12543      5.6998143e+08  1.2295701     -52723038      -52723038       940.63277     -52722097      -1669.3509     -1685.0635     -1658.259      -7.6641189     -17.601526      0.19864728     17927.726    
    216000   315.96015      0.108          0.16861532     0.17021614     0.16751187    -1665.74        829.49975      829.49975      829.49975      5.7075376e+08  1.2279063     -52704473      -52704473       940.87536     -52703532      -1664.1038     -1679.9027     -1653.2137     -7.7457784     -16.970828      1.0952317      18058.8      
    217000   315.82161      0.1085         0.16808379     0.1697201      0.16709913    -1661.0018      829.87408      829.87408      829.87408      5.7152679e+08  1.2262454     -52685943      -52685943       940.46284     -52685002      -1658.858      -1675.0071     -1649.1402     -7.940737      -16.597105      1.8289189      17965.953    
[...]
   4251000   322.49302      2.1255         0.0072352145   0.0072565331   0.0072477328  -71.51733       2339.893       2339.893       2339.893       1.2811147e+10  0.054704869   -9538899.2     -9538899.2      960.32913     -9537938.9     -71.406015     -71.616413     -71.529561     -0.1073108      0.12820449     0.055446604    17689.047    
   4252000   322.47226      2.126          0.0072293789   0.0072511108   0.0072422552  -71.462274      2340.2674      2340.2674      2340.2674      1.2817296e+10  0.054678623   -9532630.7     -9532630.7      960.26732     -9531670.4     -71.348422     -71.562899     -71.475502     -0.11271019     0.12629572     0.050988265    17582.943    
   4253000   322.46411      2.1265         0.0072234527   0.0072459749   0.0072365394  -71.40708       2340.6417      2340.6417      2340.6417      1.2823448e+10  0.054652394   -9526365.2     -9526365.2      960.24305     -9525404.9     -71.289935     -71.512212     -71.419091     -0.12165583     0.12888314     0.044853039    17573.256    
   4254000   322.46076      2.127          0.0072178254   0.0072413132   0.0072314334  -71.356434      2341.016       2341.016       2341.016       1.2829601e+10  0.054626182   -9520102.4     -9520102.4      960.23308     -9519142.2     -71.234398     -71.466205     -71.368699     -0.12734339     0.13115097     0.03887164     17692.106    
   4255000   322.45483      2.1275         0.0072130234   0.0072365405   0.007226856   -71.309877      2341.3903      2341.3903      2341.3903      1.2835756e+10  0.054599987   -9513841.9     -9513841.9      960.21542     -9512881.7     -71.187006     -71.419102     -71.323523     -0.13060084     0.12923055     0.034722208    17534.259    
   4256000   322.44006      2.128          0.0072087834   0.0072315915   0.0072222478  -71.264488      2341.7646      2341.7646      2341.7646      1.2841913e+10  0.054573808   -9507583.3     -9507583.3      960.17143     -9506623.2     -71.14516      -71.370259     -71.278044     -0.13332506     0.12220712     0.031833158    17736.377    
   4257000   322.41663      2.1285         0.0072034892   0.0072264213   0.0072168065  -71.212162      2342.139       2342.139       2342.139       1.2848073e+10  0.054547646   -9501326.9     -9501326.9      960.10166     -9500366.8     -71.092911     -71.319233     -71.224342     -0.13549663     0.11569726     0.031622395    17503.138    
   4258000   322.40387      2.129          0.00719678     0.0072209371   0.007210461   -71.151174      2342.5133      2342.5133      2342.5133      1.2854234e+10  0.054521501   -9495073.6     -9495073.6      960.06367     -9494113.5     -71.026696     -71.265109     -71.161718     -0.13519627     0.11612163     0.037561807    17692.236    
   4259000   322.40563      2.1295         0.0071908545   0.0072149369   0.0072040628  -71.090893      2342.8876      2342.8876      2342.8876      1.2860397e+10  0.054495372   -9488824       -9488824        960.06891     -9487863.9     -70.968216     -71.205891     -71.098572     -0.13481303     0.12120295     0.045916078    17470.55     
   4260000   322.40878      2.13           0.0071862161   0.0072082104   0.0071980731  -71.033801      2343.2619      2343.2619      2343.2619      1.2866562e+10  0.054469261   -9482577.6     -9482577.6      960.07829     -9481617.5     -70.922438     -71.139506     -71.039459     -0.13328496     0.12433738     0.050854114    17593.804    
   4261000   322.40755      2.1305         0.0071817602   0.0072016121   0.0071927958  -70.980074      2343.6363      2343.6363      2343.6363      1.2872729e+10  0.054443165   -9476334.1     -9476334.1      960.07462     -9475374.1     -70.878462     -71.074385     -70.987375     -0.13101316     0.12261339     0.049458177    17607.208    
   4262000   322.40143      2.131          0.0071772179   0.0071959588   0.007188744   -70.933204      2344.0106      2344.0106      2344.0106      1.2878898e+10  0.054417087   -9470093.3     -9470093.3      960.05642     -9469133.3     -70.833633     -71.018592     -70.947387     -0.12600195     0.11963596     0.042056476    17530.787    
   4263000   322.39641      2.1315         0.0071727293   0.0071916954   0.0071854378  -70.893536      2344.3849      2344.3849      2344.3849      1.2885069e+10  0.054391025   -9463854.3     -9463854.3      960.04145     -9462894.3     -70.789334     -70.976515     -70.914757     -0.12113841     0.11690565     0.035561556    17618.502    
   4264000   322.40752      2.132          0.0071681001   0.0071884881   0.0071818103  -70.855822      2344.7592      2344.7592      2344.7592      1.2891242e+10  0.05436498    -9457616.6     -9457616.6      960.07453     -9456656.5     -70.743648     -70.944862     -70.878957     -0.12220764     0.1166644      0.033825085    17465.442    
   4265000   322.44304      2.1325         0.0071632914   0.0071855242   0.0071771952  -70.81507       2345.1336      2345.1336      2345.1336      1.2897417e+10  0.054338951   -9451380.4     -9451380.4      960.18031     -9450420.2     -70.69619      -70.915611     -70.833409     -0.12616857     0.11721621     0.032943956    17630.941    
   4266000   322.48834      2.133          0.007158982    0.0071813988   0.0071714883  -70.768547      2345.5079      2345.5079      2345.5079      1.2903594e+10  0.054312939   -9445146.1     -9445146.1      960.31521     -9444185.8     -70.653659     -70.874895     -70.777087     -0.12642104     0.12170711     0.032356511    17498.793    
   4267000   322.53119      2.1335         0.0071548013   0.0071760097   0.0071655693  -70.717593      2345.8822      2345.8822      2345.8822      1.2909773e+10  0.054286944   -9438914.5     -9438914.5      960.44282     -9437954.1     -70.612399     -70.821709     -70.718671     -0.12038616     0.12865695     0.034069401    17597.157    
   4268000   322.54909      2.134          0.007150518    0.0071705035   0.007160208   -70.667751      2346.2565      2346.2565      2346.2565      1.2915954e+10  0.054260965   -9432685.5     -9432685.5      960.49612     -9431725       -70.570126     -70.767367     -70.665759     -0.11367368     0.13489386     0.033865274    17678.248    
   4269000   322.54538      2.1345         0.0071447828   0.0071652274   0.0071553641  -70.615591      2346.6308      2346.6308      2346.6308      1.2922136e+10  0.054235003   -9426458.9     -9426458.9      960.48505     -9425498.4     -70.513524     -70.715297     -70.617953     -0.11195726     0.13759895     0.030490679    17573.519    
   4270000   322.5441       2.135          0.0071373198   0.0071600694   0.0071503037  -70.557424      2347.0052      2347.0052      2347.0052      1.2928321e+10  0.054209058   -9420235.3     -9420235.3      960.48125     -9419274.8     -70.439869     -70.66439      -70.568011     -0.11622334     0.13569671     0.028845171    17723.631    
   4271000   322.56845      2.1355         0.0071294389   0.0071543733   0.0071450969  -70.49563       2347.3795      2347.3795      2347.3795      1.2934508e+10  0.054183128   -9414015.3     -9414015.3      960.55377     -9413054.8     -70.362092     -70.608174     -70.516624     -0.12325275     0.13311474     0.028808897    17558.848    
   4272000   322.61079      2.136          0.0071234552   0.0071488454   0.0071402596  -70.441846      2347.7538      2347.7538      2347.7538      1.2940697e+10  0.054157216   -9407799       -9407799        960.67984     -9406838.3     -70.303037     -70.553618     -70.468884     -0.12845591     0.13449226     0.025758502    17714.744    
   4273000   322.65509      2.1365         0.0071197933   0.0071438229   0.007135018   -70.396033      2348.1281      2348.1281      2348.1281      1.2946888e+10  0.05413132    -9401585       -9401585        960.81177     -9400624.2     -70.266897     -70.50405      -70.417153     -0.12914193     0.13456306     0.018420243    17568.665    
   4274000   322.69639      2.137          0.00711648     0.007139007    0.0071295295  -70.351235      2348.5025      2348.5025      2348.5025      1.295308e+10   0.05410544    -9395373       -9395373        960.93476     -9394412.1     -70.234197     -70.456521     -70.362985     -0.12500495     0.13085683     0.015181945    17698.558    
   4275000   322.72341      2.1375         0.0071118016   0.0071340044   0.0071237413  -70.300345      2348.8768      2348.8768      2348.8768      1.2959275e+10  0.054079577   -9389163.3     -9389163.3      961.0152      -9388202.3     -70.188025     -70.40715      -70.305861     -0.12021678     0.12555498     0.017936659    17581.501    
   4276000   322.72867      2.138          0.0071058995   0.0071286375   0.0071176091  -70.243099      2349.2511      2349.2511      2349.2511      1.2965472e+10  0.054053731   -9382956.7     -9382956.7      961.03088     -9381995.7     -70.129776     -70.354182     -70.245341     -0.11442978     0.11965757     0.017858629    17585.342    
   4277000   322.71538      2.1385         0.0070999801   0.0071232251   0.007111495   -70.185707      2349.6254      2349.6254      2349.6254      1.297167e+10   0.054027901   -9376753.4     -9376753.4      960.99129     -9375792.4     -70.071355     -70.300766     -70.184999     -0.11158066     0.11506611     0.013789174    17717.226    
   4278000   322.69324      2.139          0.0070951808   0.0071178094   0.0071054467  -70.132204      2349.9997      2349.9997      2349.9997      1.2977871e+10  0.054002087   -9370553       -9370553        960.92536     -9369592.1     -70.02399      -70.247317     -70.125306     -0.11412033     0.10988591     0.0087255318   17452.144    
   4279000   322.6721       2.1395         0.0070909614   0.0071122199   0.007099789   -70.081323      2350.3741      2350.3741      2350.3741      1.2984073e+10  0.05397629    -9364355.3     -9364355.3      960.86241     -9363394.4     -69.982348     -70.192152     -70.06947      -0.11248112     0.10701294     0.0065338115   17704.747    
   4280000   322.65508      2.14           0.0070862172   0.0071063762   0.0070945069  -70.029115      2350.7484      2350.7484      2350.7484      1.2990278e+10  0.053950509   -9358160.1     -9358160.1      960.81172     -9357199.3     -69.935527     -70.13448      -70.017339     -0.10651504     0.10913148     0.0070785431   17588.515    
   4281000   322.64337      2.1405         0.0070799234   0.0071006934   0.0070892237  -69.972335      2351.1227      2351.1227      2351.1227      1.2996485e+10  0.053924745   -9351967.8     -9351967.8      960.77686     -9351007       -69.873412     -70.078396     -69.965198     -0.10250709     0.10824995     0.0075924506   17690.576    
   4282000   322.63633      2.141          0.0070725275   0.0070950672   0.0070841599  -69.912837      2351.497       2351.497       2351.497       1.3002693e+10  0.053898997   -9345778.9     -9345778.9      960.7559      -9344818.1     -69.800419     -70.022869     -69.915222     -0.10177618     0.10296369     0.011310413    17602.465    
   4283000   322.63234      2.1415         0.0070653052   0.0070891495   0.0070793786  -69.85388       2351.8714      2351.8714      2351.8714      1.3008904e+10  0.053873265   -9339593.4     -9339593.4      960.74401     -9338632.7     -69.729141     -69.964466     -69.868035     -0.10124274     0.098842875    0.016289898    17609.767    
   4284000   322.63104      2.142          0.0070590849   0.0070836653   0.0070748574  -69.800502      2352.2457      2352.2457      2352.2457      1.3015116e+10  0.05384755    -9333411.1     -9333411.1      960.74014     -9332450.4     -69.667752     -69.910341     -69.823414     -0.10053769     0.099019486    0.020993457    17665.044    
   4285000   322.61293      2.1425         0.0070543832   0.0070786887   0.0070704134  -69.754043      2352.62        2352.62        2352.62        1.302133e+10   0.053821851   -9327231.2     -9327231.2      960.68621     -9326270.6     -69.621349     -69.861226     -69.779555     -0.099477642    0.10078653     0.024586392    17538.942    
   4286000   322.58039      2.143          0.007050381    0.0070740296   0.0070652407  -69.708533      2352.9943      2352.9943      2352.9943      1.3027547e+10  0.053796169   -9321053.3     -9321053.3      960.58933     -9320092.7     -69.581851     -69.815244     -69.728505     -0.094210895    0.10547        0.026666896    17734.71     
   4287000   322.56138      2.1435         0.0070461525   0.0070692116   0.0070595184  -69.659947      2353.3687      2353.3687      2353.3687      1.3033765e+10  0.053770503   -9314877.6     -9314877.6      960.5327      -9313917.1     -69.540118     -69.767694     -69.67203      -0.087812762    0.1121614      0.028564997    17476.623    
   4288000   322.57952      2.144          0.007040878    0.0070638009   0.007053891   -69.606283      2353.743       2353.743       2353.743       1.3039986e+10  0.053744853   -9308704.6     -9308704.6      960.58672     -9307744       -69.488063     -69.714294     -69.616491     -0.085836347    0.12092923     0.026959863    17697.211    
   4289000   322.63138      2.1445         0.0070346802   0.0070590019   0.0070494071  -69.555356      2354.1173      2354.1173      2354.1173      1.3046208e+10  0.05371922    -9302534.7     -9302534.7      960.74115     -9301574       -69.426895     -69.666933     -69.572239     -0.085040154    0.12581879     0.019523376    17449.811    
   4290000   322.67986      2.145          0.0070283976   0.0070550454   0.0070457141  -69.509523      2354.4916      2354.4916      2354.4916      1.3052432e+10  0.053693602   -9296367.3     -9296367.3      960.88551     -9295406.4     -69.364891     -69.627885     -69.535792     -0.089174519    0.12498737     0.0090564282   17607.256    
   4291000   322.7167       2.1455         0.0070224053   0.0070506326   0.007041335   -69.460886      2354.8659      2354.8659      2354.8659      1.3058659e+10  0.053668002   -9290202       -9290202        960.99521     -9289241       -69.305752     -69.584334     -69.492574     -0.097467205    0.12249522     0.0026601939   17710.029    
   4292000   322.75479      2.146          0.007017158    0.0070451491   0.0070361587  -69.408556      2355.2403      2355.2403      2355.2403      1.3064887e+10  0.053642417   -9284039.6     -9284039.6      961.10865     -9283078.5     -69.253965     -69.530216     -69.441488     -0.10209491     0.12052617     0.0033614905   17606.168    
   4293000   322.78236      2.1465         0.0070126869   0.0070392423   0.0070306931  -69.356435      2355.6146      2355.6146      2355.6146      1.3071117e+10  0.053616849   -9277880       -9277880        961.19074     -9276918.8     -69.209839     -69.47192      -69.387546     -0.10340182     0.1195439      0.0075012783   17730.465    
   4294000   322.79764      2.147          0.0070076482   0.0070336385   0.0070247442  -69.301854      2355.9889      2355.9889      2355.9889      1.3077349e+10  0.053591296   -9271723.2     -9271723.2      961.23625     -9270762       -69.160111     -69.416615     -69.328835     -0.10616829     0.12101566     0.008448883    17473.987    
   4295000   322.81838      2.1475         0.0070015344   0.0070282224   0.0070187368  -69.24416       2356.3632      2356.3632      2356.3632      1.3083584e+10  0.053565761   -9265569.7     -9265569.7      961.29802     -9264608.4     -69.099772     -69.363162     -69.269547     -0.10737129     0.12291259     0.0048245633   17694.882    
   4296000   322.83793      2.148          0.0069957402   0.0070227339   0.0070127997  -69.187511      2356.7376      2356.7376      2356.7376      1.308982e+10   0.053540241   -9259419.5     -9259419.5      961.35623     -9258458.1     -69.042587     -69.308994     -69.210952     -0.10306185     0.12238014    -0.0015108137   17442.538    
   4297000   322.8576       2.1485         0.0069912989   0.0070172551   0.0070071914  -69.136427      2357.1119      2357.1119      2357.1119      1.3096058e+10  0.053514737   -9253272.5     -9253272.5      961.41479     -9252311.1     -68.998756     -69.254923     -69.155602     -0.096866997    0.12277985    -0.0054022384   17630.481    
   4298000   322.87158      2.149          0.0069873042   0.0070124127   0.0070023628  -69.09147       2357.4862      2357.4862      2357.4862      1.3102298e+10  0.05348925    -9247127.8     -9247127.8      961.45642     -9246166.3     -68.959331     -69.207133     -69.107947     -0.094535014    0.12431426    -0.0033476355   17644.223    
   4299000   322.87284      2.1495         0.0069821927   0.0070077633   0.0069974397  -69.043164      2357.8605      2357.8605      2357.8605      1.310854e+10   0.053463779   -9240985       -9240985        961.46017     -9240023.6     -68.908884     -69.161247     -69.059361     -0.096820542    0.12639641    -0.0023269189   17555.062    
   4300000   322.86611      2.15           0.0069762438   0.0070024604   0.0069918139  -68.987641      2358.2349      2358.2349      2358.2349      1.3114785e+10  0.053438324   -9234845.2     -9234845.2      961.44014     -9233883.7     -68.850173     -69.108911     -69.003838     -0.096173458    0.12526793    -0.0042254781   17037.613    
   4301000   322.85806      2.1505         0.0069709175   0.0069965575   0.0069865192  -68.933281      2358.6092      2358.6092      2358.6092      1.3121031e+10  0.053412886   -9228708.6     -9228708.6      961.41618     -9227747.2     -68.797607     -69.050654     -68.951584     -0.094437077    0.12313191    -0.0094290266   17558.64     
   4302000   322.85366      2.151          0.0069670628   0.0069907126   0.0069818991  -68.886173      2358.9835      2358.9835      2358.9835      1.3127279e+10  0.053387463   -9222574.8     -9222574.8      961.40307     -9221613.4     -68.759564     -68.992969     -68.905987     -0.094666308    0.1262667     -0.013288208    17739.433    
   4303000   322.8532       2.1515         0.0069637864   0.0069856843   0.0069773906  -68.844021      2359.3578      2359.3578      2359.3578      1.3133529e+10  0.053362056   -9216442.9     -9216442.9      961.40171     -9215481.5     -68.727228     -68.943343     -68.861491     -0.092723505    0.12981624    -0.01044109     17580.874    
   4304000   322.84753      2.152          0.0069596395   0.0069811432   0.006972647   -68.799834      2359.7321      2359.7321      2359.7321      1.3139781e+10  0.053336666   -9210312.8     -9210312.8      961.38482     -9209351.4     -68.686302     -68.898526     -68.814675     -0.09075472     0.12700795    -0.0032409582   17640.054    
   4305000   322.83418      2.1525         0.0069545547   0.0069767363   0.0069675356  -68.751794      2360.1065      2360.1065      2360.1065      1.3146035e+10  0.053311292   -9204185.1     -9204185.1      961.34505     -9203223.7     -68.636119     -68.855033     -68.76423      -0.091100774    0.12427757     0.00090459399  17624.615    
   4306000   322.80885      2.153          0.0069494338   0.0069725037   0.0069625566  -68.704644      2360.4808      2360.4808      2360.4808      1.3152291e+10  0.053285934   -9198059.7     -9198059.7      961.26962     -9197098.4     -68.585579     -68.813261     -68.715091     -0.093948545    0.12494155     6.0101126e-05  17550.051    
   4307000   322.78204      2.1535         0.0069442926   0.0069683904   0.0069576925  -68.658197      2360.8551      2360.8551      2360.8551      1.3158549e+10  0.053260592   -9191936.5     -9191936.5      961.18981     -9190975.3     -68.53484      -68.772667     -68.667086     -0.0963109      0.12874068    -0.0028600225   17725.98     
   4308000   322.77554      2.154          0.0069389821   0.0069640819   0.0069525396  -68.609601      2361.2294      2361.2294      2361.2294      1.3164809e+10  0.053235266   -9185815.6     -9185815.6      961.17045     -9184854.4     -68.482429     -68.730144     -68.616231     -0.096161865    0.13056767    -0.0050937492   17539.473    
ERROR on proc 0: Pair distance > table outer cutoff: ijtype 2 2 dist 473.90004445583503 (src/pair_table_pgn.cpp:138)
Last command: run				${steps_tensile}
