LAMMPS (23 Jun 2022 - Update 1)
OMP_NUM_THREADS environment is not set. Defaulting to 1 thread. (src/comm.cpp:98)
  using 1 OpenMP thread(s) per MPI task
###

# Read restart info
read_restart ${read_res}
read_restart ./trial6/4060/equpmf71.res
Reading restart file ...
  restart file = 23 Jun 2022, LAMMPS = 23 Jun 2022
  restoring atom style atomic from restart
  orthogonal box = (1662.1447 1662.1447 1662.1447) to (2337.8553 2337.8553 2337.8553)
  1 by 2 by 2 MPI processor grid
  restoring pair style table from restart
  1000 atoms
  read_restart CPU = 0.040 seconds

# Settings
pair_style table/pgn spline 10941
pair_coeff 1 1 N20e.txt DE_GNP 308 72.9   # 1.35 * r
pair_coeff 2 2 N100e.txt DE_GNP 473.9 111.78
WARNING: 20 of 10941 force values in table DE_GNP are inconsistent with -dE/dr.
WARNING:  Should only be flagged at inflection points (src/pair_table_pgn.cpp:478)
pair_coeff 1 2 mixed_potentiale.txt DE_GNP 391.2 92.95
WARNING: 1564 of 10941 force values in table DE_GNP are inconsistent with -dE/dr.
WARNING:  Should only be flagged at inflection points (src/pair_table_pgn.cpp:478)

# Neighbor list
neighbor 2.0 bin
neigh_modify delay 0 every 1 check no once yes

# Temperature
variable T equal ${Temp}
variable T equal 300

# Deformation
reset_timestep 0
variable tmp equal "lx"
variable L0 equal ${tmp}
variable L0 equal 675.710668194282
variable strain equal "(lx - v_L0)/v_L0"
variable stp equal "step"
variable tmpe equal "temp"
variable p1 equal "v_strain"
variable p2 equal "-pxx*1.01325/10000"
variable p3 equal "-pyy*1.01325/10000"
variable p4 equal "-pzz*1.01325/10000"
variable p5 equal "lx"
variable p6 equal "ly"
variable p7 equal "lz"
variable p8 equal "press"
variable p9 equal "epair"
variable p10 equal "etotal"

# Thermo
thermo_style custom step temp v_p1 v_p2 v_p3 v_p4 press lx ly lz vol density epair pe ke etotal pxx pyy pzz pxy pxz pyz spcpu
thermo ${ts_save}
thermo 1000

# Dump
# dump 1 all custom 2000 ./${N20}${N100}/tensile/trajectory/trajectory_${usic}_${trial}_*.tensile.custom id type x y z ix iy iz
# dump_modify 1 sort id
dump 2 all cfg 50000 ./trial${trial}/${N20}${N100}/tensile/trajectory/dumpten.tens_${usic}_${trial}_*.cfg mass type xs ys zs fx fy fz
dump 2 all cfg 50000 ./trial6/${N20}${N100}/tensile/trajectory/dumpten.tens_${usic}_${trial}_*.cfg mass type xs ys zs fx fy fz
dump 2 all cfg 50000 ./trial6/40${N100}/tensile/trajectory/dumpten.tens_${usic}_${trial}_*.cfg mass type xs ys zs fx fy fz
dump 2 all cfg 50000 ./trial6/4060/tensile/trajectory/dumpten.tens_${usic}_${trial}_*.cfg mass type xs ys zs fx fy fz
dump 2 all cfg 50000 ./trial6/4060/tensile/trajectory/dumpten.tens_1_${trial}_*.cfg mass type xs ys zs fx fy fz
dump 2 all cfg 50000 ./trial6/4060/tensile/trajectory/dumpten.tens_1_6_*.cfg mass type xs ys zs fx fy fz
dump_modify 2 element N20 N100

fix 1 all nvt temp ${T} ${T} 100
fix 1 all nvt temp 300 ${T} 100
fix 1 all nvt temp 300 300 100
fix 2 all deform 1 x erate ${strain_rate} y erate ${strain_rate} z erate ${strain_rate} units box
fix 2 all deform 1 x erate 5e-6 y erate ${strain_rate} z erate ${strain_rate} units box
fix 2 all deform 1 x erate 5e-6 y erate 5e-6 z erate ${strain_rate} units box
fix 2 all deform 1 x erate 5e-6 y erate 5e-6 z erate 5e-6 units box
fix             def1 all print ${ts_save} "${p1} ${p2} ${p3} ${p4}" file ./tensile/${trial}/tensile${N20}${N100}_${usic}_${trial}.txt screen no
fix             def1 all print 1000 "${p1} ${p2} ${p3} ${p4}" file ./tensile/${trial}/tensile${N20}${N100}_${usic}_${trial}.txt screen no
fix             def1 all print 1000 "${p1} ${p2} ${p3} ${p4}" file ./tensile/6/tensile${N20}${N100}_${usic}_${trial}.txt screen no
fix             def1 all print 1000 "${p1} ${p2} ${p3} ${p4}" file ./tensile/6/tensile40${N100}_${usic}_${trial}.txt screen no
fix             def1 all print 1000 "${p1} ${p2} ${p3} ${p4}" file ./tensile/6/tensile4060_${usic}_${trial}.txt screen no
fix             def1 all print 1000 "${p1} ${p2} ${p3} ${p4}" file ./tensile/6/tensile4060_1_${trial}.txt screen no
fix             def1 all print 1000 "${p1} ${p2} ${p3} ${p4}" file ./tensile/6/tensile4060_1_6.txt screen no

timestep       		${ts}
timestep       		0.1
run				${steps_tensile}
run				6000000
Generated 0 of 1 mixed pair_coeff terms from geometric mixing rule
Unused restart file global fix info:
  fix style: npt, fix ID: 5
Neighbor list info ...
  update every 1 steps, delay 0 steps, check no
  max neighbors/atom: 2000, page size: 100000
  master list distance cutoff = 113.78
  ghost atom cutoff = 113.78
  binsize = 56.89, bins = 12 12 12
  1 neighbor lists, perpetual/occasional/extra = 1 0 0
  (1) pair table/pgn, perpetual
      attributes: half, newton on
      pair build: half/bin/atomonly/newton
      stencil: half/bin/3d
      bin: standard
Per MPI rank memory allocation (min/avg/max) = 3.849 | 3.85 | 3.851 Mbytes
   Step          Temp           v_p1           v_p2           v_p3           v_p4          Press            Lx             Ly             Lz           Volume        Density         E_pair         PotEng         KinEng         TotEng          Pxx            Pyy            Pzz            Pxy            Pxz            Pyz           S/CPU     
         0   303.2686      -5.0474342e-16  0.014653442   -0.0045502279   0.012457896   -74.220281      675.71067      675.71067      675.71067      3.0851929e+08  1.8405856     -35892402      -35892402       903.08211     -35891499      -144.61823      44.907258     -122.94987     -14.150705      14.998905      33.020078      0            
      1000   330.07703      0.0005         0.023827648    0.0051817869   0.021738958   -166.94923      676.04852      676.04852      676.04852      3.089823e+08   1.8378274     -35891693      -35891693       982.91304     -35890710      -235.16061     -51.140261     -214.54684     -13.090412      14.468115      32.154563      13621.518    
      2000   389.79518      0.001          0.03229298     0.014087013    0.030162168   -251.80413      676.38638      676.38638      676.38638      3.0944578e+08  1.8350748     -35890576      -35890576       1160.7435     -35889415      -318.70693     -139.02801     -297.67745     -12.700404      13.637852      30.816908      14056.822    
      3000   450.15051      0.0015         0.040199388    0.022387791    0.037971587   -330.81262      676.72423      676.72423      676.72423      3.0990971e+08  1.8323277     -35889064      -35889064       1340.4713     -35887724      -396.73712     -220.95032     -374.75042     -13.535572      13.155528      29.232963      14152.56     
      4000   488.9957       0.002          0.047896162    0.030430312    0.045583116   -407.63086      677.06209      677.06209      677.06209      3.1037411e+08  1.8295861     -35887123      -35887123       1456.1457     -35885667      -472.69837     -300.32383     -449.87038     -14.357238      12.755266      28.425395      14119.348    
      5000   504.1214       0.0025         0.055625328    0.038383811    0.05335295    -484.78358      677.39994      677.39994      677.39994      3.1083898e+08  1.8268499     -35884702      -35884702       1501.1874     -35883201      -548.97931     -378.81876     -526.55267     -14.104421      11.342948      28.262677      14021.68     
      6000   502.60628      0.003          0.063429434    0.046523511    0.061416091   -563.7603       677.7378       677.7378       677.7378       3.113043e+08   1.8241192     -35881761      -35881761       1496.6757     -35880264      -625.99984     -459.15136     -606.12969     -13.362297      9.5006773      27.939709      14077.848    
      7000   491.82286      0.0035         0.07133513     0.054843625    0.069373189   -643.31588      678.07566      678.07566      678.07566      3.117701e+08   1.8213939     -35878274      -35878274       1464.5645     -35876809      -704.023       -541.2645      -684.66014     -12.777156      8.7669422      27.231495      14241.834    
      8000   477.17151      0.004          0.079094985    0.062954421    0.076941215   -720.42313      678.41351      678.41351      678.41351      3.1223635e+08  1.8186741     -35874249      -35874249       1420.9353     -35872828      -780.60681     -621.31183     -759.35075     -12.240299      9.0503852      26.004772      14002.452    
      9000   461.88104      0.0045         0.086603253    0.0707475      0.084341367   -795.10526      678.75137      678.75137      678.75137      3.1270307e+08  1.8159596     -35869692      -35869692       1375.4029     -35868316      -854.70766     -698.22354     -832.38457     -12.197797      8.8741665      25.084489      14045.953    
     10000   447.33404      0.005          0.093979189    0.078247162    0.091670409   -868.15284      679.08922      679.08922      679.08922      3.1317026e+08  1.8132506     -35864599      -35864599       1332.0844     -35863267      -927.50248     -772.23945     -904.71659     -13.121635      8.056817       24.344444      14193.312    
     11000   434.55846      0.0055         0.10104925     0.085516343    0.098819874   -938.84518      679.42708      679.42708      679.42708      3.1363791e+08  1.8105469     -35858986      -35858986       1294.0409     -35857692      -997.27852     -843.98069     -975.27633     -14.052602      7.3526562      22.793082      14043.481    
     12000   424.0577       0.006          0.10788785     0.092805654    0.10589684    -1008.6038      679.76493      679.76493      679.76493      3.1410603e+08  1.8078486     -35852870      -35852870       1262.7714     -35851607      -1064.7703     -915.92059     -1045.1205     -14.67714       6.2005752      21.157254      13901.271    
     13000   415.24629      0.0065         0.11478785     0.10015396     0.11287263    -1078.4257      680.10279      680.10279      680.10279      3.1457461e+08  1.8051557     -35846253      -35846253       1236.5325     -35845016      -1132.868      -988.44273     -1113.9663     -13.772047      4.6414545      20.457257      14041.419    
     14000   407.86171      0.007          0.12151138     0.10721675     0.11952167    -1145.6528      680.44064      680.44064      680.44064      3.1504366e+08  1.8024681     -35839143      -35839143       1214.5425     -35837928      -1199.224      -1058.1471     -1179.5871     -12.805973      3.2776299      20.389452      14220.53     
     15000   402.18417      0.0075         0.12801936     0.11397793     0.1259619     -1210.4916      680.7785       680.7785       680.7785       3.1551317e+08  1.7997859     -35831562      -35831562       1197.6358     -35830364      -1263.4528     -1124.8748     -1243.1473     -13.383413      2.3008046      19.825925      14118.316    
     16000   397.75002      0.008          0.13454234     0.1206499      0.13240494    -1275.0956      681.11635      681.11635      681.11635      3.1598315e+08  1.797109      -35823532      -35823532       1184.4316     -35822347      -1327.8297     -1190.7219     -1306.7351     -13.937108      2.3058592      18.505686      14091.702    
     17000   394.04468      0.0085         0.14098458     0.12729962     0.13874752    -1339.0302      681.45421      681.45421      681.45421      3.164536e+08   1.7944374     -35815046      -35815046       1173.3978     -35813872      -1391.4096     -1256.3495     -1369.3315     -13.275068      3.2886603      17.203573      14195.853    
     18000   391.02124      0.009          0.14716807     0.13392635     0.14490777    -1401.4382      681.79206      681.79206      681.79206      3.1692451e+08  1.791771      -35806105      -35806105       1164.3945     -35804941      -1452.4359     -1321.7503     -1430.1285     -12.356786      4.0130504      17.110627      14116.317    
     19000   388.8803       0.0095         0.15308898     0.14022878     0.15088284    -1461.3064      682.12992      682.12992      682.12992      3.1739589e+08  1.78911       -35796737      -35796737       1158.0191     -35795579      -1510.8708     -1383.9505     -1489.0979     -12.219413      3.8908934      17.956179      14100.346    
     20000   387.45853      0.01           0.15889082     0.14616465     0.15673619    -1519.1765      682.46777      682.46777      682.46777      3.1786774e+08  1.7864542     -35786957      -35786957       1153.7853     -35785803      -1568.1305     -1442.5329     -1546.866      -12.917304      2.2477355      18.142518      14211.271    
     21000   386.38199      0.0105         0.16473943     0.15216294     0.16245215    -1576.9538      682.80563      682.80563      682.80563      3.1834005e+08  1.7838037     -35776765      -35776765       1150.5796     -35775614      -1625.8518     -1501.7315     -1603.2781     -13.937956     -0.020803688    16.813757      14109.632    
     22000   385.57275      0.011          0.17052738     0.15816872     0.16800254    -1634.0115      683.14349      683.14349      683.14349      3.1881283e+08  1.7811584     -35766159      -35766159       1148.1698     -35765011      -1682.9744     -1561.0039     -1658.0561     -14.949433     -1.26272        15.472501      14057.691    
     23000   385.38534      0.0115         0.17590632     0.16386943     0.17329958    -1687.8866      683.48134      683.48134      683.48134      3.1928608e+08  1.7785183     -35755164      -35755164       1147.6117     -35754016      -1736.0604     -1617.2655     -1710.3338     -14.736699     -1.0887061      15.298872      14136.358    
     24000   385.84924      0.012          0.18093711     0.16937494     0.1784296     -1739.4248      683.8192       683.8192       683.8192       3.197598e+08   1.7758835     -35743798      -35743798       1148.9931     -35742649      -1785.7104     -1671.6007     -1760.9633     -13.906298      0.39057484     14.943408      14258.402    
     25000   386.51475      0.0125         0.1859186      0.17479006     0.18359835    -1790.6308      684.15705      684.15705      684.15705      3.2023399e+08  1.7732539     -35732067      -35732067       1150.9749     -35730916      -1834.874      -1725.0438     -1811.9748     -12.937208      1.0714983      14.003904      13995.072    
     26000   387.21523      0.013          0.19084515     0.18006904     0.18872119    -1841.0572      684.49491      684.49491      684.49491      3.2070864e+08  1.7706294     -35719974      -35719974       1153.0608     -35718821      -1883.4951     -1777.1432     -1862.5333     -11.960115     -0.0023005669   13.734719      14089.953    
     27000   388.04363      0.0135         0.19579878     0.18532071     0.19362497    -1890.7623      684.83276      684.83276      684.83276      3.2118377e+08  1.7680101     -35707523      -35707523       1155.5277     -35706368      -1932.3838     -1828.9732     -1910.9299     -11.693667     -1.8154558      14.289778      14295.866    
     28000   388.92205      0.014          0.20070529     0.19042316     0.19832378    -1939.1471      685.17062      685.17062      685.17062      3.2165936e+08  1.765396      -35694732      -35694732       1158.1434     -35693574      -1980.8072     -1879.3305     -1957.3035     -12.159578     -2.7459364      14.164204      14082.23     
     29000   390.15775      0.0145         0.20544127     0.19512557     0.20284404    -1985.0674      685.50847      685.50847      685.50847      3.2213542e+08  1.7627871     -35681608      -35681608       1161.8231     -35680447      -2027.5477     -1925.7396     -2001.915      -12.952092     -2.759908       12.443397      14149.025    
     30000   391.79307      0.015          0.21004201     0.19971751     0.20729961    -2029.9667      685.84633      685.84633      685.84633      3.2261195e+08  1.7601833     -35668156      -35668156       1166.6929     -35666989      -2072.9534     -1971.0586     -2045.888      -13.412493     -2.9509671      10.672148      14105.081    
     31000   393.51282      0.0155         0.21455081     0.20446913     0.21185629    -2075.4215      686.18418      686.18418      686.18418      3.2308895e+08  1.7575846     -35654376      -35654376       1171.814      -35653204      -2117.4519     -2017.9535     -2090.859      -12.526447     -3.2913003      9.9353122      14197.25     
     32000   395.29704      0.016          0.21892357     0.20919728     0.21634637    -2120.1323      686.52204      686.52204      686.52204      3.2356643e+08  1.754991      -35640275      -35640275       1177.1271     -35639098      -2160.6077     -2064.6166     -2135.1727     -11.012636     -3.0723258      10.288574      14117.241    
     33000   397.42231      0.0165         0.22310883     0.21374633     0.22050004    -2162.5305      686.85989      686.85989      686.85989      3.2404437e+08  1.7524025     -35625874      -35625874       1183.4558     -35624690      -2201.913      -2109.5123     -2176.1662     -10.486404     -3.0123408      11.124985      13975.684    
     34000   399.65942      0.017          0.22704522     0.21816215     0.22433619    -2202.6271      687.19775      687.19775      687.19775      3.2452278e+08  1.7498191     -35611185      -35611185       1190.1175     -35609995      -2240.7621     -2153.0931     -2214.026      -11.071803     -3.8770363      10.765641      14119.176    
     35000   401.82277      0.0175         0.23081506     0.22241003     0.22801722    -2241.1129      687.5356       687.5356       687.5356       3.2500166e+08  1.7472408     -35596211      -35596211       1196.5596     -35595015      -2277.9676     -2195.0163     -2250.355      -11.95132      -4.738669       9.8955051      14068.749    
     36000   403.87896      0.018          0.23463641     0.22643997     0.23167131    -2278.9627      687.87346      687.87346      687.87346      3.2548101e+08  1.7446675     -35580962      -35580962       1202.6826     -35579759      -2315.6814     -2234.7888     -2286.4181     -12.492527     -5.2457053      9.3276796      13987.673    
     37000   405.39407      0.0185         0.2385826      0.23036539     0.23546662    -2317.3439      688.21132      688.21132      688.21132      3.2596084e+08  1.7420993     -35565434      -35565434       1207.1943     -35564227      -2354.6272     -2273.5296     -2323.8748     -11.998724     -5.6107901      8.9979621      14184.112    
     38000   406.30702      0.019          0.24229471     0.23412614     0.23917772    -2354.1362      688.54917      688.54917      688.54917      3.2644113e+08  1.7395362     -35549630      -35549630       1209.9129     -35548420      -2391.2628     -2310.6453     -2360.5006     -11.848483     -5.7512127      8.4102252      14108.564    
     39000   407.53526      0.0195         0.24565205     0.23770508     0.2426192     -2388.2764      688.88703      688.88703      688.88703      3.269219e+08   1.736978      -35533570      -35533570       1213.5704     -35532356      -2424.3972     -2345.9668     -2394.4653     -11.625932     -5.4405184      7.8736327      14043.094    
     40000   409.57466      0.02           0.24898003     0.24127148     0.24595381    -2421.9272      689.22488      689.22488      689.22488      3.2740314e+08  1.7344249     -35517261      -35517261       1219.6434     -35516042      -2457.2418     -2381.1644     -2427.3754     -10.360667     -5.9963429      7.9044602      14095.743    
     41000   411.92539      0.0205         0.25222092     0.24487491     0.24928901    -2455.4152      689.56274      689.56274      689.56274      3.2788485e+08  1.7318768     -35500709      -35500709       1226.6435     -35499483      -2489.227      -2416.7275     -2460.2912     -9.7844341     -6.8941664      8.1459793      14208.124    
     42000   414.12606      0.021          0.25532038     0.24833914     0.25260027    -2487.9013      689.90059      689.90059      689.90059      3.2836704e+08  1.7293336     -35483920      -35483920       1233.1967     -35482687      -2519.8163     -2450.9168     -2492.9709     -11.507388     -7.0329775      8.1650559      14072.577    
     43000   416.21688      0.0215         0.25829298     0.25166775     0.25580157    -2519.1621      690.23845      690.23845      690.23845      3.2884969e+08  1.7267955     -35466903      -35466903       1239.4228     -35465664      -2549.1536     -2483.7676     -2524.5652     -13.482138     -7.2426465      7.3183211      14110.977    
     44000   418.15563      0.022          0.26126622     0.25493637     0.25881906    -2549.623       690.5763       690.5763       690.5763       3.2933282e+08  1.7242623     -35449664      -35449664       1245.1961     -35448419      -2578.4971     -2516.0264     -2554.3456     -13.240271     -7.7654711      5.6324798      14183.596    
     45000   419.73497      0.0225         0.26431953     0.25810877     0.26169889    -2579.5779      690.91416      690.91416      690.91416      3.2981642e+08  1.721734      -35432202      -35432202       1249.8991     -35430952      -2608.631      -2547.3355     -2582.7672     -11.250277     -8.1435003      4.6765053      14098.796    
     46000   421.05091      0.023          0.26729068     0.26114731     0.26455243    -2608.7356      691.25201      691.25201      691.25201      3.303005e+08   1.7192107     -35414518      -35414518       1253.8177     -35413264      -2637.9539     -2577.3235     -2610.9295     -9.4913654     -8.402832       4.4828328      14161.548    
     47000   422.39606      0.0235         0.27007526     0.26400361     0.2672975     -2636.3233      691.58987      691.58987      691.58987      3.3078505e+08  1.7166923     -35396624      -35396624       1257.8233     -35395366      -2665.4355     -2605.5131     -2638.0213     -8.7411519     -9.1780519      5.0565833      14066.279    
     48000   424.13928      0.024          0.27251041     0.26671311     0.26969157    -2661.1238      691.92772      691.92772      691.92772      3.3127007e+08  1.7141789     -35378533      -35378533       1263.0144     -35377270      -2689.4687     -2632.2538     -2661.6488     -9.1956418     -10.164365      5.5273053      14232.564    
     49000   426.21129      0.0245         0.2746246      0.26930407     0.27197624    -2684.1184      692.26558      692.26558      692.26558      3.3175556e+08  1.7116703     -35360258      -35360258       1269.1844     -35358989      -2710.3341     -2657.8245     -2684.1968     -10.131874     -9.9949139      5.0704188      14146.877    
     50000   427.86765      0.025          0.27685788     0.27178683     0.27441255    -2707.6479      692.60343      692.60343      692.60343      3.3224153e+08  1.7091667     -35341807      -35341807       1274.1168     -35340532      -2732.3748     -2682.3275     -2708.2413     -10.387509     -9.0370315      4.6454412      13528.639    
     51000   428.82268      0.0255         0.2793496      0.27426831     0.27688826    -2732.1529      692.94129      692.94129      692.94129      3.3272798e+08  1.7066679     -35323175      -35323175       1276.9607     -35321898      -2756.9662     -2706.8178     -2732.6746     -9.9839236     -8.9451912      4.2472011      14264.61     
     52000   429.46779      0.026          0.28177539     0.27678537     0.27925946    -2756.2142      693.27915      693.27915      693.27915      3.332149e+08   1.704174      -35304359      -35304359       1278.8817     -35303080      -2780.9069     -2731.6592     -2756.0766     -9.1301348     -8.7617473      3.9339434      14137.591    
     53000   430.58176      0.0265         0.28391208     0.27918986     0.2814983     -2778.5187      693.617        693.617        693.617        3.3370229e+08  1.7016849     -35285367      -35285367       1282.199      -35284085      -2801.9943     -2755.3897     -2778.1722     -8.1233581     -8.7567492      3.8686651      13783.623    
     54000   431.98167      0.027          0.28600852     0.28140409     0.28356858    -2799.5105      693.95486      693.95486      693.95486      3.3419016e+08  1.6992007     -35266215      -35266215       1286.3676     -35264929      -2822.6846     -2777.2425     -2798.6043     -6.7369035     -10.474468      3.3065187      14205.304    
     55000   433.32099      0.0275         0.28804947     0.28350995     0.28539662    -2819.1662      694.29271      694.29271      694.29271      3.346785e+08   1.6967213     -35246902      -35246902       1290.3559     -35245612      -2842.8272     -2798.0256     -2816.6456     -5.5936852     -12.111435      3.1376438      14159.669    
     56000   434.49828      0.028          0.28992063     0.28551975     0.28719267    -2837.8421      694.63057      694.63057      694.63057      3.3516732e+08  1.6942468     -35227433      -35227433       1293.8617     -35226139      -2861.2942     -2817.8609     -2834.3713     -6.1796336     -12.390851      3.7480716      14102.053    
     57000   435.50138      0.0285         0.29165799     0.28741647     0.2890153     -2855.7933      694.96842      694.96842      694.96842      3.3565662e+08  1.691777      -35207819      -35207819       1296.8487     -35206522      -2878.4406     -2836.58       -2852.3593     -7.6650725     -12.310888      4.108441       14178.594    
     58000   436.58118      0.029          0.2932233      0.28917737     0.29067239    -2872.187       695.30628      695.30628      695.30628      3.3614639e+08  1.6893121     -35188073      -35188073       1300.0642     -35186773      -2893.889      -2853.9587     -2868.7134     -8.4820343     -11.881674      4.0587252      14128.413    
     59000   437.98761      0.0295         0.2945385      0.29078648     0.29220651    -2886.8542      695.64413      695.64413      695.64413      3.3663664e+08  1.6868519     -35168208      -35168208       1304.2523     -35166904      -2906.869      -2869.8394     -2883.854      -8.0686518     -11.695576      4.1992525      14132.388    
     60000   439.06182      0.03           0.29597445     0.29247208     0.29380305    -2902.3755      695.98199      695.98199      695.98199      3.3712736e+08  1.6843965     -35148220      -35148220       1307.4511     -35146913      -2921.0407     -2886.475      -2899.6107     -6.8454227     -12.085159      4.0978734      14164.008    
     61000   439.40283      0.0305         0.29753223     0.29423999     0.29523966    -2918.0422      696.31984      696.31984      696.31984      3.3761856e+08  1.6819459     -35128102      -35128102       1308.4666     -35126794      -2936.4148     -2903.9229     -2913.7889     -5.5263157     -12.178928      2.7811236      14123.831    
     62000   439.79762      0.031          0.29891852     0.29574108     0.29638345    -2931.3037      696.6577       696.6577       696.6577       3.3811024e+08  1.6795        -35107862      -35107862       1309.6422     -35106553      -2950.0964     -2918.7375     -2925.0772     -4.4153887     -12.696367      1.3193994      14136.996    
     63000   440.67792      0.0315         0.30010461     0.2969957      0.29761264    -2943.3767      696.99555      696.99555      696.99555      3.3860239e+08  1.6770589     -35087517      -35087517       1312.2636     -35086204      -2961.8022     -2931.1196     -2937.2084     -3.5059175     -13.275683      1.4420705      14105.559    
     64000   441.12537      0.032          0.3012829      0.29823392     0.29907755    -2956.1456      697.33341      697.33341      697.33341      3.3909503e+08  1.6746225     -35067060      -35067060       1313.596      -35065746      -2973.4311     -2943.3399     -2951.6659     -3.286119      -12.184224      2.7059736      14139.566    
     65000   440.92805      0.0325         0.3024905      0.29932454     0.30026196    -2967.6026      697.67126      697.67126      697.67126      3.3958814e+08  1.6721908     -35046497      -35046497       1313.0084     -35045184      -2985.3491     -2954.1035     -2963.3551     -4.9121501     -12.063848      3.9083217      14263.504    
     66000   441.13136      0.033          0.30354641     0.30013672     0.30096945    -2976.0756      698.00912      698.00912      698.00912      3.4008172e+08  1.6697638     -35025855      -35025855       1313.6139     -35024542      -2995.7701     -2962.1191     -2970.3375     -6.6894107     -13.366316      4.4514793      14086.046    
     67000   441.99168      0.0335         0.30438251     0.30108874     0.30170858    -2984.3896      698.34698      698.34698      698.34698      3.4057579e+08  1.6673415     -35005141      -35005141       1316.1758     -35003825      -3004.0218     -2971.5149     -2977.6322     -6.223504      -13.410779      4.4914504      14046.541    
     68000   442.79919      0.034          0.30514273     0.30228837     0.30264339    -2993.9123      698.68483      698.68483      698.68483      3.4107033e+08  1.6649239     -34984344      -34984344       1318.5804     -34983025      -3011.5246     -2983.3543     -2986.858      -4.8394511     -12.665087      4.2311639      14073.619    
     69000   443.34101      0.0345         0.30596336     0.30336679     0.30346762    -3002.8712      699.02269      699.02269      699.02269      3.4156535e+08  1.662511      -34963458      -34963458       1320.1938     -34962138      -3019.6235     -2993.9974     -2994.9925     -4.5644012     -12.578029      3.3829249      13993.757    
     70000   443.62203      0.035          0.30675532     0.30414995     0.30409632    -3010.1212      699.36054      699.36054      699.36054      3.4206085e+08  1.6601027     -34942491      -34942491       1321.0307     -34941170      -3027.4397     -3001.7267     -3001.1973     -4.716107      -12.6424        1.9169429      14104.297    
     71000   443.83853      0.0355         0.3073864      0.30480633     0.30454817    -3015.8431      699.6984       699.6984       699.6984       3.4255683e+08  1.6576991     -34921464      -34921464       1321.6753     -34920143      -3033.6679     -3008.2046     -3005.6568     -4.1201644     -12.259368      0.58522556     14219.719    
     72000   444.13162      0.036          0.30789162     0.30539797     0.305085      -3021.2175      700.03625      700.03625      700.03625      3.4305329e+08  1.6553001     -34900387      -34900387       1322.5481     -34899065      -3038.654      -3014.0437     -3010.9549     -3.1467516     -12.538591      1.14474        14108.618    
     73000   444.35594      0.0365         0.30819308     0.30584638     0.30572754    -3025.7982      700.37411      700.37411      700.37411      3.4355023e+08  1.6529058     -34879257      -34879257       1323.2161     -34877934      -3041.6292     -3018.469      -3017.2962     -3.4551858     -13.12949       3.7643541      14060.569    
     74000   444.19699      0.037          0.30841036     0.30619334     0.3060764     -3028.802       700.71196      700.71196      700.71196      3.4404765e+08  1.650516      -34858075      -34858075       1322.7428     -34856753      -3043.7736     -3021.8933     -3020.7392     -4.3828031     -12.169734      5.7806844      14152.772    
     75000   443.3706       0.0375         0.30877243     0.30650071     0.30609934    -3031.0798      701.04982      701.04982      701.04982      3.4454555e+08  1.6481309     -34836852      -34836852       1320.2819     -34835532      -3047.347      -3024.9268     -3020.9656     -3.8146763     -10.854947      5.1850163      14194.526    
     76000   442.41697      0.038          0.30909603     0.30673264     0.30608426    -3032.8577      701.38767      701.38767      701.38767      3.4504393e+08  1.6457503     -34815591      -34815591       1317.4422     -34814273      -3050.5406     -3027.2158     -3020.8168     -2.990847      -10.802427      3.3832406      14093.263    
     77000   442.35328      0.0385         0.30922664     0.30693262     0.30617959    -3034.2589      701.72553      701.72553      701.72553      3.4554279e+08  1.6433744     -34794299      -34794299       1317.2525     -34792982      -3051.8297     -3029.1894     -3021.7576     -3.1167972     -10.781092      2.1493063      14092.969    
     78000   442.84873      0.039          0.30939529     0.3072467      0.30633595    -3036.3614      702.06338      702.06338      702.06338      3.4604212e+08  1.641003      -34772974      -34772974       1318.7279     -34771656      -3053.4941     -3032.2892     -3023.3008     -3.3636354     -9.9380477      1.7519431      14250.006    
     79000   443.15477      0.0395         0.30957312     0.30757597     0.30643942    -3038.3699      702.40124      702.40124      702.40124      3.4654194e+08  1.6386361     -34751616      -34751616       1319.6392     -34750296      -3055.2491     -3035.5388     -3024.3219     -3.3270646     -8.1225979      2.4597478      14116.281    
     80000   443.0653       0.04           0.30956738     0.30778759     0.30636724    -3038.8098      702.73909      702.73909      702.73909      3.4704225e+08  1.6362739     -34730235      -34730235       1319.3728     -34728916      -3055.1925     -3037.6273     -3023.6096     -3.9940475     -7.2697176      2.4721219      14055.258    
     81000   442.48099      0.0405         0.3093553      0.30780288     0.3062504     -3037.778       703.07695      703.07695      703.07695      3.4754303e+08  1.6339161     -34708838      -34708838       1317.6328     -34707520      -3053.0994     -3037.7782     -3022.4565     -5.1998445     -7.9549742      1.0252104      14127.333    
     82000   441.63476      0.041          0.3089684      0.30763371     0.30604064    -3035.2587      703.41481      703.41481      703.41481      3.4804429e+08  1.6315629     -34687433      -34687433       1315.1129     -34686118      -3049.281      -3036.1086     -3020.3863     -4.6923329     -8.80715       -0.015771135    14267.523    
     83000   440.82423      0.0415         0.30840905     0.3072054      0.30570327    -3030.8996      703.75266      703.75266      703.75266      3.4854604e+08  1.6292142     -34666029      -34666029       1312.6993     -34664716      -3043.7607     -3031.8816     -3017.0567     -2.964861      -8.3350369      0.18160686     13986.284    
     84000   440.03983      0.042          0.30803968     0.30678733     0.30533318    -3027.0917      704.09052      704.09052      704.09052      3.4904827e+08  1.62687       -34644621      -34644621       1310.3635     -34643310      -3040.1153     -3027.7556     -3013.4042     -2.3497537     -7.317041       0.91574497     14091.792    
     85000   439.37663      0.0425         0.30796573     0.30646722     0.30487298    -3024.2814      704.42837      704.42837      704.42837      3.4955098e+08  1.6245303     -34623212      -34623212       1308.3886     -34621903      -3039.3855     -3024.5963     -3008.8624     -2.5450396     -7.5235526      1.8162415      14204.016    
     86000   438.93206      0.043          0.30790402     0.30609597     0.30442414    -3021.3805      704.76623      704.76623      704.76623      3.5005417e+08  1.6221951     -34601809      -34601809       1307.0647     -34600502      -3038.7764     -3020.9324     -3004.4327     -2.5854029     -7.9251391      2.3560354      14089.464    
     87000   438.16602      0.0435         0.30757046     0.30553453     0.30420966    -3017.7306      705.10408      705.10408      705.10408      3.5055784e+08  1.6198644     -34580423      -34580423       1304.7836     -34579118      -3035.4845     -3015.3914     -3002.3159     -3.3742824     -7.1111549      1.9887198      14114.725    
     88000   437.2708       0.044          0.30672772     0.30479517     0.30381963    -3011.2428      705.44194      705.44194      705.44194      3.51062e+08    1.6175381     -34559054      -34559054       1302.1178     -34557752      -3027.1672     -3008.0945     -2998.4666     -4.5387563     -6.523384       0.4443628      12263.826    
     89000   436.88205      0.0445         0.30570316     0.30425005     0.30300559    -3003.4009      705.77979      705.77979      705.77979      3.5156664e+08  1.6152163     -34537707      -34537707       1300.9601     -34536406      -3017.0556     -3002.7145     -2990.4327     -4.4814702     -6.9136858     -1.552655       14075.298    
     90000   436.54021      0.045          0.30489961     0.30380087     0.30215166    -2996.4706      706.11765      706.11765      706.11765      3.5207177e+08  1.6128989     -34516380      -34516380       1299.9422     -34515080      -3009.1252     -2998.2815     -2982.005      -3.2279919     -7.7664778     -2.6517788      14145.918    
     91000   435.73509      0.0455         0.30417686     0.30312772     0.30150046    -2989.7361      706.4555       706.4555       706.4555       3.5257737e+08  1.6105859     -34495078      -34495078       1297.5447     -34493781      -3001.9922     -2991.638      -2975.5782     -2.1995408     -7.9417488     -2.5800427      13987.368    
     92000   434.56633      0.046          0.30340041     0.30230689     0.30092586    -2982.5912      706.79336      706.79336      706.79336      3.5308347e+08  1.6082774     -34473817      -34473817       1294.0643     -34472523      -2994.3292     -2983.537      -2969.9074     -1.5598849     -7.8570175     -2.6577498      14160.325    
     93000   433.24427      0.0465         0.30278913     0.3014578      0.30029053    -2975.6969      707.13121      707.13121      707.13121      3.5359004e+08  1.6059733     -34452594      -34452594       1290.1275     -34451304      -2988.2964     -2975.1572     -2963.6371     -1.0668041     -7.5663654     -3.3915633      14117.514    
     94000   432.09544      0.047          0.30212775     0.30061636     0.29928007    -2967.4288      707.46907      707.46907      707.46907      3.540971e+08   1.6036735     -34431402      -34431402       1286.7064     -34430115      -2981.769      -2966.8528     -2953.6646     -1.0677982     -7.4219942     -3.6585142      14018.971    
     95000   431.46408      0.0475         0.30096352     0.29974455     0.29804147    -2956.6561      707.80692      707.80692      707.80692      3.5460465e+08  1.6013782     -34410248      -34410248       1284.8264     -34408963      -2970.279      -2958.2487     -2941.4406     -1.5851733     -7.2506541     -2.9807691      14022.717    
     96000   431.00337      0.048          0.29944791     0.29876964     0.29704489    -2945.1844      708.14478      708.14478      708.14478      3.5511268e+08  1.5990873     -34389150      -34389150       1283.4545     -34387866      -2955.3211     -2948.6271     -2931.6051     -2.2847323     -6.8912408     -2.6444412      14206.658    
     97000   430.30953      0.0485         0.29806347     0.29757829     0.29610749    -2933.6269      708.48264      708.48264      708.48264      3.5562119e+08  1.5968007     -34368117      -34368117       1281.3883     -34366835      -2941.6577     -2936.8693     -2922.3537     -1.4353542     -6.8584989     -3.6043413      14011.611    
     98000   429.10851      0.049          0.29707745     0.29626723     0.29499866    -2922.4224      708.82049      708.82049      708.82049      3.5613019e+08  1.5945184     -34347148      -34347148       1277.8119     -34345870      -2931.9265     -2923.9302     -2911.4104      0.46604319    -7.5693995     -4.7710726      14005.214    
     99000   427.49923      0.0495         0.29612349     0.29496868     0.29378194    -2911.0095      709.15835      709.15835      709.15835      3.5663968e+08  1.5922406     -34326238      -34326238       1273.0197     -34324965      -2922.5116     -2911.1145     -2899.4024      0.6494172     -8.8652742     -4.3347601      14229.217    
    100000   426.05598      0.05           0.29502196     0.29372439     0.29246336    -2898.9546      709.4962       709.4962       709.4962       3.5714965e+08  1.589967      -34305391      -34305391       1268.722      -34304123      -2911.6404     -2898.8344     -2886.3889     -0.74897998    -10.048633     -3.1159746      13544.854    
    101000   424.56473      0.0505         0.29373967     0.29254992     0.29115223    -2886.5592      709.83406      709.83406      709.83406      3.576601e+08   1.5876978     -34284606      -34284606       1264.2813     -34283342      -2898.9851     -2887.2432     -2873.4491     -0.54216899    -11.080074     -3.4716171      14044.608    
    102000   422.85296      0.051          0.29221059     0.29130792     0.28986704    -2873.2151      710.17191      710.17191      710.17191      3.5817105e+08  1.5854329     -34263894      -34263894       1259.1839     -34262635      -2883.8943     -2874.9857     -2860.7653      1.3986705     -11.061341     -5.7381355      14075.146    
    103000   421.61029      0.0515         0.29055597     0.28985492     0.28849084    -2858.4644      710.50977      710.50977      710.50977      3.5868248e+08  1.5831723     -34243267      -34243267       1255.4835     -34242012      -2867.5644     -2860.6456     -2847.1832      2.8336618     -9.4751785     -7.3930659      14120.853    
    104000   420.78735      0.052          0.28905706     0.28846709     0.28717894    -2844.652       710.84762      710.84762      710.84762      3.5919439e+08  1.580916      -34222720      -34222720       1253.0329     -34221467      -2852.7713     -2846.9488     -2834.2358      1.911253      -8.7976113     -7.6602224      14088.355    
    105000   419.7847       0.0525         0.28768718     0.28716365     0.28587909    -2831.5812      711.18548      711.18548      711.18548      3.5970679e+08  1.578664      -34202243      -34202243       1250.0472     -34200993      -2839.2517     -2834.0848     -2821.4072      0.027240074   -9.4565069     -7.9901265      14035.939    
    106000   418.67817      0.053          0.28613143     0.28571434     0.28461978    -2817.5526      711.52333      711.52333      711.52333      3.6021968e+08  1.5764162     -34181845      -34181845       1246.7521     -34180598      -2823.8976     -2819.7813     -2808.9788     -0.72136464    -9.82738       -8.968009       14194.07     
    107000   417.44182      0.0535         0.28456217     0.28409099     0.28334251    -2802.8479      711.86119      711.86119      711.86119      3.6073306e+08  1.5741728     -34161540      -34161540       1243.0705     -34160297      -2808.4103     -2803.7601     -2796.3732      0.45660912    -10.458237     -9.313606       14082.551    
    108000   415.96546      0.054          0.28304382     0.28232828     0.28177154    -2786.8859      712.19904      712.19904      712.19904      3.6124693e+08  1.5719335     -34141330      -34141330       1238.6741     -34140092      -2793.4253     -2786.3635     -2780.8689      1.974817      -11.869089     -8.261251       14004.423    
    109000   414.69969      0.0545         0.28142784     0.28066833     0.27978004    -2769.5574      712.5369       712.5369       712.5369       3.6176128e+08  1.5696986     -34121218      -34121218       1234.9049     -34119983      -2777.4768     -2769.9811     -2761.2143      3.0037726     -13.482334     -7.1591773      14102.364    
    110000   413.39141      0.055          0.27960506     0.27923057     0.27788282    -2752.5897      712.87475      712.87475      712.87475      3.6227612e+08  1.5674678     -34101198      -34101198       1231.009      -34099967      -2759.4874     -2755.7915     -2742.4902      3.5784145     -14.192977     -8.446537       14247.712    
    111000   411.82562      0.0555         0.27764281     0.27774359     0.27635468    -2736.2154      713.21261      713.21261      713.21261      3.6279145e+08  1.5652413     -34081277      -34081277       1226.3464     -34080050      -2740.1215     -2741.1161     -2727.4086      3.9645955     -12.930786     -10.183167      13976.98     
    112000   410.61754      0.056          0.27568479     0.27610512     0.27500512    -2719.9442      713.55047      713.55047      713.55047      3.6330726e+08  1.563019      -34061466      -34061466       1222.7489     -34060244      -2720.7973     -2724.9456     -2714.0895      4.0703899     -11.520533     -9.4223132      14093.449    
    113000   409.58719      0.0565         0.27389074     0.27449362     0.27363657    -2704.2386      713.88832      713.88832      713.88832      3.6382357e+08  1.5608009     -34041757      -34041757       1219.6807     -34040537      -2703.0915     -2709.0414     -2700.583       3.6726306     -11.524032     -7.935988       14239.704    
    114000   408.20232      0.057          0.27212204     0.27282961     0.27193761    -2687.3567      714.22618      714.22618      714.22618      3.6434036e+08  1.558587      -34022144      -34022144       1215.5568     -34020928      -2685.6358     -2692.6189     -2683.8156      2.9031185     -11.894417     -8.2029055      13726.506    
    115000   406.72766      0.0575         0.27022217     0.27092832     0.27000554    -2668.4959      714.56403      714.56403      714.56403      3.6485765e+08  1.5563773     -34002639      -34002639       1211.1655     -34001428      -2666.8854     -2673.8546     -2664.7475      3.0096275     -12.831241     -9.1917879      14114.119    
    116000   405.05218      0.058          0.26829573     0.26894207     0.26816177    -2649.5586      714.90189      714.90189      714.90189      3.6537542e+08  1.5541717     -33983249      -33983249       1206.1762     -33982043      -2647.873      -2654.2519     -2646.5509      4.1700999     -14.707487     -9.8596425      14170.222    
    117000   403.28803      0.0585         0.26647547     0.26709991     0.26630748    -2631.41        715.23974      715.23974      715.23974      3.6589369e+08  1.5519704     -33963975      -33963975       1200.9229     -33962774      -2629.9084     -2636.0712     -2628.2505      5.0702405     -15.052666     -10.420202      14055.128    
    118000   401.93245      0.059          0.26461313     0.26544085     0.2644242     -2613.63        715.5776       715.5776       715.5776       3.6641244e+08  1.5497731     -33944814      -33944814       1196.8862     -33943617      -2611.5286     -2619.6975     -2609.664       4.5862436     -13.45712      -10.206209      14031.749    
    119000   400.80676      0.0595         0.26272899     0.26399668     0.26283741    -2597.4606      715.91545      715.91545      715.91545      3.6693168e+08  1.5475801     -33925756      -33925756       1193.5341     -33924562      -2592.9335     -2605.4446     -2594.0035      3.4963653     -12.270711     -9.0940753      13966.182    
    120000   399.29498      0.06           0.26082315     0.26252902     0.26138173    -2581.5738      716.25331      716.25331      716.25331      3.6745141e+08  1.5453911     -33906796      -33906796       1189.0323     -33905607      -2574.1244     -2590.9599     -2579.6371      3.4216454     -12.234992     -8.4792626      14038.763    
    121000   397.94236      0.0605         0.25874123     0.26067369     0.25949599    -2562.4177      716.59116      716.59116      716.59116      3.6797164e+08  1.5432063     -33887951      -33887951       1185.0044     -33886766      -2553.5774     -2572.6493     -2561.0263      3.9187869     -12.311546     -8.5451372      14014.041    
    122000   396.78093      0.061          0.25666391     0.25860682     0.25758317    -2542.4916      716.92902      716.92902      716.92902      3.6849235e+08  1.5410256     -33869234      -33869234       1181.5458     -33868052      -2533.0758     -2552.2508     -2542.1483      3.3717446     -12.818346     -9.0758851      13836.929    
    123000   394.89851      0.0615         0.25484843     0.25654449     0.25579897    -2523.8651      717.26687      717.26687      717.26687      3.6901356e+08  1.538849      -33850635      -33850635       1175.9403     -33849459      -2515.1585     -2531.8973     -2524.5396      2.8396918     -14.20151      -10.216721      13900.447    
    124000   392.72533      0.062          0.25314585     0.25462012     0.25387439    -2505.602       717.60473      717.60473      717.60473      3.6953525e+08  1.5366765     -33832145      -33832145       1169.469      -33830975      -2498.3553     -2512.9052     -2505.5455      3.075487      -15.39747      -11.314487      13885.688    
    125000   390.95483      0.0625         0.25126305     0.25289406     0.25196971    -2487.4638      717.94258      717.94258      717.94258      3.7005744e+08  1.5345081     -33813769      -33813769       1164.1967     -33812605      -2479.7735     -2495.8703     -2486.7477      3.9200033     -15.109106     -11.097306      14104.17     
    126000   389.88437      0.063          0.24918208     0.2511896      0.25022378    -2469.2671      718.28044      718.28044      718.28044      3.7058012e+08  1.5323438     -33795509      -33795509       1161.0091     -33794348      -2459.236      -2479.0486     -2469.5167      4.4148931     -12.914769     -9.4836824      13719.735    
    127000   389.07055      0.0635         0.2472496      0.24956801     0.24863137    -2452.3364      718.6183       718.6183       718.6183       3.7110329e+08  1.5301835     -33777366      -33777366       1158.5857     -33776207      -2440.1638     -2463.0447     -2453.8008      3.6638342     -11.527557     -7.7535918      13919.624    
    128000   387.93074      0.064          0.24547853     0.24781363     0.24703299    -2435.4804      718.95615      718.95615      718.95615      3.7162696e+08  1.5280273     -33759334      -33759334       1155.1915     -33758179      -2422.6847     -2445.7303     -2438.026       2.3282299     -12.205104     -6.8752501      13817.426    
    129000   386.61556      0.0645         0.24371671     0.2457681      0.24531724    -2417.3108      719.29401      719.29401      719.29401      3.7215111e+08  1.5258752     -33741415      -33741415       1151.2751     -33740264      -2405.2969     -2425.5425     -2421.0929      1.6664036     -13.822945     -7.4820786      13735.47     
    130000   385.39399      0.065          0.2418449      0.24364431     0.24341842    -2397.9196      719.63186      719.63186      719.63186      3.7267576e+08  1.5237271     -33723617      -33723617       1147.6375     -33722469      -2386.8236     -2404.5824     -2402.353       1.7708063     -15.126496     -9.1389502      13859.943    
    131000   384.06378      0.0655         0.2399236      0.24174047     0.24148581    -2378.9781      719.96972      719.96972      719.96972      3.7320091e+08  1.521583      -33705937      -33705937       1143.6763     -33704793      -2367.8618     -2385.7929     -2383.2797      2.0184772     -14.772516     -10.462383      13869.912    
    132000   382.4102       0.066          0.23796201     0.23992163     0.23959501    -2360.3212      720.30757      720.30757      720.30757      3.7372654e+08  1.5194429     -33688372      -33688372       1138.7523     -33687233      -2348.5024     -2367.8424     -2364.6189      1.6424163     -13.214305     -10.776995      13782.94     
    133000   380.70174      0.0665         0.23613276     0.23808793     0.23782422    -2342.4456      720.64543      720.64543      720.64543      3.7425267e+08  1.5173069     -33670930      -33670930       1133.6648     -33669796      -2330.4491     -2349.7452     -2347.1426      0.41487934    -12.290169     -9.6584841      13855.7      
    134000   379.25556      0.067          0.23441918     0.23629543     0.23603773    -2325.0344      720.98328      720.98328      720.98328      3.7477929e+08  1.5151748     -33653608      -33653608       1129.3583     -33652479      -2313.5374     -2332.0546     -2329.5113     -0.38282548    -12.220847     -7.4556206      13913.106    
    135000   377.88573      0.0675         0.23272406     0.23447667     0.23423811    -2307.5544      721.32114      721.32114      721.32114      3.7530641e+08  1.5130468     -33636395      -33636395       1125.2792     -33635270      -2296.8079     -2314.1048     -2311.7504     -0.22896611    -12.326503     -6.6160059      13984.447    
    136000   376.56907      0.068          0.23094502     0.23267771     0.23248504    -2290.0165      721.65899      721.65899      721.65899      3.7583402e+08  1.5109227     -33619293      -33619293       1121.3584     -33618172      -2279.2502     -2296.3505     -2294.449       0.50989251    -13.137853     -8.3500716      13968.217    
    137000   375.45323      0.0685         0.22908626     0.23099083     0.23080056    -2272.8108      721.99685      721.99685      721.99685      3.7636212e+08  1.5088026     -33602302      -33602302       1118.0356     -33601183      -2260.9056     -2279.7022     -2277.8244      1.2450781     -13.963756     -10.42375       13882.596    
    138000   374.32042      0.069          0.2273248      0.22938799     0.22922275    -2256.5525      722.3347       722.3347       722.3347       3.7689072e+08  1.5066865     -33585415      -33585415       1114.6623     -33584300      -2243.5213     -2263.8835     -2262.2527      1.0946941     -13.764979     -9.5854214      13939.922    
    139000   372.89234      0.0695         0.22556848     0.22776856     0.22778045    -2240.7023      722.67256      722.67256      722.67256      3.7741981e+08  1.5045743     -33568629      -33568629       1110.4097     -33567519      -2226.1878     -2247.9009     -2248.0183      0.32160119    -12.240065     -6.923141       14010.775    
    140000   371.25109      0.07           0.22382736     0.22601406     0.22626861    -2224.2291      723.01041      723.01041      723.01041      3.779494e+08   1.5024661     -33551951      -33551951       1105.5223     -33550846      -2209.0043     -2230.5854     -2233.0976     -0.426956      -11.04902      -5.6560666      13887.998    
    141000   370.03408      0.0705         0.22216415     0.22408617     0.22445198    -2206.439       723.34827      723.34827      723.34827      3.7847948e+08  1.5003618     -33535390      -33535390       1101.8983     -33534288      -2192.5897     -2211.5585     -2215.1688     -1.39643       -11.258554     -6.3794952      14040.677    
    142000   369.48627      0.071          0.22068773     0.22223999     0.22254214    -2189.2256      723.68613      723.68613      723.68613      3.7901006e+08  1.4982614     -33518943      -33518943       1100.267      -33517842      -2178.0185     -2193.3382     -2196.3202     -1.7208074     -11.78094      -7.0339528      14036.243    
    143000   368.81507      0.0715         0.21944673     0.22069954     0.22089067    -2174.6425      724.02398      724.02398      724.02398      3.7954114e+08  1.496165      -33502595      -33502595       1098.2683     -33501497      -2165.7708     -2178.1351     -2180.0215     -0.81436341    -12.448778     -6.5101292      13930.341    
    144000   367.30846      0.072          0.21821131     0.21944933     0.21959416    -2162.2002      724.36184      724.36184      724.36184      3.8007271e+08  1.4940724     -33486331      -33486331       1093.7819     -33485238      -2153.5782     -2165.7965     -2167.2258      0.3234243     -12.765613     -4.9920208      13952.461    
    145000   365.49727      0.0725         0.21665343     0.21812287     0.21830171    -2148.4596      724.69969      724.69969      724.69969      3.8060477e+08  1.4919838     -33470148      -33470148       1088.3885     -33469059      -2138.2031     -2152.7054     -2154.4704      0.29416746    -12.514834     -4.6255928      14158.118    
    146000   364.25877      0.073          0.21493527     0.21652025     0.21684609    -2132.7465      725.03755      725.03755      725.03755      3.8113733e+08  1.4898991     -33454057      -33454057       1084.7004     -33452972      -2121.2462     -2136.8887     -2140.1045      0.0058096872  -12.581151     -5.5950659      13819.847    
    147000   363.25856      0.0735         0.21339449     0.21477594     0.21529849    -2116.8482      725.3754       725.3754       725.3754       3.8167039e+08  1.4878182     -33438069      -33438069       1081.722      -33436987      -2106.0399     -2119.6737     -2124.8309      0.40336411    -12.553258     -6.1020326      13969.466    
    148000   361.87943      0.074          0.21205877     0.21313899     0.21371195    -2101.8495      725.71326      725.71326      725.71326      3.8220395e+08  1.4857412     -33422179      -33422179       1077.6151     -33421101      -2092.8574     -2103.5183     -2109.173       1.13937       -12.084746     -5.6493351      14168.9      
    149000   360.34697      0.0745         0.21072663     0.21173496     0.21216309    -2087.7529      726.05111      726.05111      726.05111      3.82738e+08    1.4836681     -33406384      -33406384       1073.0517     -33405311      -2079.7101     -2089.6616     -2093.8869      1.6045551     -11.019394     -4.4633409      13864.356    
    150000   359.03225      0.075          0.20933796     0.21059185     0.21080817    -2074.9666      726.38897      726.38897      726.38897      3.8327255e+08  1.4815988     -33390674      -33390674       1069.1367     -33389605      -2066.005      -2078.38       -2080.5149      1.3612434     -10.664674     -3.5833202      13589.218    
    151000   358.07377      0.0755         0.2080261      0.20945139     0.20961165    -2062.9629      726.72682      726.72682      726.72682      3.838076e+08   1.4795334     -33375036      -33375036       1066.2825     -33373970      -2053.058      -2067.1245     -2068.7061      0.87217434    -11.484281     -3.3869491      14044.726    
    152000   357.37515      0.076          0.206728       0.20815586     0.2084087     -2050.4731      727.06468      727.06468      727.06468      3.8434315e+08  1.4774718     -33359470      -33359470       1064.2022     -33358406      -2040.2467     -2054.3386     -2056.8339      1.0980093     -12.556843     -3.6697202      13974.114    
    153000   356.4815       0.0765         0.20542472     0.20673354     0.20711624    -2037.2547      727.40253      727.40253      727.40253      3.8487919e+08  1.475414      -33343992      -33343992       1061.541      -33342931      -2027.3843     -2040.3014     -2044.0784      1.7046488     -13.208763     -4.2694561      13991.597    
    154000   355.35049      0.077          0.20416809     0.20526781     0.2057518     -2023.8102      727.74039      727.74039      727.74039      3.8541573e+08  1.4733601     -33328601      -33328601       1058.1731     -33327543      -2014.9824     -2025.8358     -2030.6124      1.9263705     -12.703944     -4.1042576      13881.118    
    155000   354.33027      0.0775         0.20297354     0.20395051     0.2044256     -2011.184       728.07824      728.07824      728.07824      3.8595277e+08  1.47131       -33313291      -33313291       1055.135      -33312236      -2003.1931     -2012.835      -2017.5238      1.1029146     -11.451359     -2.8852251      14046.282    
    156000   353.56764      0.078          0.20180583     0.20286554     0.20318356    -1999.6872      728.4161       728.4161       728.4161       3.8649031e+08  1.4692636     -33298057      -33298057       1052.8641     -33297004      -1991.6687     -2002.1273     -2005.2658     -0.44023595    -10.894563     -1.5928849      14020.955    
    157000   352.66682      0.0785         0.20075485     0.2018         0.20198343    -1988.7763      728.75396      728.75396      728.75396      3.8702835e+08  1.4672211     -33282892      -33282892       1050.1816     -33281842      -1981.2963     -1991.6112     -1993.4214     -0.83978661    -11.527433     -1.3990083      13995.578    
    158000   351.64761      0.079          0.19979362     0.20060268     0.20074618    -1977.605       729.09181      729.09181      729.09181      3.8756688e+08  1.4651823     -33267795      -33267795       1047.1465     -33266748      -1971.8097     -1979.7946     -1981.2107      0.95178335    -12.545535     -2.3591152      14054.368    
    159000   350.7267       0.0795         0.19887235     0.19939982     0.19966533    -1967.0615      729.42967      729.42967      729.42967      3.8810592e+08  1.4631474     -33252768      -33252768       1044.4042     -33251724      -1962.7175     -1967.9233     -1970.5436      2.929125      -12.591154     -3.2176153      14070.651    
    160000   349.50346      0.08           0.19794535     0.19828929     0.19877694    -1957.4359      729.76752      729.76752      729.76752      3.8864546e+08  1.4611162     -33237799      -33237799       1040.7616     -33236759      -1953.5687     -1956.9631     -1961.7758      2.4136729     -11.570335     -3.1438342      13974.732    
    161000   348.2253       0.0805         0.19680901     0.19727249     0.19773112    -1946.9121      730.10538      730.10538      730.10538      3.8918549e+08  1.4590887     -33222886      -33222886       1036.9555     -33221849      -1942.3539     -1946.9281     -1951.4544      0.43451604    -11.014802     -2.1712385      13941.582    
    162000   347.4705       0.081          0.19548733     0.1962947      0.19651693    -1935.3531      730.44323      730.44323      730.44323      3.8972603e+08  1.457065      -33208040      -33208040       1034.7078     -33207005      -1929.31       -1937.278      -1939.4713     -0.086682384   -11.314318     -0.98596825     14133.661    
    163000   346.82684      0.0815         0.19438492     0.19529707     0.19541793    -1924.8291      730.78109      730.78109      730.78109      3.9026706e+08  1.455045      -33193267      -33193267       1032.7911     -33192235      -1918.43       -1927.4322     -1928.6251      0.6998625     -11.390017     -0.68889936     13977.62     
    164000   345.74857      0.082          0.19368065     0.19427875     0.19454999    -1916.3069      731.11894      731.11894      731.11894      3.908086e+08   1.4530288     -33178551      -33178551       1029.5802     -33177521      -1911.4794     -1917.3822     -1920.0591      1.0481329     -10.78903      -1.1420262      13974.127    
    165000   344.65834      0.0825         0.19315224     0.19327112     0.19373377    -1908.5686      731.4568       731.4568       731.4568       3.9135063e+08  1.4510163     -33163880      -33163880       1026.3337     -33162854      -1906.2644     -1907.4377     -1912.0036      0.044975343   -9.7313522     -0.86205167     14090.422    
    166000   344.17265      0.083          0.19233502     0.1922059      0.19279672    -1899.2932      731.79465      731.79465      731.79465      3.9189317e+08  1.4490075     -33149264      -33149264       1024.8874     -33148239      -1898.1991     -1896.9248     -1902.7556     -0.076771079   -9.551072      -1.3341718      14072.01     
    167000   344.1006       0.0835         0.19124176     0.19121181     0.19182125    -1889.2173      732.13251      732.13251      732.13251      3.9243621e+08  1.4470024     -33134709      -33134709       1024.6728     -33133684      -1887.4095     -1887.1138     -1893.1286      1.179013      -10.585263     -2.189324       13931.848    
    168000   343.61093      0.084          0.19033335     0.19038375     0.19092212    -1880.5468      732.47036      732.47036      732.47036      3.9297975e+08  1.4450011     -33120206      -33120206       1023.2147     -33119183      -1878.4441     -1878.9415     -1884.2548      2.468334      -11.665638     -1.8146375      14012.686    
    169000   342.57147      0.0845         0.18969813     0.18961419     0.19005256    -1873.0648      732.80822      732.80822      732.80822      3.9352379e+08  1.4430034     -33105743      -33105743       1020.1193     -33104723      -1872.175      -1871.3465     -1875.673       3.0224794     -11.768674     -0.22271657     14139.945    
    170000   341.26356      0.085          0.18903123     0.18883065     0.18921088    -1865.5244      733.14607      733.14607      733.14607      3.9406834e+08  1.4410093     -33091324      -33091324       1016.2246     -33090307      -1865.5932     -1863.6137     -1867.3662      2.611709      -11.364876      0.34100514     13944.671    
    171000   340.20643      0.0855         0.18809469     0.1880024      0.18840027    -1857.0519      733.48393      733.48393      733.48393      3.9461338e+08  1.439019      -33076957      -33076957       1013.0767     -33075944      -1856.3502     -1855.4394     -1859.3661      1.315228      -10.295676     -0.80977537     14084.03     
    172000   339.88975      0.086          0.1870254      0.18707467     0.18763753    -1847.973       733.82179      733.82179      733.82179      3.9515893e+08  1.4370323     -33062644      -33062644       1012.1336     -33061632      -1845.7972     -1846.2834     -1851.8384      0.20404533    -7.9013437     -2.2013298      14067.384    
    173000   339.86063      0.0865         0.18618669     0.18615223     0.18694894    -1839.914       734.15964      734.15964      734.15964      3.9570498e+08  1.4350493     -33048382      -33048382       1012.0469     -33047370      -1837.5198     -1837.1796     -1845.0426      0.17166326    -6.7298925     -2.3639044      14019.255    
    174000   339.16316      0.087          0.18560171     0.18540309     0.18625422    -1833.2396      734.4975       734.4975       734.4975       3.9625154e+08  1.4330699     -33034158      -33034158       1009.97       -33033148      -1831.7465     -1829.7862     -1838.1862      0.49751789    -8.5642258     -1.5512856      14015.654    
    175000   338.09794      0.0875         0.18503316     0.18472025     0.18543843    -1826.4392      734.83535      734.83535      734.83535      3.9679859e+08  1.4310942     -33019968      -33019968       1006.7979     -33018961      -1826.1353     -1823.0472     -1830.135       0.93358814    -10.720804     -0.45910016     13996.649    
    176000   337.63324      0.088          0.18444785     0.18399923     0.18453872    -1819.1819      735.17321      735.17321      735.17321      3.9734615e+08  1.4291221     -33005818      -33005818       1005.4141     -33004812      -1820.3587     -1815.9312     -1821.2556      1.9884165     -11.23274       0.40395762     14124.952    
    177000   337.45422      0.0885         0.18391103     0.18330461     0.18376726    -1812.5929      735.51106      735.51106      735.51106      3.9789422e+08  1.4271536     -32991709      -32991709       1004.8811     -32990704      -1815.0608     -1809.0759     -1813.6419      2.7487875     -10.585106      0.70205752     14043.842    
    178000   336.98152      0.089          0.18329675     0.18278297     0.18313615    -1806.7797      735.84892      735.84892      735.84892      3.9844278e+08  1.4251887     -32977637      -32977637       1003.4734     -32976633      -1808.9983     -1803.9276     -1807.4132      2.3938717     -9.5959368      0.26045401     13904.48     
    179000   336.42437      0.0895         0.18259109     0.18231224     0.18261646    -1801.2001      736.18677      736.18677      736.18677      3.9899186e+08  1.4232274     -32963597      -32963597       1001.8143     -32962596      -1802.034      -1799.2819     -1802.2844      1.7262994     -8.8582497     -0.80711527     14090.589    
    180000   335.80238      0.09           0.18183239     0.18163772     0.18204187    -1794.5949      736.52463      736.52463      736.52463      3.9954143e+08  1.4212698     -32949590      -32949590       999.96216     -32948590      -1794.5462     -1792.6249     -1796.6135      1.3342422     -8.6418123     -1.6145689      14085.28     
    181000   335.02571      0.0905         0.18103958     0.18077436     0.18141246    -1787.0759      736.86248      736.86248      736.86248      4.0009151e+08  1.4193157     -32935614      -32935614       997.64935     -32934617      -1786.7217     -1784.1042     -1790.4018      0.2860124     -8.8477816     -1.5948001      13871.994    
    182000   334.30346      0.091          0.18033375     0.17979857     0.18083337    -1779.6387      737.20034      737.20034      737.20034      4.006421e+08   1.4173652     -32921678      -32921678       995.49861     -32920683      -1779.7557     -1774.4739     -1784.6866     -0.67149691    -8.4929014     -0.22723347     13999.686    
    183000   334.02902      0.0915         0.17974292     0.1788932      0.18012351    -1772.3814      737.53819      737.53819      737.53819      4.0119319e+08  1.4154182     -32907791      -32907791       994.68138     -32906796      -1773.9247     -1765.5386     -1777.6809     -0.59340356    -7.8954533      1.2567397      14206.884    
    184000   334.105        0.092          0.17916907     0.17825518     0.17926529    -1765.5713      737.87605      737.87605      737.87605      4.0174478e+08  1.4134749     -32893955      -32893955       994.90763     -32892960      -1768.2613     -1759.2418     -1769.2109      1.0134248     -8.1788946      0.6817394      13938.72     
    185000   333.97401      0.0925         0.17863006     0.17781855     0.17864845    -1760.3325      738.21391      738.21391      738.21391      4.0229688e+08  1.4115351     -32880154      -32880154       994.51759     -32879159      -1762.9416     -1754.9327     -1763.1231      2.8800781     -9.081034      -0.689767       14005.878    
    186000   333.69636      0.093          0.17819513     0.17740024     0.17821398    -1756.0962      738.55176      738.55176      738.55176      4.0284949e+08  1.4095988     -32866371      -32866371       993.69078     -32865378      -1758.6492     -1750.8043     -1758.8352      3.3083749     -9.1583465     -0.60031906     14012.2      
    187000   333.95904      0.0935         0.17781618     0.17702145     0.17771934    -1751.9762      738.88962      738.88962      738.88962      4.034026e+08   1.4076661     -32852606      -32852606       994.47299     -32851612      -1754.9092     -1747.0658     -1753.9535      2.2460829     -8.1768743      0.58672574     13885.239    
    188000   334.53626      0.094          0.17744148     0.17663891     0.17722596    -1747.862       739.22747      739.22747      739.22747      4.0395621e+08  1.4057369     -32838863      -32838863       996.19186     -32837866      -1751.2113     -1743.2905     -1749.0842      1.1305572     -7.4980871      1.7454745      14004.732    
    189000   334.41462      0.0945         0.17693667     0.17616557     0.17674893    -1743.0748      739.56533      739.56533      739.56533      4.0451034e+08  1.4038112     -32825141      -32825141       995.82964     -32824146      -1746.2292     -1738.619      -1744.3763      0.34489543    -7.9105807      1.8486458      14067.465    
    190000   333.51183      0.095          0.17616844     0.17557406     0.1761632     -1736.6747      739.90318      739.90318      739.90318      4.0506497e+08  1.4018891     -32811451      -32811451       993.14127     -32810458      -1738.6474     -1732.7812     -1738.5956      0.29854757    -9.1549819      0.94168441     14031.909    
    191000   332.3458       0.0955         0.17533406     0.17504073     0.17542722    -1729.7541      740.24104      740.24104      740.24104      4.056201e+08   1.3999704     -32797800      -32797800       989.66903     -32796810      -1730.4126     -1727.5177     -1731.332       0.75805363    -9.8487503     -0.080597791    13968.958    
    192000   331.43797      0.096          0.1746466      0.17438113     0.17476014    -1723.1281      740.57889      740.57889      740.57889      4.0617575e+08  1.3980553     -32784185      -32784185       986.96567     -32783198      -1723.628      -1721.0079     -1724.7484      1.5442948     -8.9654698     -0.17273077     14042.108    
    193000   331.15746      0.0965         0.17416138     0.17351458     0.17426721    -1717.0595      740.91675      740.91675      740.91675      4.067319e+08   1.3961436     -32770603      -32770603       986.13036     -32769617      -1718.8392     -1712.4558     -1719.8836      1.746152      -7.5761281      0.48367767     14052.696    
    194000   331.07139      0.097          0.17380284     0.17268257     0.17379941    -1711.604       741.2546       741.2546       741.2546       4.0728856e+08  1.3942355     -32757056      -32757056       985.87406     -32756070      -1715.3007     -1704.2445     -1715.2668      1.4256073     -7.1027558      0.80859496     14023.291    
    195000   330.68056      0.0975         0.17347242     0.17222683     0.17332282    -1707.4499      741.59246      741.59246      741.59246      4.0784572e+08  1.3923308     -32743533      -32743533       984.71025     -32742548      -1712.0397     -1699.7466     -1710.5633      1.0962167     -7.2279036      1.187151       14056.856    
    196000   330.45224      0.098          0.17301709     0.17197102     0.17282112    -1703.4599      741.93031      741.93031      741.93031      4.084034e+08   1.3904296     -32730028      -32730028       984.03034     -32729044      -1707.5459     -1697.222      -1705.6118      1.3982323     -7.3889766      1.6635802      13965.234    
    197000   330.72139      0.0985         0.17240545     0.17159132     0.17233757    -1698.6079      742.26817      742.26817      742.26817      4.0896158e+08  1.3885318     -32716548      -32716548       984.83181     -32715563      -1701.5095     -1693.4746     -1700.8396      2.0974645     -6.9640829      1.4364376      14127.609    
    198000   331.04582      0.099          0.1719121      0.17101552     0.17197084    -1693.8842      742.60602      742.60602      742.60602      4.0952027e+08  1.3866375     -32703094      -32703094       985.79793     -32702108      -1696.6405     -1687.7919     -1697.2202      2.3765969     -6.6829441      0.63514583     14011.225    
    199000   331.00067      0.0995         0.17149777     0.17038836     0.17154185    -1689.0467      742.94388      742.94388      742.94388      4.1007947e+08  1.3847466     -32689670      -32689670       985.66348     -32688684      -1692.5514     -1681.6024     -1692.9864      2.0519113     -7.0781013     -0.043597018    13896.332    
    200000   330.96286      0.1            0.17103352     0.16991113     0.17089931    -1683.8357      743.28174      743.28174      743.28174      4.1063918e+08  1.3828592     -32676269      -32676269       985.55089     -32675283      -1687.9696     -1676.8925     -1686.645       1.1619006     -7.737521      -0.25774171     13656.395    
    201000   330.74058      0.1005         0.17059248     0.16962932     0.17030007    -1679.4864      743.61959      743.61959      743.61959      4.111994e+08   1.3809752     -32662892      -32662892       984.88898     -32661907      -1683.6169     -1674.1112     -1680.731       0.35676362    -8.4663013      0.10765623     14046.465    
    202000   330.10243      0.101          0.17013997     0.16924008     0.16991459    -1675.4491      743.95745      743.95745      743.95745      4.1176012e+08  1.3790946     -32649534      -32649534       982.98866     -32648551      -1679.151      -1670.2697     -1676.9266      0.41431128    -8.4916216      1.4004788      13985.9      
    203000   329.53314      0.1015         0.16952342     0.16871039     0.16942917    -1670.0814      744.2953       744.2953       744.2953       4.1232136e+08  1.3772174     -32636199      -32636199       981.29343     -32635218      -1673.0661     -1665.0421     -1672.1359      1.1675819     -7.7470455      2.3918574      13984.193    
    204000   329.5502       0.102          0.16884368     0.16811915     0.16882269    -1663.905       744.63316      744.63316      744.63316      4.128831e+08   1.3753437     -32622898      -32622898       981.34421     -32621917      -1666.3575     -1659.2071     -1666.1504      1.7149221     -6.6252618      1.8761746      14159.54     
    205000   329.61591      0.1025         0.16834946     0.16752114     0.16834087    -1658.7268      744.97101      744.97101      744.97101      4.1344536e+08  1.3734733     -32609634      -32609634       981.53989     -32608652      -1661.48       -1653.3051     -1661.3952      1.9158761     -6.1150206      0.8998644      13939.422    
    206000   329.32469      0.103          0.16795745     0.16695422     0.16797941    -1654.383       745.30887      745.30887      745.30887      4.1400812e+08  1.3716063     -32596395      -32596395       980.67269     -32595414      -1657.6111     -1647.7101     -1657.8278      2.358261      -5.8688909      1.0529307      13962.08     
    207000   328.93977      0.1035         0.16750195     0.16646209     0.16748144    -1649.6274      745.64672      745.64672      745.64672      4.145714e+08   1.3697427     -32583178      -32583178       979.52646     -32582198      -1653.1157     -1642.8531     -1652.9133      2.3520784     -5.1320821      1.8851426      14170.745    
    208000   329.05218      0.104          0.16704941     0.16602934     0.16677553    -1644.3927      745.98458      745.98458      745.98458      4.1513519e+08  1.3678825     -32569989      -32569989       979.8612      -32569010      -1648.6495     -1638.5822     -1645.9465      1.899864      -4.4964521      2.4866754      13924.967    
    209000   329.22029      0.1045         0.16662475     0.16566214     0.16631159    -1640.2615      746.32243      746.32243      746.32243      4.1569949e+08  1.3660256     -32556827      -32556827       980.3618      -32555847      -1644.4584     -1634.9582     -1641.3678      1.6105721     -5.5122354      2.5993214      13990.575    
    210000   328.73187      0.105          0.16621738     0.16531581     0.166179      -1637.3458      746.66029      746.66029      746.66029      4.162643e+08   1.3641721     -32543678      -32543678       978.90736     -32542700      -1640.438      -1631.5402     -1640.0592      1.3191502     -7.5173853      1.9875819      14076.432    
    211000   328.40929      0.1055         0.16581705     0.16484389     0.16590293    -1633.5681      746.99814      746.99814      746.99814      4.1682962e+08  1.362322      -32530542      -32530542       977.94679     -32529564      -1636.4871     -1626.8827     -1637.3346      1.3413614     -8.6289873      1.2898004      14021.559    
    212000   328.96889      0.106          0.16534794     0.16425724     0.16539095    -1628.4106      747.336        747.336        747.336        4.1739545e+08  1.3604752     -32517434      -32517434       979.61319     -32516454      -1631.8572     -1621.0929     -1632.2817      1.4277847     -8.6528571      0.66664526     13982.03     
    213000   329.4075       0.1065         0.16487849     0.16385254     0.16492516    -1624.0026      747.67385      747.67385      747.67385      4.1796179e+08  1.3586317     -32504355      -32504355       980.9193      -32503374      -1627.2242     -1617.0988     -1627.6848      1.5603413     -8.3030869      0.085876767    13985.431    
    214000   329.04401      0.107          0.16439899     0.16352002     0.16439866    -1619.5992      748.01171      748.01171      748.01171      4.1852865e+08  1.3567916     -32491297      -32491297       979.83687     -32490317      -1622.4919     -1613.8172     -1622.4886      1.4306464     -7.5025359      0.77076746     14126.707    
    215000   328.63719      0.1075         0.16394609     0.16308043     0.1638521     -1614.8651      748.34957      748.34957      748.34957      4.1909602e+08  1.3549548     -32478264      -32478264       978.62543     -32477285      -1618.0221     -1609.4787     -1617.0945      1.0911173     -6.7867407      2.2445715      13978.246    
    216000   328.33883      0.108          0.16353073     0.16268199     0.16343202    -1610.806       748.68742      748.68742      748.68742      4.196639e+08   1.3531213     -32465253      -32465253       977.73698     -32464275      -1613.9228     -1605.5464     -1612.9486      1.2981925     -6.0186763      2.7886726      14038.288    
    217000   327.78672      0.1085         0.16314115     0.16227256     0.16305649    -1606.942       749.02528      749.02528      749.02528      4.2023229e+08  1.3512911     -32452258      -32452258       976.09289     -32451282      -1610.0779     -1601.5057     -1609.2424      2.0498074     -5.4145831      2.1536443      13909.346    
[...]
   3017000   323.34186      1.5085         0.013547393    0.013373097    0.013362718   -132.52145      1695.0202      1695.0202      1695.0202      4.8699516e+09  0.11660407    -10682034      -10682034       962.85685     -10681071      -133.70237     -131.98221     -131.87977      0.63076861    -0.2616634      1.4845242      13127.535    
   3018000   323.30586      1.509          0.01353708     0.013367529    0.013357957   -132.45354      1695.3581      1695.3581      1695.3581      4.8728642e+09  0.11653437    -10676555      -10676555       962.74964     -10675592      -133.60059     -131.92725     -131.83279      0.61864338    -0.27771752     1.4852484      13072.307    
   3019000   323.24336      1.5095         0.013526151    0.013363993    0.013351515   -132.38476      1695.6959      1695.6959      1695.6959      4.875778e+09   0.11646473    -10671076      -10671076       962.56354     -10670114      -133.49273     -131.89236     -131.7692       0.60622421    -0.2735148      1.4907154      13034.708    
   3020000   323.17703      1.51           0.013514698    0.013358298    0.013341369   -132.29497      1696.0338      1696.0338      1696.0338      4.878693e+09   0.11639514    -10665599      -10665599       962.366       -10664636      -133.3797      -131.83615     -131.66907      0.60670961    -0.26595328     1.5014648      13125.568    
   3021000   323.12771      1.5105         0.013502203    0.013350307    0.013329199   -132.18754      1696.3716      1696.3716      1696.3716      4.8816091e+09  0.11632561    -10660123      -10660123       962.21914     -10659161      -133.25638     -131.75728     -131.54896      0.62614172    -0.25529291     1.5193224      13401.918    
   3022000   323.11328      1.511          0.013491386    0.013340865    0.013318805   -132.08671      1696.7095      1696.7095      1696.7095      4.8845264e+09  0.11625613    -10654650      -10654650       962.17619     -10653688      -133.14963     -131.6641      -131.44639      0.6411276     -0.23715952     1.5295365      13235.088    
   3023000   323.12774      1.5115         0.013483492    0.013331545    0.013313173   -132.01154      1697.0473      1697.0473      1697.0473      4.8874449e+09  0.11618671    -10649178      -10649178       962.21925     -10648216      -133.07172     -131.57211     -131.3908       0.62302096    -0.22641306     1.5181411      13398.275    
   3024000   323.16288      1.512          0.013476563    0.013323119    0.013309385   -131.94857      1697.3852      1697.3852      1697.3852      4.8903645e+09  0.11611735    -10643707      -10643707       962.32386     -10642745      -133.00334     -131.48896     -131.35341      0.59043245    -0.23228169     1.4917546      13502.471    
   3025000   323.20426      1.5125         0.013469384    0.013314878    0.013304304   -131.88113      1697.7231      1697.7231      1697.7231      4.8932853e+09  0.11604804    -10638237      -10638237       962.4471      -10637274      -132.93249     -131.40763     -131.30327      0.57365104    -0.24584108     1.473114       13566.645    
   3026000   323.23779      1.513          0.013461419    0.013305011    0.013294329   -131.78965      1698.0609      1698.0609      1698.0609      4.8962073e+09  0.11597878    -10632767      -10632767       962.54695     -10631805      -132.85388     -131.31025     -131.20483      0.57324296    -0.26235617     1.4661977      13471.746    
   3027000   323.25503      1.5135         0.013452212    0.013294012    0.01327977    -131.67528      1698.3988      1698.3988      1698.3988      4.8991304e+09  0.11590958    -10627300      -10627300       962.59828     -10626337      -132.76301     -131.2017      -131.06114      0.58159751    -0.28108824     1.4553713      13373.449    
   3028000   323.25316      1.514          0.013441334    0.013281693    0.013264039   -131.54722      1698.7366      1698.7366      1698.7366      4.9020546e+09  0.11584044    -10621836      -10621836       962.59271     -10620873      -132.65565     -131.08012     -130.90588      0.58464393    -0.30045585     1.4453704      13472.416    
   3029000   323.23891      1.5145         0.013429027    0.013267832    0.013251521   -131.41995      1699.0745      1699.0745      1699.0745      4.9049801e+09  0.11577135    -10616375      -10616375       962.55027     -10615412      -132.53419     -130.94332     -130.78234      0.58289381    -0.31281828     1.4529599      13508.544    
   3030000   323.21276      1.515          0.013418315    0.013255095    0.013244338   -131.31918      1699.4123      1699.4123      1699.4123      4.9079067e+09  0.11570231    -10610917      -10610917       962.4724      -10609954      -132.42847     -130.81762     -130.71145      0.59112248    -0.30059205     1.4737782      13377.909    
   3031000   323.16472      1.5155         0.013410326    0.0132448      0.01323928    -131.24239      1699.7502      1699.7502      1699.7502      4.9108344e+09  0.11563333    -10605460      -10605460       962.32934     -10604497      -132.34963     -130.71602     -130.66154      0.60152418    -0.2747792      1.4919502      13473.804    
   3032000   323.11285      1.516          0.013400555    0.013234146    0.01323119    -131.14859      1700.088       1700.088       1700.088       4.9137634e+09  0.11556441    -10600004      -10600004       962.17488     -10599042      -132.25319     -130.61087     -130.58169      0.60581283    -0.26117147     1.5019934      13496.765    
   3033000   323.0806       1.5165         0.013386602    0.013222724    0.013218494   -131.02334      1700.4259      1700.4259      1700.4259      4.9166934e+09  0.11549554    -10594550      -10594550       962.07885     -10593588      -132.11549     -130.49814     -130.45639      0.60071316    -0.26705643     1.4992054      13463.856    
   3034000   323.06135      1.517          0.013370637    0.013212496    0.013203682   -130.88844      1700.7638      1700.7638      1700.7638      4.9196247e+09  0.11542672    -10589100      -10589100       962.02154     -10588138      -131.95793     -130.3972      -130.31021      0.58772734    -0.28322776     1.4803147      13499.504    
   3035000   323.03001      1.5175         0.013355554    0.013204826    0.013191212   -130.77257      1701.1016      1701.1016      1701.1016      4.9225571e+09  0.11535796    -10583653      -10583653       961.9282      -10582691      -131.80907     -130.3215      -130.18715      0.57221061    -0.29510133     1.4480847      13408.723    
   3036000   322.98244      1.518          0.01334441     0.013199246    0.013183157   -130.69105      1701.4395      1701.4395      1701.4395      4.9254907e+09  0.11528926    -10578209      -10578209       961.78656     -10577247      -131.69909     -130.26642     -130.10765      0.56298643    -0.2839106      1.415251       13532.487    
   3037000   322.93882      1.5185         0.013340223    0.013194264    0.013178733   -130.64634      1701.7773      1701.7773      1701.7773      4.9284255e+09  0.1152206     -10572764      -10572764       961.65666     -10571802      -131.65776     -130.21726     -130.06398      0.55984316    -0.26815884     1.3915648      13414.691    
   3038000   322.92044      1.519          0.013339861    0.013187718    0.013174868   -130.61089      1702.1152      1702.1152      1702.1152      4.9313614e+09  0.11515201    -10567318      -10567318       961.60193     -10566357      -131.65419     -130.15266     -130.02583      0.56991895    -0.27621327     1.3817606      13472.532    
   3039000   322.93305      1.5195         0.013336866    0.013179845    0.013168898   -130.5555       1702.453       1702.453       1702.453       4.9342985e+09  0.11508346    -10561873      -10561873       961.63948     -10560911      -131.62464     -130.07495     -129.96692      0.5810331     -0.30057574     1.3954971      13442.415    
   3040000   322.96663      1.52           0.013327627    0.013170125    0.013161438   -130.46859      1702.7909      1702.7909      1702.7909      4.9372367e+09  0.11501497    -10556427      -10556427       961.73948     -10555466      -131.53345     -129.97903     -129.89329      0.58668606    -0.31738018     1.4281322      13450.785    
   3041000   323.00518      1.5205         0.013314554    0.013158493    0.013153348   -130.3607       1703.1287      1703.1287      1703.1287      4.9401761e+09  0.11494654    -10550985      -10550985       961.85426     -10550023      -131.40443     -129.86423     -129.81345      0.59616142    -0.32028246     1.4574484      13423.431    
   3042000   323.0394       1.521          0.013304758    0.013147829    0.013145977   -130.26915      1703.4666      1703.4666      1703.4666      4.9431167e+09  0.11487816    -10545544      -10545544       961.95619     -10544582      -131.30775     -129.75899     -129.7407       0.59900182    -0.3138369      1.4689649      13437.543    
   3043000   323.08472      1.5215         0.013299548    0.013138987    0.013139171   -130.20053      1703.8044      1703.8044      1703.8044      4.9460585e+09  0.11480984    -10540105      -10540105       962.09112     -10539143      -131.25633     -129.67172     -129.67354      0.58858685    -0.3035443      1.4639607      13373.083    
   3044000   323.15471      1.522          0.013293485    0.013131495    0.013131854   -130.13187      1704.1423      1704.1423      1704.1423      4.9490014e+09  0.11474156    -10534667      -10534667       962.29954     -10533704      -131.19649     -129.59778     -129.60132      0.57541837    -0.28908329     1.4492197      13578.119    
   3045000   323.23357      1.5225         0.013284016    0.013124741    0.01312302    -130.04944      1704.4802      1704.4802      1704.4802      4.9519454e+09  0.11467335    -10529229      -10529229       962.53438     -10528267      -131.10305     -129.53112     -129.51414      0.56851547    -0.27411766     1.435762       13310.234    
   3046000   323.29836      1.523          0.013271617    0.013116288    0.013110586   -129.93993      1704.818       1704.818       1704.818       4.9548907e+09  0.11460518    -10523794      -10523794       962.72732     -10522831      -130.98067     -129.4477      -129.39143      0.56218861    -0.27125779     1.4344409      13270.95     
   3047000   323.34724      1.5235         0.013259716    0.013105436    0.013095153   -129.81431      1705.1559      1705.1559      1705.1559      4.9578371e+09  0.11453707    -10518362      -10518362       962.87286     -10517399      -130.86323     -129.3406      -129.23911      0.54627637    -0.28098644     1.4466044      13384.297    
   3048000   323.3759       1.524          0.013251921    0.013097492    0.013081416   -129.71734      1705.4937      1705.4937      1705.4937      4.9607847e+09  0.11446902    -10512933      -10512933       962.95821     -10511970      -130.7863      -129.2622      -129.10354      0.52503455    -0.30445171     1.4594376      13379.957    
   3049000   323.39322      1.5245         0.013245221    0.013093722    0.013070931   -129.6484       1705.8316      1705.8316      1705.8316      4.9637335e+09  0.11440102    -10507505      -10507505       963.00979     -10506542      -130.72017     -129.22499     -129.00006      0.49923993    -0.32993082     1.4596726      13221.388    
   3050000   323.40999      1.525          0.013237143    0.013090284    0.013061403   -129.57918      1706.1694      1706.1694      1706.1694      4.9666834e+09  0.11433307    -10502077      -10502077       963.05973     -10501114      -130.64044     -129.19106     -128.90603      0.47343025    -0.32718783     1.4470598      12878.203    
   3051000   323.4177       1.5255         0.013227732    0.013081881    0.013051744   -129.4888       1706.5073      1706.5073      1706.5073      4.9696345e+09  0.11426518    -10496651      -10496651       963.08268     -10495688      -130.54757     -129.10812     -128.8107       0.46306942    -0.28517445     1.4315653      13311.985    
   3052000   323.39377      1.526          0.013217985    0.013069108    0.013044057   -129.38942      1706.8451      1706.8451      1706.8451      4.9725867e+09  0.11419734    -10491227      -10491227       963.01143     -10490264      -130.45137     -128.98207     -128.73483      0.47278483    -0.2362771      1.4269336      13248.761    
   3053000   323.31913      1.5265         0.013208181    0.013056896    0.013038741   -129.29951      1707.183       1707.183       1707.183       4.9755401e+09  0.11412955    -10485804      -10485804       962.78917     -10484842      -130.35462     -128.86154     -128.68237      0.48647259    -0.21741055     1.4420734      13185.699    
   3054000   323.21898      1.527          0.013198229    0.0130468      0.013033655   -129.21682      1707.5209      1707.5209      1707.5209      4.9784947e+09  0.11406182    -10480383      -10480383       962.49092     -10479421      -130.2564      -128.7619      -128.63217      0.4939464     -0.2260065      1.4617203      13104.902    
   3055000   323.1338       1.5275         0.013187637    0.013037389    0.01302605    -129.126        1707.8587      1707.8587      1707.8587      4.9814505e+09  0.11399414    -10474963      -10474963       962.23728     -10474001      -130.15186     -128.66902     -128.55712      0.48756894    -0.24196016     1.4731895      13211.344    
   3056000   323.08036      1.528          0.0131757      0.013026953    0.01301593    -129.01911      1708.1966      1708.1966      1708.1966      4.9844074e+09  0.11392651    -10469545      -10469545       962.07814     -10468583      -130.03405     -128.56603     -128.45724      0.47695205    -0.25600183     1.4707967      13254.635    
   3057000   323.05152      1.5285         0.013163757    0.013014317    0.0130049     -128.90196      1708.5344      1708.5344      1708.5344      4.9873655e+09  0.11385894    -10464130      -10464130       961.99225     -10463168      -129.91618     -128.44132     -128.34838      0.47960066    -0.26287171     1.4627952      13220.045    
   3058000   323.03578      1.529          0.013153092    0.013000595    0.012994205   -128.78655      1708.8723      1708.8723      1708.8723      4.9903248e+09  0.11379142    -10458717      -10458717       961.9454      -10457755      -129.81092     -128.3059      -128.24283      0.49877995    -0.26315755     1.4634432      13216.906    
   3059000   323.0279       1.5295         0.013144164    0.012989671    0.0129865     -128.6959       1709.2101      1709.2101      1709.2101      4.9932853e+09  0.11372396    -10453307      -10453307       961.92192     -10452345      -129.72281     -128.19809     -128.16679      0.5171177     -0.26299799     1.475652       13138.122    
   3060000   323.01756      1.53           0.013136922    0.012982741    0.01298271    -128.63681      1709.548       1709.548       1709.548       4.9962469e+09  0.11365654    -10447898      -10447898       961.89113     -10446936      -129.65134     -128.1297      -128.12938      0.5201935     -0.26699353     1.4958626      13357.586    
   3061000   323.00153      1.5305         0.013130151    0.012976721    0.012976838   -128.57541      1709.8858      1709.8858      1709.8858      4.9992097e+09  0.11358919    -10442488      -10442488       961.84341     -10441527      -129.58452     -128.07028     -128.07143      0.50637808    -0.27240577     1.5081499      13395.412    
   3062000   322.99144      1.531          0.013123552    0.012969935    0.012966731   -128.49813      1710.2237      1710.2237      1710.2237      5.0021736e+09  0.11352188    -10437080      -10437080       961.81335     -10436118      -129.51938     -128.00331     -127.97168      0.49245789    -0.27785918     1.507666       13341.809    
   3063000   322.99985      1.5315         0.013117068    0.012961669    0.012954331   -128.40881      1710.5616      1710.5616      1710.5616      5.0051388e+09  0.11345463    -10431673      -10431673       961.83839     -10430711      -129.45539     -127.92172     -127.84931      0.49505475    -0.28382436     1.4962629      13296.188    
   3064000   323.02395      1.532          0.013110027    0.012952225    0.012941722   -128.3131       1710.8994      1710.8994      1710.8994      5.0081051e+09  0.11338743    -10426268      -10426268       961.91015     -10425306      -129.3859      -127.82852     -127.72487      0.50982319    -0.28799279     1.4879695      13414.999    
   3065000   323.04398      1.5325         0.013100995    0.012943119    0.01292991    -128.21457      1711.2373      1711.2373      1711.2373      5.0110725e+09  0.11332028    -10420865      -10420865       961.96981     -10419903      -129.29677     -127.73866     -127.60829      0.52935054    -0.2909106      1.4901174      13355.824    
   3066000   323.04325      1.533          0.013090093    0.012935305    0.012919955   -128.12025      1711.5751      1711.5751      1711.5751      5.0140412e+09  0.11325319    -10415464      -10415464       961.96763     -10414502      -129.18918     -127.66153     -127.51004      0.54503262    -0.28656215     1.4880622      13276.992    
   3067000   323.02491      1.5335         0.013077401    0.012926936    0.012910552   -128.02003      1711.913       1711.913       1711.913       5.017011e+09   0.11318615    -10410065      -10410065       961.91303     -10409103      -129.06391     -127.57894     -127.41724      0.54258174    -0.27516288     1.4729035      13345.892    
   3068000   323.00714      1.534          0.013063959    0.012918242    0.01290213    -127.9195       1712.2508      1712.2508      1712.2508      5.019982e+09   0.11311916    -10404668      -10404668       961.86009     -10403706      -128.93125     -127.49314     -127.33412      0.52752658    -0.26786879     1.4544163      13415.857    
   3069000   323.00133      1.5345         0.013051833    0.012909616    0.012894693   -127.82677      1712.5887      1712.5887      1712.5887      5.0229541e+09  0.11305223    -10399273      -10399273       961.84281     -10398311      -128.81158     -127.408       -127.26072      0.5190807     -0.27622904     1.4501162      13203.557    
   3070000   323.01493      1.535          0.013040896    0.012899871    0.012885842   -127.72961      1712.9265      1712.9265      1712.9265      5.0259275e+09  0.11298535    -10393879      -10393879       961.88331     -10392918      -128.70364     -127.31183     -127.17337      0.53055843    -0.30010044     1.455599       13401.732    
   3071000   323.05241      1.5355         0.013031597    0.012890391    0.012875646   -127.63429      1713.2644      1713.2644      1713.2644      5.028902e+09   0.11291852    -10388488      -10388488       961.99493     -10387527      -128.61186     -127.21827     -127.07275      0.56286144    -0.3206353      1.4566891      13326.299    
   3072000   323.09858      1.536          0.013025289    0.012883279    0.012866662   -127.56059      1713.6023      1713.6023      1713.6023      5.0318777e+09  0.11285174    -10383099      -10383099       962.1324      -10382137      -128.54961     -127.14808     -126.98408      0.59486413    -0.32456265     1.4485329      13343.447    
   3073000   323.13487      1.5365         0.013021085    0.012877901    0.012859424   -127.50526      1713.9401      1713.9401      1713.9401      5.0348545e+09  0.11278502    -10377711      -10377711       962.24046     -10376749      -128.50812     -127.095       -126.91265      0.59904611    -0.32059625     1.4361738      13415.372    
   3074000   323.16263      1.537          0.013016585    0.012873016    0.012852358   -127.45114      1714.278       1714.278       1714.278       5.0378326e+09  0.11271835    -10372322      -10372322       962.32312     -10371360      -128.46371     -127.0