LAMMPS (23 Jun 2022 - Update 1)
OMP_NUM_THREADS environment is not set. Defaulting to 1 thread. (src/comm.cpp:98)
  using 1 OpenMP thread(s) per MPI task
###

# Read restart info
read_restart ${read_res}
read_restart ./trial6/2080/equpmf71.res
Reading restart file ...
  restart file = 23 Jun 2022, LAMMPS = 23 Jun 2022
  restoring atom style atomic from restart
  orthogonal box = (1639.8865 1639.8865 1639.8865) to (2360.1135 2360.1135 2360.1135)
  1 by 2 by 2 MPI processor grid
  restoring pair style table from restart
  1000 atoms
  read_restart CPU = 0.096 seconds

# Settings
pair_style table/pgn spline 10941
pair_coeff 1 1 N20e.txt DE_GNP 308 72.9   # 1.35 * r
pair_coeff 2 2 N100e.txt DE_GNP 473.9 111.78
WARNING: 20 of 10941 force values in table DE_GNP are inconsistent with -dE/dr.
WARNING:  Should only be flagged at inflection points (src/pair_table_pgn.cpp:478)
pair_coeff 1 2 mixed_potentiale.txt DE_GNP 391.2 92.95
WARNING: 1564 of 10941 force values in table DE_GNP are inconsistent with -dE/dr.
WARNING:  Should only be flagged at inflection points (src/pair_table_pgn.cpp:478)

# Neighbor list
neighbor 2.0 bin
neigh_modify delay 0 every 1 check no once yes

# Temperature
variable T equal ${Temp}
variable T equal 300

# Deformation
reset_timestep 0
variable tmp equal "lx"
variable L0 equal ${tmp}
variable L0 equal 720.226910228358
variable strain equal "(lx - v_L0)/v_L0"
variable stp equal "step"
variable tmpe equal "temp"
variable p1 equal "v_strain"
variable p2 equal "-pxx*1.01325/10000"
variable p3 equal "-pyy*1.01325/10000"
variable p4 equal "-pzz*1.01325/10000"
variable p5 equal "lx"
variable p6 equal "ly"
variable p7 equal "lz"
variable p8 equal "press"
variable p9 equal "epair"
variable p10 equal "etotal"

# Thermo
thermo_style custom step temp v_p1 v_p2 v_p3 v_p4 press lx ly lz vol density epair pe ke etotal pxx pyy pzz pxy pxz pyz spcpu
thermo ${ts_save}
thermo 1000

# Dump
# dump 1 all custom 2000 ./${N20}${N100}/tensile/trajectory/trajectory_${usic}_${trial}_*.tensile.custom id type x y z ix iy iz
# dump_modify 1 sort id
dump 2 all cfg 50000 ./trial${trial}/${N20}${N100}/tensile/trajectory/dumpten.tens_${usic}_${trial}_*.cfg mass type xs ys zs fx fy fz
dump 2 all cfg 50000 ./trial6/${N20}${N100}/tensile/trajectory/dumpten.tens_${usic}_${trial}_*.cfg mass type xs ys zs fx fy fz
dump 2 all cfg 50000 ./trial6/20${N100}/tensile/trajectory/dumpten.tens_${usic}_${trial}_*.cfg mass type xs ys zs fx fy fz
dump 2 all cfg 50000 ./trial6/2080/tensile/trajectory/dumpten.tens_${usic}_${trial}_*.cfg mass type xs ys zs fx fy fz
dump 2 all cfg 50000 ./trial6/2080/tensile/trajectory/dumpten.tens_1_${trial}_*.cfg mass type xs ys zs fx fy fz
dump 2 all cfg 50000 ./trial6/2080/tensile/trajectory/dumpten.tens_1_6_*.cfg mass type xs ys zs fx fy fz
dump_modify 2 element N20 N100

fix 1 all nvt temp ${T} ${T} 100
fix 1 all nvt temp 300 ${T} 100
fix 1 all nvt temp 300 300 100
fix 2 all deform 1 x erate ${strain_rate} y erate ${strain_rate} z erate ${strain_rate} units box
fix 2 all deform 1 x erate 5e-6 y erate ${strain_rate} z erate ${strain_rate} units box
fix 2 all deform 1 x erate 5e-6 y erate 5e-6 z erate ${strain_rate} units box
fix 2 all deform 1 x erate 5e-6 y erate 5e-6 z erate 5e-6 units box
fix             def1 all print ${ts_save} "${p1} ${p2} ${p3} ${p4}" file ./tensile/${trial}/tensile${N20}${N100}_${usic}_${trial}.txt screen no
fix             def1 all print 1000 "${p1} ${p2} ${p3} ${p4}" file ./tensile/${trial}/tensile${N20}${N100}_${usic}_${trial}.txt screen no
fix             def1 all print 1000 "${p1} ${p2} ${p3} ${p4}" file ./tensile/6/tensile${N20}${N100}_${usic}_${trial}.txt screen no
fix             def1 all print 1000 "${p1} ${p2} ${p3} ${p4}" file ./tensile/6/tensile20${N100}_${usic}_${trial}.txt screen no
fix             def1 all print 1000 "${p1} ${p2} ${p3} ${p4}" file ./tensile/6/tensile2080_${usic}_${trial}.txt screen no
fix             def1 all print 1000 "${p1} ${p2} ${p3} ${p4}" file ./tensile/6/tensile2080_1_${trial}.txt screen no
fix             def1 all print 1000 "${p1} ${p2} ${p3} ${p4}" file ./tensile/6/tensile2080_1_6.txt screen no

timestep       		${ts}
timestep       		0.1
run				${steps_tensile}
run				6000000
Generated 0 of 1 mixed pair_coeff terms from geometric mixing rule
Unused restart file global fix info:
  fix style: npt, fix ID: 5
Neighbor list info ...
  update every 1 steps, delay 0 steps, check no
  max neighbors/atom: 2000, page size: 100000
  master list distance cutoff = 113.78
  ghost atom cutoff = 113.78
  binsize = 56.89, bins = 13 13 13
  1 neighbor lists, perpetual/occasional/extra = 1 0 0
  (1) pair table/pgn, perpetual
      attributes: half, newton on
      pair build: half/bin/atomonly/newton
      stencil: half/bin/3d
      bin: standard
Per MPI rank memory allocation (min/avg/max) = 3.844 | 3.844 | 3.845 Mbytes
   Step          Temp           v_p1           v_p2           v_p3           v_p4          Press            Lx             Ly             Lz           Volume        Density         E_pair         PotEng         KinEng         TotEng          Pxx            Pyy            Pzz            Pxy            Pxz            Pyz           S/CPU     
         0   299.84513      1.5784864e-16  0.012906984   -0.0054244544   0.0083671274  -52.141318      720.22691      720.22691      720.22691      3.73601e+08    1.6979187     -48319515      -48319515       892.8876      -48318622      -127.38203      53.535203     -82.577127     -8.124055       85.182317     -44.140826      0            
      1000   321.82241      0.0005         0.022109755    0.0041935453   0.017754996   -144.94052      720.58702      720.58702      720.58702      3.7416168e+08  1.6953744     -48318791      -48318791       958.33217     -48317833      -218.20631     -41.387074     -175.22818     -8.4560193      84.005974     -43.179464      15907.405    
      2000   361.47795      0.001          0.030734269    0.013380036    0.026580659   -232.56835      720.94714      720.94714      720.94714      3.7472293e+08  1.6928351     -48317469      -48317469       1076.4196     -48316392      -303.32365     -132.05069     -262.33071     -8.2209984      82.045955     -41.907908      16504.319    
      3000   407.93108      0.0015         0.03893392     0.021967213    0.034837249   -314.95479      721.30725      721.30725      721.30725      3.7528473e+08  1.6903009     -48315565      -48315565       1214.7491     -48314351      -384.24791     -216.79953     -343.81691     -8.0607623      80.21262      -40.92709       16584.212    
      4000   440.89411      0.002          0.046949218    0.030222609    0.042935431   -395.12216      721.66736      721.66736      721.66736      3.7584709e+08  1.6877718     -48313073      -48313073       1312.9074     -48311760      -463.35276     -298.27396     -423.73975     -8.4086457      78.67639      -39.721964      16524.208    
      5000   456.73941      0.0025         0.05500705     0.038397006    0.051190581   -475.67937      722.02748      722.02748      722.02748      3.7641002e+08  1.6852477     -48309959      -48309959       1360.092      -48308599      -542.87737     -378.94898     -505.21176     -8.9087559      77.377056     -38.620113      16385.493    
      6000   458.67829      0.003          0.063084185    0.046564434    0.059394804   -556.10963      722.38759      722.38759      722.38759      3.7697351e+08  1.6827287     -48306198      -48306198       1365.8656     -48304832      -622.5925      -459.55523     -586.18114     -8.8956705      76.417272     -38.775391      16494.291    
      7000   452.12455      0.0035         0.071037468    0.054732422    0.067354966   -635.33138      722.7477       722.7477       722.7477       3.7753756e+08  1.6802146     -48301785      -48301785       1346.3497     -48300439      -701.0853      -540.16701     -664.74183     -8.9580219      75.721328     -39.478857      16379.965    
      8000   441.77349      0.004          0.078804381    0.062887758    0.075172947   -713.43066      723.10782      723.10782      723.10782      3.7810217e+08  1.6777056     -48296723      -48296723       1315.526      -48295408      -777.73877     -620.65392     -741.8993      -9.4462019      74.59774      -39.429394      16568.32     
      9000   430.60507      0.0045         0.086435403    0.07093506     0.082937368   -790.5513       723.46793      723.46793      723.46793      3.7866735e+08  1.6752016     -48291010      -48291010       1282.2684     -48289728      -853.05111     -700.07461     -818.52818     -9.6431785      72.913472     -38.819844      16114.576    
     10000   420.17331      0.005          0.093887318    0.078620721    0.090543145   -865.37111      723.82804      723.82804      723.82804      3.7923308e+08  1.6727025     -48284644      -48284644       1251.2044     -48283393      -926.59579     -775.92619     -893.59136     -9.2519151      71.226798     -37.795976      16560.161    
     11000   410.91443      0.0055         0.1012028      0.086085667    0.098010533   -938.56074      724.18816      724.18816      724.18816      3.7979938e+08  1.6702084     -48277639      -48277639       1223.633      -48276415      -998.794       -849.59948     -967.28875     -8.6874151      69.851771     -36.316276      16435.18     
     12000   402.60859      0.006          0.10840541     0.09354967     0.10531163    -1010.8289      724.54827      724.54827      724.54827      3.8036625e+08  1.6677193     -48270017      -48270017       1198.8996     -48268818      -1069.8782     -923.26346     -1039.345      -9.1849008      68.959976     -34.860011      16278.524    
     13000   395.5055       0.0065         0.11537938     0.10084183     0.11226319    -1080.6297      724.90839      724.90839      724.90839      3.8093368e+08  1.6652351     -48261798      -48261798       1177.7478     -48260620      -1138.7059     -995.2315      -1107.9515     -10.661802      68.305277     -34.075501      16310.833    
     14000   390.06882      0.007          0.12213309     0.10790613     0.11897983    -1148.1834      725.2685       725.2685       725.2685       3.8150167e+08  1.6627558     -48252991      -48252991       1161.5583     -48251830      -1205.3599     -1064.9507     -1174.2396     -10.910075      67.12087      -33.939445      16293.471    
     15000   385.93108      0.0075         0.12886031     0.11484701     0.12568758    -1215.2147      725.62861      725.62861      725.62861      3.8207023e+08  1.6602815     -48243607      -48243607       1149.2368     -48242458      -1271.7524     -1133.4518     -1240.4399     -8.967935       65.629537     -34.074767      16403.946    
     16000   382.44643      0.008          0.13551962     0.12164978     0.13245944    -1281.7792      725.98873      725.98873      725.98873      3.8263935e+08  1.6578121     -48233652      -48233652       1138.8602     -48232513      -1337.4747     -1200.59       -1307.273      -7.4127422      64.271516     -33.557742      16221.982    
     17000   379.52026      0.0085         0.14200532     0.1284269      0.13923773    -1347.7094      726.34884      726.34884      726.34884      3.8320904e+08  1.6553475     -48223131      -48223131       1130.1465     -48222001      -1401.4836     -1267.475      -1374.1695     -8.231171       62.880473     -31.776847      16166.236    
     18000   377.0822       0.009          0.14844169     0.1351373      0.14577493    -1412.4646      726.70895      726.70895      726.70895      3.8377929e+08  1.6528879     -48212055      -48212055       1122.8864     -48210932      -1465.0056     -1333.7014     -1438.6867     -10.395175      61.786528     -29.866161      16185.791    
     19000   375.2652       0.0095         0.15464267     0.14156178     0.15194263    -1474.2893      727.06907      727.06907      727.06907      3.843501e+08   1.6504331     -48200447      -48200447       1117.4757     -48199329      -1526.2045     -1397.1062     -1499.5571     -11.724345      61.090577     -28.979522      16437.523    
     20000   374.56913      0.01           0.16052404     0.14775104     0.15805652    -1534.1117      727.42918      727.42918      727.42918      3.8492149e+08  1.6479832     -48188323      -48188323       1115.4029     -48187208      -1584.2491     -1458.1894     -1559.8965     -11.407187      60.016272     -29.038296      16548.009    
     21000   374.47029      0.0105         0.16638955     0.15392417     0.16417818    -1593.8544      727.78929      727.78929      727.78929      3.8549343e+08  1.6455381     -48175684      -48175684       1115.1086     -48174569      -1642.1372     -1519.1134     -1620.3126     -10.118905      59.323078     -29.141707      16418.325    
     22000   374.45736      0.011          0.17226816     0.15989513     0.17004508    -1652.1371      728.14941      728.14941      728.14941      3.8606595e+08  1.6430979     -48162535      -48162535       1115.0701     -48161420      -1700.1545     -1578.0423     -1678.2144     -8.9659173      59.203983     -28.47172       16278.324    
     23000   374.88514      0.0115         0.17796247     0.16563981     0.17566722    -1708.2638      728.50952      728.50952      728.50952      3.8663903e+08  1.6406624     -48148899      -48148899       1116.3439     -48147783      -1756.353      -1634.7378     -1733.7006     -8.5485697      58.839059     -27.172868      16521.966    
     24000   375.71828      0.012          0.18343738     0.17136948     0.18121352    -1763.37        728.86963      728.86963      728.86963      3.8721268e+08  1.6382318     -48134793      -48134793       1118.8249     -48133674      -1810.3862     -1691.2853     -1788.4384     -8.937256       57.540978     -26.240265      16355.552    
     25000   376.67977      0.0125         0.18871932     0.1770728      0.18659463    -1817.2111      729.22975      729.22975      729.22975      3.8778689e+08  1.635806      -48120221      -48120221       1121.688      -48119100      -1862.5149     -1747.5726     -1841.5458     -10.012873      55.717705     -25.834307      16369.872    
     26000   377.62365      0.013          0.19383705     0.18257963     0.19179719    -1869.2783      729.58986      729.58986      729.58986      3.8836168e+08  1.633385      -48105193      -48105193       1124.4987     -48104068      -1913.0229     -1801.9208     -1892.8911     -10.907013      54.419536     -25.535639      16453.259    
     27000   378.98782      0.0135         0.19883245     0.18791952     0.19689597    -1920.0525      729.94997      729.94997      729.94997      3.8893703e+08  1.6309687     -48089719      -48089719       1128.561      -48088591      -1962.3237     -1854.6215     -1943.2122     -10.862515      53.353186     -24.579688      16463.73     
     28000   380.75252      0.014          0.20380634     0.19325992     0.2020321     -1970.8804      730.31009      730.31009      730.31009      3.8951295e+08  1.6285573     -48073811      -48073811       1133.816      -48072677      -2011.4122     -1907.3271     -1993.9018     -9.7676161      52.333983     -23.287601      16560.164    
     29000   382.50313      0.0145         0.20886134     0.19847914     0.20715325    -2021.5272      730.6702       730.6702       730.6702       3.9008943e+08  1.6261505     -48057466      -48057466       1139.029      -48056327      -2061.3012     -1958.8368     -2044.4436     -8.509507       51.231937     -23.249212      16390.336    
     30000   384.27936      0.015          0.21381978     0.20343694     0.2120438     -2070.2378      731.03031      731.03031      731.03031      3.9066649e+08  1.6237485     -48040693      -48040693       1144.3183     -48039549      -2110.2372     -2007.7665     -2092.7096     -8.5064581      50.206262     -23.714653      16335.91     
     31000   386.21697      0.0155         0.21842676     0.20817979     0.21672432    -2116.394       731.39043      731.39043      731.39043      3.9124411e+08  1.6213513     -48023514      -48023514       1150.0882     -48022364      -2155.7045     -2054.5748     -2138.9027     -9.5621337      50.063252     -22.96377       16569.485    
     32000   388.02924      0.016          0.22270418     0.21275872     0.22125372    -2160.4297      731.75054      731.75054      731.75054      3.9182231e+08  1.6189587     -48005949      -48005949       1155.4848     -48004793      -2197.9193     -2099.7653     -2183.6045     -10.210413      50.198637     -21.429126      16356.69     
     33000   389.97568      0.0165         0.22676987     0.21724028     0.22555072    -2202.684       732.11065      732.11065      732.11065      3.9240107e+08  1.6165709     -47988012      -47988012       1161.281      -47986851      -2238.0446     -2143.9949     -2226.0126     -9.8309808      49.1975       -20.279359      16554.501    
     34000   392.08703      0.017          0.23085787     0.2217295      0.2297239     -2244.6296      732.47077      732.47077      732.47077      3.929804e+08   1.6141877     -47969714      -47969714       1167.5682     -47968547      -2278.3901     -2188.3        -2267.1986     -9.2905305      46.931592     -20.039989      16263.106    
     35000   393.96424      0.0175         0.23510436     0.22618358     0.23394192    -2287.1284      732.83088      732.83088      732.83088      3.935603e+08   1.6118092     -47951038      -47951038       1173.1582     -47949864      -2320.2997     -2232.2583     -2308.8272     -9.1182537      44.615457     -20.269305      16330.246    
     36000   395.69064      0.018          0.23931733     0.23046554     0.23816091    -2328.954       733.19099      733.19099      733.19099      3.9414078e+08  1.6094354     -47931980      -47931980       1178.2992     -47930802      -2361.8784     -2274.5181     -2350.4654     -8.7270676      43.913031     -19.793819      16659.4      
     37000   397.78895      0.0185         0.2433361      0.23447058     0.24218169    -2368.5776      733.55111      733.55111      733.55111      3.9472182e+08  1.6070663     -47912572      -47912572       1184.5476     -47911387      -2401.5406     -2314.0447     -2390.1475     -8.6014052      43.985454     -18.019195      16427.71     
     38000   400.05718      0.019          0.24717652     0.23842911     0.24596638    -2406.6848      733.91122      733.91122      733.91122      3.9530343e+08  1.6047018     -47892833      -47892833       1191.302      -47891642      -2439.4426     -2353.1124     -2427.4995     -8.5099175      43.255765     -16.639873      16507.694    
     39000   402.05594      0.0195         0.25079837     0.24232146     0.24959932    -2443.356       734.27133      734.27133      734.27133      3.9588562e+08  1.602342      -47872770      -47872770       1197.2539     -47871573      -2475.1874     -2391.5268     -2463.3538     -8.1372778      41.565964     -16.532984      16363.569    
     40000   403.90892      0.02           0.25427259     0.24615195     0.2532373     -2479.3547      734.63145      734.63145      734.63145      3.9646837e+08  1.5999867     -47852385      -47852385       1202.7718     -47851182      -2509.4753     -2429.3309     -2499.2578     -7.921716       39.609265     -16.680719      16307.176    
     41000   405.45701      0.0205         0.25767293     0.24995118     0.25688883    -2515.052       734.99156      734.99156      734.99156      3.970517e+08   1.5976361     -47831681      -47831681       1207.3817     -47830474      -2543.0341     -2466.8264     -2535.2957     -7.4476011      38.379722     -16.229904      16487.487    
     42000   407.06993      0.021          0.26100167     0.253553       0.26030405    -2549.087       735.35168      735.35168      735.35168      3.976356e+08   1.5952901     -47810663      -47810663       1212.1847     -47809451      -2575.8862     -2502.3735     -2569.0012     -6.2092782      37.526739     -15.137492      16391.997    
     43000   409.17154      0.0215         0.26430917     0.25696476     0.26350647    -2581.7268      735.71179      735.71179      735.71179      3.9822007e+08  1.5929487     -47789343      -47789343       1218.443      -47788125      -2608.5287     -2536.045      -2600.6066     -5.4932973      37.338866     -14.507913      16358.563    
     44000   411.2248       0.022          0.26759841     0.26036463     0.2667758     -2614.4875      736.0719       736.0719       736.0719       3.9880511e+08  1.5906118     -47767727      -47767727       1224.5572     -47766502      -2640.991      -2569.5991     -2632.8725     -6.4055816      36.863294     -13.975177      16533.014    
     45000   412.80354      0.0225         0.27072917     0.26364432     0.26998008    -2646.1175      736.43202      736.43202      736.43202      3.9939073e+08  1.5882796     -47745825      -47745825       1229.2584     -47744596      -2671.8892     -2601.9672     -2664.4962     -6.8287257      35.176028     -12.612371      16427.587    
     46000   414.01573      0.023          0.27364599     0.26678377     0.27288952    -2675.6124      736.79213      736.79213      736.79213      3.9997692e+08  1.5859518     -47723657      -47723657       1232.8681     -47722424      -2700.6759     -2632.9511     -2693.2102     -5.7312957      33.064685     -11.387661      16581.849    
     47000   415.0153       0.0235         0.27632035     0.26991199     0.27560586    -2703.6375      737.15224      737.15224      737.15224      4.0056368e+08  1.5836287     -47701232      -47701232       1235.8447     -47699996      -2727.0698     -2663.8243     -2720.0184     -4.2267024      31.473593     -10.981332      16421.621    
     48000   416.19952      0.024          0.27896138     0.27295029     0.27833007    -2731.283       737.51236      737.51236      737.51236      4.0115102e+08  1.58131       -47678549      -47678549       1239.3711     -47677310      -2753.1347     -2693.8099     -2746.9042     -3.0853155      30.192164     -11.975508      16405.608    
     49000   417.61962      0.0245         0.28176361     0.27580763     0.2811327     -2759.1214      737.87247      737.87247      737.87247      4.0173893e+08  1.5789959     -47655607      -47655607       1243.5999     -47654363      -2780.7906     -2722.0096     -2774.564      -2.7028497      29.289801     -13.162715      16561.656    
     50000   419.34038      0.025          0.28459873     0.27853919     0.28386278    -2786.4156      738.23258      738.23258      738.23258      4.0232742e+08  1.5766863     -47632412      -47632412       1248.724      -47631164      -2808.7711     -2748.968      -2801.5079     -2.6795168      28.576774     -12.231211      15708.673    
     51000   420.84693      0.0255         0.28728116     0.2813339      0.28639688    -2812.7706      738.5927       738.5927       738.5927       4.0291648e+08  1.5743812     -47608976      -47608976       1253.2103     -47607722      -2835.2446     -2776.5497     -2826.5174     -2.7043433      27.53674      -10.354642      16531.583    
     52000   422.01185      0.026          0.28953432     0.28394685     0.28869812    -2836.3493      738.95281      738.95281      738.95281      4.0350611e+08  1.5720806     -47585309      -47585309       1256.6792     -47584053      -2857.4816     -2802.3375     -2849.2289     -2.2075849      26.624686     -9.4928521      16417.654    
     53000   423.20566      0.0265         0.29142828     0.28630203     0.29087017    -2857.4734      739.31292      739.31292      739.31292      4.0409632e+08  1.5697845     -47561432      -47561432       1260.2342     -47560172      -2876.1735     -2825.5813     -2870.6654     -1.2348418      26.267719     -9.749916       16375.642    
     54000   424.30999      0.027          0.29345592     0.28857969     0.29302319    -2878.7196      739.67304      739.67304      739.67304      4.046871e+08   1.5674928     -47537348      -47537348       1263.5227     -47536085      -2896.1847     -2848.0601     -2891.9141     -0.68676551     25.406961     -9.9233939      15929.996    
     55000   425.16145      0.0275         0.29569382     0.2908331      0.29515448    -2900.5063      740.03315      740.03315      740.03315      4.0527846e+08  1.5652056     -47513056      -47513056       1266.0582     -47511790      -2918.2711     -2870.2995     -2912.9482     -0.61497315     23.563639     -9.3264074      16309.121    
     56000   425.86301      0.028          0.2978616      0.29301806     0.29721284    -2921.5972      740.39326      740.39326      740.39326      4.058704e+08   1.5629229     -47488563      -47488563       1268.1473     -47487295      -2939.6655     -2891.8634     -2933.2627      0.040872896    21.309107     -9.0905914      16546.046    
     57000   426.80473      0.0285         0.29969942     0.29509032     0.29911004    -2940.7016      740.75338      740.75338      740.75338      4.0646291e+08  1.5606446     -47463892      -47463892       1270.9516     -47462621      -2957.8033     -2912.315      -2951.9865      1.1059081      20.334583     -9.1374739      16367.477    
     58000   427.96436      0.029          0.30130116     0.29708715     0.30077263    -2958.0095      741.11349      741.11349      741.11349      4.07056e+08    1.5583707     -47439050      -47439050       1274.4048     -47437775      -2973.6112     -2932.0222     -2968.3951      1.7833457      20.236203     -9.20635        16471.2      
     59000   428.88359      0.0295         0.30293225     0.2990149      0.30231164    -2974.7801      741.4736       741.4736       741.4736       4.0764966e+08  1.5561012     -47414027      -47414027       1277.1421     -47412750      -2989.7088     -2951.0476     -2983.5839      1.7773996      19.798931     -8.9722396      16584.387    
     60000   429.25696      0.03           0.30464706     0.30078526     0.30391466    -2991.519       741.83372      741.83372      741.83372      4.082439e+08   1.5538362     -47388833      -47388833       1278.2539     -47387555      -3006.6328     -2968.5198     -2999.4045      1.845338       18.611491     -8.4162495      16465.664    
     61000   429.34325      0.0305         0.3063967      0.30243183     0.30559797    -3008.2293      742.19383      742.19383      742.19383      4.0883872e+08  1.5515755     -47363474      -47363474       1278.5109     -47362196      -3023.9003     -2984.7701     -3016.0174      2.7568122      17.122923     -7.8026516      16464.237    
     62000   429.84245      0.031          0.30800575     0.30408507     0.3070942     -3023.8836      742.55394      742.55394      742.55394      4.0943412e+08  1.5493192     -47337959      -47337959       1279.9974     -47336679      -3039.7805     -3001.0863     -3030.7841      3.8022314      15.716039     -6.9057628      16439.68     
     63000   430.95784      0.0315         0.30931816     0.30560926     0.30824156    -3036.9898      742.91406      742.91406      742.91406      4.1003009e+08  1.5470673     -47312302      -47312302       1283.3188     -47311019      -3052.7329     -3016.1289     -3042.1077      4.2933386      14.543324     -6.4948311      16436.078    
     64000   431.96553      0.032          0.31043097     0.30706746     0.30927985    -3048.8635      743.27417      743.27417      743.27417      4.1062664e+08  1.5448197     -47286511      -47286511       1286.3196     -47285225      -3063.7154     -3030.5202     -3052.3548      3.7653615      13.781024     -7.2149513      16564.798    
     65000   432.38354      0.0325         0.31146373     0.30846364     0.31053775    -3060.9923      743.63428      743.63428      743.63428      4.1122377e+08  1.5425765     -47260592      -47260592       1287.5643     -47259305      -3073.908      -3044.2995     -3064.7693      3.3167491      13.498044     -7.8784387      16449.087    
     66000   432.45541      0.033          0.31252904     0.30965199     0.31191981    -3072.9529      743.9944       743.9944       743.9944       4.1182148e+08  1.5403377     -47234551      -47234551       1287.7784     -47233263      -3084.4219     -3056.0276     -3078.4092      3.8631955      13.033391     -7.1261652      16412.204    
     67000   432.63892      0.0335         0.31375194     0.31077163     0.31322893    -3084.9659      744.35451      744.35451      744.35451      4.1241977e+08  1.5381031     -47208383      -47208383       1288.3248     -47207094      -3096.4909     -3067.0775     -3091.3292      4.4245505      11.779793     -6.1943875      16606.452    
     68000   432.7862       0.034          0.31496649     0.31203124     0.314266      -3096.5169      744.71463      744.71463      744.71463      4.1301864e+08  1.5358729     -47182084      -47182084       1288.7634     -47180796      -3108.4776     -3079.5089     -3101.5642      4.5718014      10.88379      -6.3862133      16418.948    
     69000   433.43588      0.0345         0.31600734     0.31325151     0.31497884    -3106.3005      745.07474      745.07474      745.07474      4.1361808e+08  1.533647      -47155673      -47155673       1290.698      -47154382      -3118.7499     -3091.552      -3108.5995      4.61492        10.93062      -6.6072489      16502.907    
     70000   434.55221      0.035          0.31690619     0.31428739     0.31570463    -3115.0529      745.43485      745.43485      745.43485      4.1421811e+08  1.5314254     -47129166      -47129166       1294.0223     -47127872      -3127.6209     -3101.7754     -3115.7624      4.7199341      10.70644      -6.3742367      16386.065    
     71000   435.08249      0.0355         0.31757424     0.31495886     0.31646678    -3121.9669      745.79497      745.79497      745.79497      4.1481872e+08  1.5292081     -47102569      -47102569       1295.6014     -47101273      -3134.214      -3108.4023     -3123.2843      4.9848694      9.7075338     -6.1178958      16214.157    
     72000   434.84882      0.036          0.31802508     0.31540429     0.31709878    -3126.9945      746.15508      746.15508      746.15508      4.154199e+08   1.5269951     -47075889      -47075889       1294.9055     -47074594      -3138.6635     -3112.7984     -3129.5216      6.2872944      8.2564585     -6.0296489      16504.866    
     73000   434.31536      0.0365         0.31845606     0.31590443     0.31754722    -3131.5329      746.51519      746.51519      746.51519      4.1602167e+08  1.5247863     -47049142      -47049142       1293.317      -47047849      -3142.917      -3117.7343     -3133.9474      7.6465567      7.5266889     -5.9022784      16333.919    
     74000   433.87862      0.037          0.3189797      0.31659577     0.31795423    -3136.8688      746.87531      746.87531      746.87531      4.1662402e+08  1.5225818     -47022323      -47022323       1292.0165     -47021031      -3148.0848     -3124.5573     -3137.9643      7.84745        6.5425119     -5.8120708      16617.672    
     75000   433.72173      0.0375         0.31955113     0.31736514     0.31848634    -3143.0302      747.23542      747.23542      747.23542      4.1722695e+08  1.5203815     -46995426      -46995426       1291.5492     -46994135      -3153.7245     -3132.1504     -3143.2158      7.9733437      5.2089012     -5.6379788      16365.093    
     76000   433.74308      0.038          0.32002402     0.31798683     0.31905625    -3148.506       747.59553      747.59553      747.59553      4.1783046e+08  1.5181855     -46968457      -46968457       1291.6128     -46967165      -3158.3915     -3138.286      -3148.8404      8.4443088      4.8480911     -5.6287314      16373.383    
     77000   433.51647      0.0385         0.32039315     0.31843304     0.31949715    -3152.6387      747.95565      747.95565      747.95565      4.1843455e+08  1.5159937     -46941422      -46941422       1290.938      -46940131      -3162.0346     -3142.6898     -3153.1917      8.1420767      5.2169616     -6.032783       16617.447    
     78000   433.49407      0.039          0.32060909     0.31861702     0.31959417    -3154.2735      748.31576      748.31576      748.31576      4.1903922e+08  1.5138061     -46914341      -46914341       1290.8713     -46913050      -3164.1657     -3144.5055     -3154.1493      7.3640571      4.9281968     -5.8094067      16455.375    
     79000   434.09931      0.0395         0.32060367     0.31858673     0.31947834    -3153.775       748.67587      748.67587      748.67587      4.1964448e+08  1.5116227     -46887236      -46887236       1292.6736     -46885943      -3164.1122     -3144.2066     -3153.0061      6.5841909      3.7703338     -5.1755238      16478.93     
     80000   434.4827       0.04           0.32047397     0.31853311     0.31940566    -3152.9328      749.03599      749.03599      749.03599      4.2025032e+08  1.5094436     -46860108      -46860108       1293.8153     -46858814      -3162.8322     -3143.6774     -3152.2888      6.4136063      2.5287666     -4.5306003      16526.935    
     81000   433.63509      0.0405         0.32035789     0.31861576     0.31941029    -3152.838       749.3961       749.3961       749.3961       4.2085674e+08  1.5072686     -46832956      -46832956       1291.2913     -46831665      -3161.6865     -3144.493      -3152.3344      7.2047201      1.792183      -3.6554483      16336.263    
     82000   431.96608      0.041          0.32019227     0.31864143     0.31930894    -3152.0442      749.75621      749.75621      749.75621      4.2146374e+08  1.5050978     -46805776      -46805776       1286.3212     -46804489      -3160.0521     -3144.7465     -3151.3342      8.213412       2.0445386     -3.2940481      16552.675    
     83000   430.77667      0.0415         0.31992248     0.31844221     0.31903637    -3149.6046      750.11633      750.11633      750.11633      4.2207133e+08  1.5029311     -46778580      -46778580       1282.7794     -46777297      -3157.3894     -3142.7802     -3148.6442      8.9815207      2.2661677     -3.4330421      16426.003    
     84000   430.51899      0.042          0.31957232     0.31806902     0.31865337    -3145.965       750.47644      750.47644      750.47644      4.226795e+08   1.5007686     -46751386      -46751386       1282.012      -46750104      -3153.9336     -3139.0971     -3144.8643      8.9707996      1.5920366     -3.8947294      16549.03     
     85000   430.45233      0.0425         0.31923366     0.31777042     0.31834783    -3142.8634      750.83655      750.83655      750.83655      4.2328826e+08  1.4986103     -46724199      -46724199       1281.8135     -46722917      -3150.5913     -3136.1502     -3141.8488      7.7832176      0.21991925    -3.9113032      16475.901    
     86000   430.13605      0.043          0.3188358      0.31756772     0.31806264    -3139.9496      751.19667      751.19667      751.19667      4.238976e+08   1.4964561     -46697010      -46697010       1280.8717     -46695730      -3146.6647     -3134.1497     -3139.0342      7.0122893     -0.57865183    -2.9802601      16431.549    
     87000   429.93567      0.0435         0.31829772     0.31725312     0.31758248    -3135.5648      751.55678      751.55678      751.55678      4.2450752e+08  1.494306      -46669826      -46669826       1280.275      -46668545      -3141.3542     -3131.0449     -3134.2954      7.1411585     -0.32436916    -1.9161338      16532.368    
     88000   429.83746      0.044          0.31761136     0.31668727     0.31696389    -3129.4104      751.91689      751.91689      751.91689      4.2511803e+08  1.49216       -46642664      -46642664       1279.9825     -46641384      -3134.5804     -3125.4603     -3128.1904      7.1598246      0.17049823    -1.5690672      16387.787    
     89000   429.32224      0.0445         0.31685439     0.31594755     0.31633711    -3122.4247      752.27701      752.27701      752.27701      4.2572913e+08  1.4900182     -46615540      -46615540       1278.4483     -46614262      -3127.1097     -3118.1599     -3122.0046      6.8088399     -0.70226195    -1.764677       16664.882    
     90000   428.09906      0.045          0.31614059     0.31528073     0.31568742    -3115.7455      752.63712      752.63712      752.63712      4.2634081e+08  1.4878804     -46588454      -46588454       1274.8059     -46587179      -3120.0651     -3111.5789     -3115.5926      6.992519      -2.3776241     -2.0949189      16377.295    
     91000   426.5861       0.0455         0.31540089     0.3145993      0.31483051    -3108.2513      752.99723      752.99723      752.99723      4.2695307e+08  1.4857467     -46561393      -46561393       1270.3006     -46560122      -3112.7648     -3104.8537     -3107.1355      7.473351      -3.1495931     -2.0326991      16361.437    
     92000   425.788        0.046          0.31445684     0.31372006     0.31388623    -3099.1467      753.35735      753.35735      753.35735      4.2756592e+08  1.4836171     -46534364      -46534364       1267.924      -46533096      -3103.4477     -3096.1763     -3097.8162      7.5029474     -2.6846008     -1.0995112      16543.185    
     93000   425.44538      0.0465         0.31333206     0.31272137     0.31298752    -3089.2045      753.71746      753.71746      753.71746      4.2817936e+08  1.4814916     -46507397      -46507397       1266.9037     -46506130      -3092.347      -3086.32       -3088.9466      7.0430853     -2.5244924      0.082762938    16361.879    
     94000   424.78038      0.047          0.31218558     0.31168583     0.31207767    -3079.0331      754.07758      754.07758      754.07758      4.2879339e+08  1.4793701     -46480501      -46480501       1264.9234     -46479236      -3081.0321     -3076.1        -3079.9671      6.3316261     -3.5183311      1.2636509      16649.749    
     95000   423.80178      0.0475         0.3110906      0.31071543     0.31106558    -3068.909       754.43769      754.43769      754.43769      4.29408e+08    1.4772527     -46453671      -46453671       1262.0093     -46452409      -3070.2255     -3066.5229     -3069.9786      5.5199547     -3.7146388      1.2687335      16357.152    
     96000   422.6671       0.048          0.31009365     0.30986466     0.30993665    -3059.1165      754.7978       754.7978       754.7978       4.3002319e+08  1.4751393     -46426904      -46426904       1258.6305     -46425645      -3060.3863     -3058.1264     -3058.8369      5.6754023     -2.9456529      0.28436943     16218.515    
     97000   421.4466       0.0485         0.30907364     0.30893927     0.30872162    -3048.7196      755.15792      755.15792      755.15792      4.3063898e+08  1.47303       -46400195      -46400195       1254.996      -46398940      -3050.3197     -3048.9936     -3046.8455      6.9171534     -3.3671046      0.31671195     16599.937    
     98000   420.24549      0.049          0.30785839     0.3077277      0.30750607    -3036.7371      755.51803      755.51803      755.51803      4.3125535e+08  1.4709247     -46373552      -46373552       1251.4193     -46372301      -3038.3261     -3037.0363     -3034.8489      8.0323952     -5.1133912      1.1031002      16381.73     
     99000   419.00591      0.0495         0.30640731     0.30636124     0.30636731    -3023.7219      755.87814      755.87814      755.87814      4.3187231e+08  1.4688233     -46346996      -46346996       1247.728      -46345748      -3024.005      -3023.5503     -3023.6103      7.9079397     -7.1537578      1.7612688      16426.976    
    100000   417.59133      0.05           0.30474387     0.30503674     0.30504088    -3009.5287      756.23826      756.23826      756.23826      4.3248986e+08  1.466726      -46320536      -46320536       1243.5157     -46319292      -3007.5882     -3010.4786     -3010.5194      6.9867875     -7.6619639      1.8634899      16091.801    
    101000   416.3854       0.0505         0.30304306     0.30366401     0.30339999    -2994.0194      756.59837      756.59837      756.59837      4.33108e+08    1.4646327     -46294178      -46294178       1239.9246     -46292938      -2990.8025     -2996.9307     -2994.3251      6.1085417     -6.8485935      1.963149       16375.286    
    102000   415.50803      0.051          0.30154987     0.30218043     0.30182874    -2979.0576      756.95848      756.95848      756.95848      4.3372672e+08  1.4625434     -46267925      -46267925       1237.312      -46266688      -2976.0658     -2982.2889     -2978.8181      5.391067      -6.3728063      2.391613       16511.541    
    103000   414.48238      0.0515         0.30023494     0.30072766     0.30058585    -2965.8638      757.3186       757.3186       757.3186       4.3434604e+08  1.460458      -46241775      -46241775       1234.2577     -46240541      -2963.0885     -2967.9513     -2966.5517      5.0009224     -6.9074736      2.7879788      16459.573    
    104000   413.20538      0.052          0.29878138     0.29931995     0.29941109    -2952.5863      757.67871      757.67871      757.67871      4.3496594e+08  1.4583766     -46215715      -46215715       1230.4551     -46214485      -2948.743      -2954.0582     -2954.9577      6.2692592     -7.8545734      2.7271583      16276.263    
    105000   411.98673      0.0525         0.29703933     0.29790349     0.29788821    -2937.1857      758.03882      758.03882      758.03882      4.3558643e+08  1.4562991     -46189756      -46189756       1226.8261     -46188529      -2931.5502     -2940.0788     -2939.9281      7.7526382     -9.0466568      2.7818194      16530.268    
    106000   410.75724      0.053          0.29512082     0.29640843     0.29605841    -2919.9364      758.39894      758.39894      758.39894      4.3620752e+08  1.4542256     -46163914      -46163914       1223.1649     -46162691      -2912.616      -2925.3238     -2921.8694      7.7099701     -10.145022      2.6812947      16418.665    
    107000   409.27735      0.0535         0.29321109     0.29483347     0.29424227    -2902.498       758.75905      758.75905      758.75905      4.3682919e+08  1.452156      -46138202      -46138202       1218.7581     -46136983      -2893.7685     -2909.7801     -2903.9454      6.921257      -10.779897      1.9446326      16613.625    
    108000   407.46261      0.054          0.29140469     0.29310396     0.29248159    -2885.0736      759.11916      759.11916      759.11916      4.3745145e+08  1.4500904     -46112617      -46112617       1213.3541     -46111404      -2875.9406     -2892.7111     -2886.5689      6.3935514     -10.876242      2.0386687      16419.288    
    109000   405.56655      0.0545         0.28965786     0.29120451     0.29071038    -2867.2514      759.47928      759.47928      759.47928      4.3807431e+08  1.4480286     -46087152      -46087152       1207.7079     -46085944      -2858.7008     -2873.965      -2869.0883      6.3500024     -10.635561      3.6419131      16404.99     
    110000   403.69205      0.055          0.28775772     0.28932101     0.28890614    -2848.8687      759.83939      759.83939      759.83939      4.3869775e+08  1.4459708     -46061819      -46061819       1202.126      -46060617      -2839.9479     -2855.3764     -2851.2819      6.7959149     -11.138925      4.9112023      16587.881    
    111000   402.1115       0.0555         0.28561205     0.28756322     0.28704538    -2829.9059      760.1995       760.1995       760.1995       4.3932179e+08  1.4439168     -46036628      -46036628       1197.4194     -46035431      -2818.7717     -2838.0283     -2832.9176      7.084739      -12.383785      4.4366277      16402.851    
    112000   400.91681      0.056          0.28356419     0.28592194     0.28521925    -2811.7621      760.55962      760.55962      760.55962      4.3994642e+08  1.4418668     -46011582      -46011582       1193.8618     -46010388      -2798.561      -2821.8301     -2814.8952      6.5723511     -13.620875      3.6594621      16651.116    
    113000   399.90415      0.0565         0.28172293     0.28423511     0.28329409    -2793.8223      760.91973      760.91973      760.91973      4.4057164e+08  1.4398206     -45986676      -45986676       1190.8463     -45985485      -2780.3892     -2805.1825     -2795.8953      6.0417578     -13.949024      4.0220714      16451.317    
    114000   398.8421       0.057          0.27996666     0.28236079     0.28119557    -2774.975       761.27984      761.27984      761.27984      4.4119745e+08  1.4377783     -45961911      -45961911       1187.6837     -45960723      -2763.0561     -2786.6843     -2775.1845      6.2578879     -14.010398      5.0992993      16440.202    
    115000   397.73221      0.0575         0.27804958     0.2803026      0.27911737    -2755.0606      761.63996      761.63996      761.63996      4.4182385e+08  1.4357399     -45937299      -45937299       1184.3786     -45936114      -2744.136      -2766.3715     -2754.6743      6.0282594     -14.30491       5.6293012      16545.211    
    116000   396.21971      0.058          0.2758311      0.27828021     0.2772414     -2734.9378      762.00007      762.00007      762.00007      4.4245085e+08  1.4337053     -45912837      -45912837       1179.8746     -45911657      -2722.2413     -2746.4121     -2736.1599      4.7907063     -15.02636       5.2104275      16408.109    
    117000   394.25757      0.0585         0.27360465     0.27636473     0.27542652    -2715.3414      762.36018      762.36018      762.36018      4.4307844e+08  1.4316746     -45888523      -45888523       1174.0317     -45887349      -2700.2679     -2727.5078     -2718.2484      4.0332831     -16.204064      4.6931114      16482.048    
    118000   392.30276      0.059          0.27150969     0.27441097     0.27351975    -2695.7494      762.7203       762.7203       762.7203       4.4370662e+08  1.4296477     -45864358      -45864358       1168.2106     -45863190      -2679.5923     -2708.2257     -2699.4301      4.868762      -16.95691       4.7581402      16348.97     
    119000   390.65426      0.0595         0.26954138     0.27237382     0.27146963    -2675.828       763.08041      763.08041      763.08041      4.443354e+08   1.4276246     -45840348      -45840348       1163.3017     -45839185      -2660.1665     -2688.1206     -2679.1969      5.8687669     -16.81841       5.2936371      16361.053    
    120000   389.16745      0.06           0.2677166      0.27044359     0.26942927    -2656.7628      763.44052      763.44052      763.44052      4.4496477e+08  1.4256053     -45816489      -45816489       1158.8742     -45815330      -2642.1575     -2669.0707     -2659.0601      5.0594453     -16.635414      5.9807124      16409.404    
    121000   387.53583      0.0605         0.26592876     0.26870915     0.26751797    -2638.8877      763.80064      763.80064      763.80064      4.4559474e+08  1.4235898     -45792772      -45792772       1154.0155     -45791618      -2624.5128     -2651.9531     -2640.1971      3.4266907     -17.006264      6.4350387      16337.873    
    122000   386.06695      0.061          0.26390889     0.26676857     0.2655225     -2619.2942      764.16075      764.16075      764.16075      4.4622529e+08  1.4215782     -45769201      -45769201       1149.6415     -45768052      -2604.5782     -2632.8011     -2620.5034      2.7895597     -17.887117      6.4700609      16537.891    
    123000   385.02581      0.0615         0.26172811     0.26453974     0.26344811    -2597.9635      764.52087      764.52087      764.52087      4.4685645e+08  1.4195703     -45745786      -45745786       1146.5411     -45744639      -2583.0556     -2610.8042     -2600.0306      3.7408503     -18.492915      5.9546923      16400.446    
    124000   384.20898      0.062          0.2595822      0.26236872     0.26137923    -2576.9558      764.88098      764.88098      764.88098      4.4748819e+08  1.4175662     -45722538      -45722538       1144.1087     -45721394      -2561.8772     -2589.3779     -2579.6124      5.1625712     -18.363014      5.34786        16333.791    
    125000   382.88932      0.0625         0.25757508     0.2603956      0.25937695    -2557.2749      765.24109      765.24109      765.24109      4.4812054e+08  1.4155659     -45699452      -45699452       1140.179      -45698312      -2542.0684     -2569.9048     -2559.8514      5.4116427     -18.540109      4.7011765      16604.684    
    126000   380.78666      0.063          0.25568294     0.25845013     0.25741172    -2538.185       765.60121      765.60121      765.60121      4.4875348e+08  1.4135693     -45676513      -45676513       1133.9177     -45675379      -2523.3945     -2550.7045     -2540.4561      4.2483741     -18.853482      4.0185496      16375.359    
    127000   378.79187      0.0635         0.25379858     0.25632048     0.25535823    -2518.2245      765.96132      765.96132      765.96132      4.4938701e+08  1.4115765     -45653731      -45653731       1127.9775     -45652603      -2504.7973     -2529.6865     -2520.1898      3.1592689     -18.976662      4.2146174      16440.788    
    128000   377.45903      0.064          0.25179479     0.25429518     0.25335772    -2498.3887      766.32143      766.32143      766.32143      4.5002114e+08  1.4095874     -45631106      -45631106       1124.0085     -45629982      -2485.0214     -2509.6983     -2500.4463      3.2559737     -19.00537       4.9799151      16591.884    
    129000   376.34949      0.0645         0.24974146     0.25265376     0.25150711    -2480.1458      766.68155      766.68155      766.68155      4.5065587e+08  1.4076021     -45608629      -45608629       1120.7045     -45607508      -2464.7566     -2493.4987     -2482.1822      3.4446975     -18.443211      5.5148593      16401.512    
    130000   375.02466      0.065          0.24784766     0.25111409     0.24963891    -2462.7047      767.04166      767.04166      767.04166      4.5129119e+08  1.4056205     -45586287      -45586287       1116.7594     -45585170      -2446.0662     -2478.3034     -2463.7444      2.8274092     -17.861178      4.8041778      16558.641    
    131000   373.56074      0.0655         0.24609055     0.24915765     0.24767725    -2444.0347      767.40177      767.40177      767.40177      4.5192711e+08  1.4036426     -45564089      -45564089       1112.4001     -45562977      -2428.7249     -2458.9949     -2444.3844      2.1000173     -18.051404      3.3055037      16422.411    
    132000   372.42383      0.066          0.24429228     0.24688589     0.24561121    -2423.8486      767.76189      767.76189      767.76189      4.5256363e+08  1.4016684     -45542047      -45542047       1109.0146     -45540938      -2410.9774     -2436.5743     -2423.9941      1.9145193     -18.410923      2.9580265      16278.924    
    133000   371.29199      0.0665         0.24240448     0.24479031     0.2436106     -2404.1628      768.122        768.122        768.122        4.5320074e+08  1.3996979     -45520161      -45520161       1105.6441     -45519055      -2392.3462     -2415.8925     -2404.2497      1.807153      -18.716587      3.8888322      16670.598    
    134000   369.79158      0.067          0.24044947     0.24296394     0.24175687    -2385.6247      768.48211      768.48211      768.48211      4.5383845e+08  1.3977311     -45498420      -45498420       1101.1762     -45497319      -2373.0517     -2397.8677     -2385.9548      1.3161794     -19.153842      4.8561703      16253.67     
    135000   368.17782      0.0675         0.23848875     0.2411832      0.23995       -2367.3722      768.84223      768.84223      768.84223      4.5447676e+08  1.395768      -45476829      -45476829       1096.3707     -45475733      -2353.701      -2380.2931     -2368.1224      0.90880233    -18.502058      4.8796688      16586.755    
    136000   366.91989      0.068          0.23659578     0.23933516     0.2380401     -2348.7821      769.20234      769.20234      769.20234      4.5511567e+08  1.3938086     -45455393      -45455393       1092.6248     -45454301      -2335.0188     -2362.0544     -2349.2731      1.0747948     -16.901389      4.1372093      16335.669    
    137000   366.01639      0.0685         0.2348615      0.23747334     0.23626603    -2331.1156      769.56245      769.56245      769.56245      4.5575518e+08  1.3918528     -45434103      -45434103       1089.9343     -45433013      -2317.9028     -2343.6796     -2331.7645      1.4961484     -16.687555      2.5209973      16319.586    
    138000   364.81285      0.069          0.23324277     0.23569064     0.23465449    -2314.6242      769.92257      769.92257      769.92257      4.5639528e+08  1.3899007     -45412942      -45412942       1086.3504     -45411855      -2301.9272     -2326.0858     -2315.8597      0.92175699    -18.099605      0.96789194     16632.778    
    139000   363.29978      0.0695         0.23156695     0.2339403      0.23295944    -2297.7768      770.28268      770.28268      770.28268      4.5703599e+08  1.3879523     -45391900      -45391900       1081.8447     -45390819      -2285.3881     -2308.8113     -2299.131      -0.43341095    -19.216176      1.086055       16375.815    
    140000   362.01493      0.07           0.22976708     0.2322293      0.2311897     -2280.4049      770.64279      770.64279      770.64279      4.5767729e+08  1.3860074     -45370990      -45370990       1078.0186     -45369912      -2267.6247     -2291.925      -2281.665      -1.5222668     -18.599458      1.9615033      16539.716    
    141000   360.72444      0.0705         0.22812909     0.23055549     0.22948351    -2263.897       771.00291      771.00291      771.00291      4.583192e+08   1.3840663     -45350213      -45350213       1074.1758     -45349139      -2251.459      -2275.4057     -2264.8261     -1.210218      -16.800187      1.8467024      16451.499    
    142000   359.47993      0.071          0.22668711     0.22887624     0.22773937    -2247.8912      771.36302      771.36302      771.36302      4.589617e+08   1.3821287     -45329572      -45329572       1070.4699     -45328501      -2237.2278     -2258.8328     -2247.6129     -0.11999274    -14.903976      1.1868957      16359.5      
    143000   358.47181      0.0715         0.22515801     0.22709765     0.22593173    -2231.0631      771.72313      771.72313      771.72313      4.596048e+08   1.3801947     -45309069      -45309069       1067.4678     -45308001      -2222.1368     -2241.2796     -2229.7729      0.22661299    -14.318626      1.0589684      16589.817    
    144000   357.31877      0.072          0.22340601     0.2253321      0.22424566    -2213.9445      772.08325      772.08325      772.08325      4.6024851e+08  1.3782644     -45288699      -45288699       1064.0343     -45287635      -2204.8459     -2223.8549     -2213.1326     -0.24105424    -15.104114      1.6387755      16422.104    
    145000   355.96291      0.0725         0.22165883     0.22364011     0.22271425    -2197.5925      772.44336      772.44336      772.44336      4.6089281e+08  1.3763377     -45268457      -45268457       1059.9968     -45267397      -2187.6026     -2207.1563     -2198.0188     -0.22357024    -15.753025      2.5219744      16481.126    
    146000   354.51426      0.073          0.2201986      0.22214714     0.22129497    -2183.2082      772.80347      772.80347      772.80347      4.6153772e+08  1.3744145     -45248325      -45248325       1055.6829     -45247269      -2173.1912     -2192.4218     -2184.0115      0.52060107    -15.516058      2.9715668      16377.69     
    147000   352.99535      0.0735         0.21892865     0.22083576     0.21985924    -2169.9931      773.16359      773.16359      773.16359      4.6218323e+08  1.3724949     -45228297      -45228297       1051.1599     -45227246      -2160.6578     -2179.4795     -2169.842       0.80406944    -14.813968      1.8893586      16373.237    
    148000   351.87395      0.074          0.21762907     0.2194627      0.21832187    -2156.1433      773.5237       773.5237       773.5237       4.6282933e+08  1.3705789     -45208381      -45208381       1047.8205     -45207333      -2147.8319     -2165.9285     -2154.6694      0.098853706   -14.506998      0.47388755     16497.143    
    149000   351.08298      0.0745         0.21627511     0.21801236     0.21680127    -2141.9154      773.88382      773.88382      773.88382      4.6347604e+08  1.3686665     -45188581      -45188581       1045.4652     -45187536      -2134.4694     -2151.6147     -2139.6621     -0.66880286    -14.278647     -0.19139284     16376.852    
    150000   350.33628      0.075          0.21484567     0.21649405     0.21530591    -2127.2988      774.24393      774.24393      774.24393      4.6412336e+08  1.3667576     -45168894      -45168894       1043.2416     -45167851      -2120.3619     -2136.6302     -2124.9042     -0.83459471    -13.683815     -0.63157498     15890.575    
    151000   349.38957      0.0755         0.21342091     0.21493667     0.21394572    -2113.0136      774.60404      774.60404      774.60404      4.6477127e+08  1.3648523     -45149310      -45149310       1040.4225     -45148270      -2106.3006     -2121.26       -2111.48       -0.36374869    -12.886386     -1.07252        16480.642    
    152000   348.00928      0.076          0.21206965     0.21342278     0.21275481    -2099.6702      774.96416      774.96416      774.96416      4.6541979e+08  1.3629505     -45129830      -45129830       1036.3122     -45128794      -2092.9647     -2106.3191     -2099.7267      0.29406144    -12.212468     -0.69830059     16380.43     
    153000   346.82891      0.0765         0.21078095     0.21194225     0.21150373    -2086.4444      775.32427      775.32427      775.32427      4.6606891e+08  1.3610522     -45110458      -45110458       1032.7973     -45109425      -2080.2462     -2091.7073     -2087.3795      0.55616022    -11.837763     -0.13076886     16381.557    
    154000   346.13486      0.077          0.20954417     0.21057        0.21009457    -2073.2256      775.68438      775.68438      775.68438      4.6671864e+08  1.3591575     -45091195      -45091195       1030.7305     -45090164      -2068.0401     -2078.1644     -2073.4722      0.39491476    -12.268654      0.012646721    16389.418    
    155000   345.34357      0.0775         0.20831428     0.20936669     0.2087013     -2060.6374      776.0445       776.0445       776.0445       4.6736896e+08  1.3572663     -45072028      -45072028       1028.3742     -45070999      -2055.9021     -2066.2885     -2059.7217      0.2168374     -12.84472      -0.075485815    16408.689    
    156000   343.98657      0.078          0.20707306     0.20828411     0.20752282    -2049.1159      776.40461      776.40461      776.40461      4.680199e+08   1.3553786     -45052945      -45052945       1024.3333     -45051921      -2043.6523     -2055.6044     -2048.091       0.33277988    -12.137165     -0.31054325     16561.934    
    157000   342.48312      0.0785         0.20589321     0.20713053     0.20640856    -2037.7738      776.76472      776.76472      776.76472      4.6867143e+08  1.3534944     -45033947      -45033947       1019.8563     -45032927      -2032.008      -2044.2194     -2037.0941      0.81284348    -10.059215     -1.1614709      16381.759    
    158000   341.42667      0.079          0.20479799     0.20585978     0.20522512    -2026.0972      777.12484      777.12484      777.12484      4.6932357e+08  1.3516136     -45015035      -45015035       1016.7103     -45014019      -2021.199      -2031.6781     -2025.4145      1.1509207     -8.4362836     -1.9993626      16612.351    
    159000   340.64671      0.0795         0.20375469     0.20459619     0.20409182    -2014.7798      777.48495      777.48495      777.48495      4.6997632e+08  1.3497364     -44996216      -44996216       1014.3877     -44995202      -2010.9024     -2019.2074     -2014.2297      0.86598111    -8.790111      -2.2534966      16407.267    
    160000   339.64618      0.08           0.2027783      0.20343337     0.20303961    -2004.2809      777.84506      777.84506      777.84506      4.7062967e+08  1.3478626     -44977481      -44977481       1011.4083     -44976470      -2001.2662     -2007.7312     -2003.8452      0.68017843    -9.6280269     -1.4238785      16434.605    
    161000   338.40101      0.0805         0.2017836      0.20242472     0.20208875    -1994.5623      778.20518      778.20518      778.20518      4.7128362e+08  1.3459923     -44958815      -44958815       1007.7004     -44957807      -1991.4492     -1997.7767     -1994.4609      1.1275441     -9.8853479     -0.29117836     16520.482    
    162000   337.40568      0.081          0.20071331     0.20135647     0.20108976    -1984.2406      778.56529      778.56529      778.56529      4.7193818e+08  1.3441255     -44940218      -44940218       1004.7365     -44939213      -1980.8863     -1987.2339     -1984.6016      1.7971087     -9.33517        0.15745391     16459.901    
    163000   337.06053      0.0815         0.19962315     0.20018979     0.2000027     -1973.24        778.9254       778.9254       778.9254       4.7259335e+08  1.3422621     -44921703      -44921703       1003.7087     -44920699      -1970.1273     -1975.7196     -1973.8732      1.9293432     -8.2182235     -0.16890141     16604.01     
    164000   336.80175      0.082          0.1986692      0.19921298     0.19899722    -1963.5805      779.28552      779.28552      779.28552      4.7324912e+08  1.3404021     -44903271      -44903271       1002.9381     -44902268      -1960.7125     -1966.0792     -1963.9498      1.0670454     -7.4679675     -0.59273946     16369.441    
    165000   335.99464      0.0825         0.19781667     0.19842357     0.19811525    -1955.2775      779.64563      779.64563      779.64563      4.739055e+08   1.3385456     -44884906      -44884906       1000.5347     -44883905      -1952.2988     -1958.2884     -1955.2455      0.32952698    -8.1670034     -0.72390199     16424.587    
    166000   334.93702      0.083          0.19689443     0.19752152     0.19720994    -1946.2979      780.00574      780.00574      780.00574      4.7456248e+08  1.3366925     -44866599      -44866599       997.38525     -44865602      -1943.197      -1949.3858     -1946.3108      0.70123281    -9.2785609     -0.64462902     16539.83     
    167000   333.99526      0.0835         0.19592947     0.19646325     0.19629555    -1936.6338      780.36586      780.36586      780.36586      4.7522008e+08  1.3348429     -44848362      -44848362       994.58085     -44847367      -1933.6736     -1938.9415     -1937.2865      1.5639101     -8.958365      -0.73012143     16426.808    
    168000   333.13205      0.084          0.19499069     0.19543546     0.19539819    -1927.2122      780.72597      780.72597      780.72597      4.7587828e+08  1.3329966     -44830195      -44830195       992.01036     -44829203      -1924.4085     -1928.798      -1928.4302      2.0157052     -7.1778026     -1.0713759      16615.417    
    169000   332.58582      0.0845         0.1941123      0.19448872     0.19452291    -1918.3286      781.08608      781.08608      781.08608      4.7653708e+08  1.3311538     -44812089      -44812089       990.38379     -44811099      -1915.7395     -1919.4544     -1919.7919      2.2541043     -5.8393507     -1.3017937      16409.283    
    170000   332.31944      0.085          0.19344781     0.19366083     0.19377391    -1910.955       781.4462       781.4462       781.4462       4.771965e+08   1.3293143     -44794040      -44794040       989.59055     -44793050      -1909.1815     -1911.2838     -1912.3998      2.6325595     -6.0654062     -1.3234736      16414.328    
    171000   331.92234      0.0855         0.19291827     0.1929369      0.19314185    -1904.7521      781.80631      781.80631      781.80631      4.7785652e+08  1.3274782     -44776041      -44776041       988.40804     -44775053      -1903.9553     -1904.1392     -1906.1618      3.4976294     -6.68367       -1.0072992      16551.598    
    172000   331.08855      0.086          0.19217893     0.19224635     0.192394      -1897.5879      782.16642      782.16642      782.16642      4.7851715e+08  1.3256456     -44758092      -44758092       985.92517     -44757106      -1896.6586     -1897.3239     -1898.7811      3.9040402     -6.7825069     -0.52558268     16427.624    
    173000   330.32845      0.0865         0.19115128     0.19149294     0.19142231    -1888.5321      782.52654      782.52654      782.52654      4.7917839e+08  1.3238162     -44740201      -44740201       983.66173     -44739217      -1886.5165     -1889.8884     -1889.1913      3.0067386     -6.2495946     -0.19810345     16599.115    
    174000   329.97382      0.087          0.19021651     0.19070456     0.19052721    -1879.9187      782.88665      782.88665      782.88665      4.7984024e+08  1.3219903     -44722373      -44722373       982.60568     -44721390      -1877.291      -1882.1077     -1880.3574      2.2434506     -5.80751       -0.31035687     16377.008    
    175000   329.66115      0.0875         0.18949655     0.18985249     0.18990786    -1872.7096      783.24676      783.24676      783.24676      4.805027e+08   1.3201677     -44704598      -44704598       981.6746      -44703616      -1870.1856     -1873.6984     -1874.2449      2.4681409     -5.8170998     -0.5474077      16420.307    
    176000   329.2229       0.088          0.18890168     0.18901455     0.18942553    -1866.4093      783.60688      783.60688      783.60688      4.8116576e+08  1.3183484     -44686862      -44686862       980.36959     -44685881      -1864.3146     -1865.4286     -1869.4846      3.1380048     -6.2949101     -0.70792123     16499.843    
    177000   328.68206      0.0885         0.18830646     0.18828919     0.18884613    -1860.1589      783.96699      783.96699      783.96699      4.8182944e+08  1.3165325     -44669168      -44669168       978.75906     -44668189      -1858.4403     -1858.2698     -1863.7664      3.1378432     -6.6488551     -0.90290016     16347.23     
    178000   328.39521      0.089          0.18766787     0.18762314     0.18803578    -1853.201       784.32711      784.32711      784.32711      4.8249373e+08  1.31472       -44651529      -44651529       977.90486     -44650551      -1852.1379     -1851.6964     -1855.7689      2.6898707     -6.3365128     -0.6193098      16544.941    
    179000   328.259        0.0895         0.18698933     0.1870112      0.18718206    -1846.1472      784.68722      784.68722      784.68722      4.8315862e+08  1.3129107     -44633948      -44633948       977.49924     -44632971      -1845.4412     -1845.657      -1847.3433      2.5487713     -5.2419163     -0.28749834     16411.983    
    180000   327.78394      0.09           0.18625365     0.18642639     0.18645175    -1839.4006      785.04733      785.04733      785.04733      4.8382413e+08  1.3111048     -44616410      -44616410       976.08459     -44615434      -1838.1806     -1839.8854     -1840.1357      2.6715039     -4.4437458     -0.66822666     16416.878    
    181000   327.16943      0.0905         0.18554585     0.18576835     0.1858283     -1832.8563      785.40745      785.40745      785.40745      4.8449025e+08  1.3093022     -44598909      -44598909       974.25471     -44597934      -1831.1951     -1833.391      -1833.9827      2.9760038     -4.4682729     -1.2138883      16579.998    
    182000   326.73         0.091          0.18492337     0.18503321     0.18531421    -1826.6989      785.76756      785.76756      785.76756      4.8515698e+08  1.3075028     -44581447      -44581447       972.94615     -44580474      -1825.0518     -1826.1358     -1828.909       2.8432685     -4.9526833     -1.3953788      16366.815    
    183000   326.38002      0.0915         0.1844281      0.18437358     0.18485433    -1821.3867      786.12767      786.12767      786.12767      4.8582432e+08  1.3057068     -44564021      -44564021       971.90397     -44563049      -1820.1639     -1819.6257     -1824.3704      2.572334      -5.3035482     -1.30452        16432.731    
    184000   326.13187      0.092          0.18397696     0.18381065     0.18431973    -1816.2919      786.48779      786.48779      786.48779      4.8649227e+08  1.3039141     -44546634      -44546634       971.16501     -44545663      -1815.7114     -1814.0701     -1819.0943      3.1327554     -5.5058749     -0.72785801     16423.319    
    185000   326.19537      0.0925         0.18331176     0.18324322     0.18362068    -1809.9372      786.8479       786.8479       786.8479       4.8716084e+08  1.3021246     -44529294      -44529294       971.3541      -44528323      -1809.1464     -1808.47       -1812.1952      4.0591591     -5.5961234     -0.18953772     16415.687    
    186000   326.20675      0.093          0.18252309     0.18266882     0.18285334    -1802.9287      787.20801      787.20801      787.20801      4.8783002e+08  1.3003385     -44512002      -44512002       971.388       -44511031      -1801.3629     -1802.801      -1804.6222      4.159774      -5.7183537      0.0069449048   16506.596    
    187000   325.74173      0.0935         0.18184769     0.18202795     0.18210098    -1796.1234      787.56813      787.56813      787.56813      4.884998e+08   1.2985556     -44494753      -44494753       970.00326     -44493783      -1794.6972     -1796.4762     -1797.1969      3.2349996     -5.7437518      0.17328671     16355.205    
    188000   325.13204      0.094          0.18134816     0.18136935     0.18148105    -1790.2741      787.92824      787.92824      787.92824      4.8917021e+08  1.2967759     -44477541      -44477541       968.1877      -44476573      -1789.7672     -1789.9763     -1791.0788      2.3913036     -4.9530741     -0.21883646     16415.331    
    189000   324.78693      0.0945         0.18093202     0.18081115     0.18107883    -1785.7455      788.28835      788.28835      788.28835      4.8984122e+08  1.2949995     -44460358      -44460358       967.16002     -44459391      -1785.6602     -1784.4673     -1787.1091      2.4304565     -3.8531171     -1.2102203      16506.328    
    190000   324.61662      0.095          0.18046306     0.18028788     0.18072449    -1781.3157      788.64847      788.64847      788.64847      4.9051285e+08  1.2932263     -44443205      -44443205       966.65285     -44442239      -1781.0319     -1779.3031     -1783.6121      2.8938658     -3.5778913     -1.678444       16371.548    
    191000   324.56123      0.0955         0.1798543      0.17973721     0.18018474    -1775.7258      789.00858      789.00858      789.00858      4.9118509e+08  1.2914564     -44426098      -44426098       966.48792     -44425132      -1775.0239     -1773.8684     -1778.2851      3.3095116     -4.3504887     -1.4480702      16554.158    
    192000   324.52725      0.096          0.179187       0.17916583     0.17948233    -1769.3401      789.36869      789.36869      789.36869      4.9185795e+08  1.2896897     -44409036      -44409036       966.38672     -44408070      -1768.4382     -1768.2292     -1771.3529      3.4052602     -5.0168965     -0.79198274     16407.454    
    193000   324.27816      0.0965         0.17862996     0.17853468     0.17881368    -1763.2316      789.72881      789.72881      789.72881      4.9253142e+08  1.2879262     -44392002      -44392002       965.645       -44391037      -1762.9407     -1762.0003     -1764.7538      3.0385007     -4.6181283     -0.50426614     16439.343    
    194000   324.18708      0.097          0.17817322     0.17791746     0.17825326    -1757.8549      790.08892      790.08892      790.08892      4.932055e+08   1.286166      -44374997      -44374997       965.37377     -44374031      -1758.433      -1755.9088     -1759.2229      2.4952396     -3.7452044     -0.68366502     16503.269    
    195000   324.52339      0.0975         0.17781154     0.17748682     0.17783126    -1753.8601      790.44903      790.44903      790.44903      4.938802e+08   1.2844089     -44358029      -44358029       966.37524     -44357062      -1754.8634     -1751.6587     -1755.0581      2.1723161     -3.6156906     -0.90251235     16367.84     
    196000   324.47143      0.098          0.17746222     0.17719472     0.17756808    -1750.8842      790.80915      790.80915      790.80915      4.9455552e+08  1.282655      -44341096      -44341096       966.2205      -44340130      -1751.4159     -1748.7759     -1752.4607      2.6133001     -4.0614189     -1.0248681      16554.994    
    197000   323.84783      0.0985         0.17694616     0.17676805     0.17719224    -1746.5464      791.16926      791.16926      791.16926      4.9523145e+08  1.2809044     -44324185      -44324185       964.36353     -44323220      -1746.3228     -1744.565      -1748.7514      3.3155224     -4.092519      -0.98248847     16429.828    
    198000   323.38462      0.099          0.17625143     0.17610505     0.17653311    -1739.9115      791.52937      791.52937      791.52937      4.9590799e+08  1.2791569     -44307298      -44307298       962.98418     -44306335      -1739.4663     -1738.0217     -1742.2464      3.4780836     -4.0598065     -0.78312037     16333.36     
    199000   323.32392      0.0995         0.17553353     0.17534999     0.17574099    -1732.4599      791.88949      791.88949      791.88949      4.9658516e+08  1.2774126     -44290454      -44290454       962.80343     -44289491      -1732.3813     -1730.5698     -1734.4287      3.2440416     -4.2767147     -0.70107327     16428.255    
    200000   323.33861      0.1            0.17491461     0.17474061     0.17507293    -1726.2214      792.2496       792.2496       792.2496       4.9726293e+08  1.2756715     -44273662      -44273662       962.84717     -44272699      -1726.273      -1724.5558     -1727.8355      3.6439047     -4.253912      -0.77580649     15937.662    
    201000   323.24564      0.1005         0.17455426     0.17443931     0.17469977    -1722.8171      792.60971      792.60971      792.60971      4.9794133e+08  1.2739335     -44256906      -44256906       962.57032     -44255943      -1722.7166     -1721.5821     -1724.1526      3.9464818     -3.9413768     -1.0127192      16566.786    
    202000   322.88815      0.101          0.17433297     0.17425014     0.17443749    -1720.604       792.96983      792.96983      792.96983      4.9862034e+08  1.2721987     -44240165      -44240165       961.50579     -44239204      -1720.5326     -1719.7152     -1721.5641      3.2052374     -3.579713      -1.5103989      16386.465    
    203000   322.78928      0.1015         0.17387696     0.17381943     0.17396754    -1716.1409      793.32994      793.32994      793.32994      4.9929997e+08  1.270467      -44223444      -44223444       961.21137     -44222482      -1716.0322     -1715.4644     -1716.9261      1.9018997     -3.3102776     -1.3015185      16413.684    
    204000   323.23371      0.102          0.17321153     0.17313709     0.17332938    -1709.6077      793.69006      793.69006      793.69006      4.9998021e+08  1.2687385     -44206759      -44206759       962.53478     -44205796      -1709.4649     -1708.7303     -1710.628       1.3271414     -3.3879392     -0.7383085      16513.239    
    205000   323.322        0.1025         0.17266494     0.17244828     0.17278114    -1703.74        794.05017      794.05017      794.05017      5.0066107e+08  1.2670131     -44190116      -44190116       962.79771     -44189154      -1704.0704     -1701.9322     -1705.2172      2.0441441     -3.6220965     -0.65482378     16428.18     
    206000   322.83666      0.103          0.1722509      0.17188922     0.17239679    -1699.2743      794.41028      794.41028      794.41028      5.0134255e+08  1.2652908     -44173503      -44173503       961.35243     -44172542      -1699.9842     -1696.4147     -1701.424       3.0294867     -3.2546916     -0.84311226     16483.629    
    207000   322.67176      0.1035         0.17176571     0.17144343     0.17203721    -1695.0287      794.7704       794.7704       794.7704       5.0202465e+08  1.2635717     -44156919      -44156919       960.8614      -44155958      -1695.1957     -1692.0151     -1697.8753      3.7044081     -2.8127837     -0.85245554     16285.534    
    208000   323.08113      0.104          0.17127236     0.17113591     0.17159769    -1690.9481      795.13051      795.13051      795.13051      5.0270737e+08  1.2618556     -44140367      -44140367       962.08044     -44139405      -1690.3267     -1688.9801     -1693.5375      3.7230857     -3.0293667     -1.1290453      16401.561    
    209000   323.2954       0.1045         0.17088147     0.17084837     0.17112825    -1687.172       795.49062      795.49062      795.49062      5.0339071e+08  1.2601427     -44123845      -44123845       962.71851     -44122883      -1686.469      -1686.1424     -1688.9046      2.7772167     -3.4812599     -1.6103933      16557.929    
    210000   323.03499      0.105          0.17051676     0.1703888      0.17063942    -1682.8521      795.85074      795.85074      795.85074      5.0407466e+08  1.2584329     -44107346      -44107346       961.94303     -44106384      -1682.8696     -1681.6067     -1684.0801      1.7500176     -3.4309727     -1.5560079      16347.007    
    211000   322.86446      0.1055         0.17014464     0.16976922     0.17008819    -1677.7763      796.21085      796.21085      796.21085      5.0475923e+08  1.2567262     -44090871      -44090871       961.43524     -44089910      -1679.1971     -1675.4919     -1678.6399      1.9527428     -3.2542975     -1.0473806      16365.581    
    212000   322.80349      0.106          0.16974598     0.16918242     0.16964742    -1673.0844      796.57096      796.57096      796.57096      5.0544443e+08  1.2550225     -44074425      -44074425       961.25366     -44073464      -1675.2626     -1669.7006     -1674.2899      2.8176813     -3.4999207     -0.51736191     16491.18     
    213000   322.50844      0.1065         0.1692847      0.16876664     0.16926748    -1668.9491      796.93108      796.93108      796.93108      5.0613024e+08  1.2533219     -44058006      -44058006       960.37506     -44057046      -1670.7101     -1665.5972     -1670.5401      3.3561749     -3.8366065     -0.51853288     16452.962    
    214000   322.26664      0.107          0.1687669      0.16838891     0.16883504    -1664.5805      797.29119      797.29119      797.29119      5.0681667e+08  1.2516244     -44041620      -44041620       959.65501     -44040660      -1665.5998     -1661.8694     -1666.2723      3.762679      -3.5405334     -0.66308003     16566.398    
    215000   322.21019      0.1075         0.16824893     0.16798486     0.1683257     -1659.8717      797.6513       797.6513       797.6513       5.0750373e+08  1.24993       -44025264      -44025264       959.48692     -44024305      -1660.4879     -1657.8816     -1661.2455      3.734018      -3.010471      -0.73602088     16414.407    
    216000   322.21732      0.108          0.1677168      0.16756838     0.16775538    -1654.8748      798.01142      798.01142      798.01142      5.081914e+08   1.2482386     -44008939      -44008939       959.50815     -44007979      -1655.2361     -1653.7713     -1655.6169      3.2623154     -2.6232626     -0.72153624     16371.775    
    217000   322.27133      0.1085         0.16722065     0.16711907     0.16725692    -1650.1246      798.37153      798.37153      798.37153      5.088797e+08   1.2465503     -43992644      -43992644       959.669       -43991684      -1650.3395     -1649.3369     -1650.6974      3.0605        -2.3768331     -1.3402572      16540.602    
[...]
   3041000   320.13586      1.5205         0.015237735    0.015093432    0.015126163   -149.54299      1815.3319      1815.3319      1815.3319      5.9822993e+09  0.10603684    -14483952      -14483952       953.30993     -14482999      -150.38475     -148.96059     -149.28363      0.61129798     0.47111902     0.49429709     16161.263    
   3042000   320.17853      1.521          0.015229436    0.015083831    0.015119793   -149.46315      1815.692       1815.692       1815.692       5.9858602e+09  0.10597376    -14476316      -14476316       953.43698     -14475362      -150.30284     -148.86584     -149.22076      0.6120087      0.46481338     0.50240212     16030.618    
   3043000   320.18013      1.5215         0.015219372    0.015071686    0.015110906   -149.36085      1816.0522      1816.0522      1816.0522      5.9894225e+09  0.10591073    -14468681      -14468681       953.44175     -14467728      -150.20353     -148.74597     -149.13305      0.6171331      0.45479761     0.52846856     16224.75     
   3044000   320.16733      1.522          0.015206782    0.015059631    0.015097365   -149.23523      1816.4123      1816.4123      1816.4123      5.9929862e+09  0.10584775    -14461049      -14461049       953.40364     -14460096      -150.07927     -148.627       -148.99941      0.62056762     0.4490859      0.55521622     16082.844    
   3045000   320.16125      1.5225         0.015194283    0.015051052    0.015082873   -149.11821      1816.7724      1816.7724      1816.7724      5.9965514e+09  0.10578482    -14453421      -14453421       953.38553     -14452468      -149.95592     -148.54233     -148.85639      0.61966648     0.45653653     0.57077318     16065.119    
   3046000   320.16055      1.523          0.015183543    0.015046234    0.015070053   -149.02485      1817.1325      1817.1325      1817.1325      6.0001179e+09  0.10572194    -14445796      -14445796       953.38344     -14444842      -149.84992     -148.49479     -148.72986      0.62576669     0.47637321     0.57014051     16190.296    
   3047000   320.14653      1.5235         0.015174939    0.015042063    0.015059339   -148.94758      1817.4926      1817.4926      1817.4926      6.0036859e+09  0.10565911    -14438171      -14438171       953.34169     -14437218      -149.76501     -148.45362     -148.62412      0.63118615     0.49555303     0.55676896     16024.172    
   3048000   320.10967      1.524          0.015166584    0.015034068    0.015049562   -148.86163      1817.8527      1817.8527      1817.8527      6.0072552e+09  0.10559633    -14430547      -14430547       953.23193     -14429594      -149.68254     -148.37472     -148.52763      0.62409205     0.4941234      0.53085426     16009.673    
   3049000   320.06668      1.5245         0.0151571      0.015021425    0.015039618   -148.75613      1818.2128      1818.2128      1818.2128      6.010826e+09   0.1055336     -14422925      -14422925       953.10391     -14421972      -149.58895     -148.24994     -148.42949      0.61388065     0.46628036     0.49501635     16153.98     
   3050000   320.03144      1.525          0.015146846    0.015007425    0.015028471   -148.63966      1818.5729      1818.5729      1818.5729      6.0143982e+09  0.10547092    -14415306      -14415306       952.99897     -14414353      -149.48774     -148.11177     -148.31948      0.60837035     0.43616508     0.46740009     15619.728    
   3051000   320.00704      1.5255         0.015137989    0.014995381    0.015016715   -148.53223      1818.9331      1818.9331      1818.9331      6.0179718e+09  0.10540829    -14407689      -14407689       952.92632     -14406737      -149.40033     -147.9929      -148.20346      0.59487271     0.43060147     0.46232953     16207.966    
   3052000   319.99582      1.526          0.015130117    0.014985173    0.015005836   -148.43697      1819.2932      1819.2932      1819.2932      6.0215469e+09  0.10534571    -14400075      -14400075       952.89291     -14399122      -149.32265     -147.89216     -148.09609      0.57231593     0.44837438     0.48206161     16075.59     
   3053000   320.00183      1.5265         0.015120634    0.01497475     0.014995432   -148.33725      1819.6533      1819.6533      1819.6533      6.0251233e+09  0.10528318    -14392463      -14392463       952.9108      -14391510      -149.22905     -147.7893      -147.99341      0.55766944     0.4596991      0.51736246     16103.921    
   3054000   320.03063      1.527          0.015108004    0.014963048    0.014985095   -148.2232       1820.0134      1820.0134      1820.0134      6.0287012e+09  0.1052207     -14384853      -14384853       952.99656     -14383900      -149.10441     -147.6738      -147.89139      0.54941588     0.45489066     0.54654936     16262.033    
   3055000   320.07923      1.5275         0.015092547    0.014951012    0.014975279   -148.10046      1820.3735      1820.3735      1820.3735      6.0322805e+09  0.10515826    -14377246      -14377246       953.14129     -14376293      -148.95185     -147.55502     -147.79452      0.54284899     0.43981269     0.55194444     16104.996    
   3056000   320.12295      1.528          0.015077303    0.014941203    0.014967304   -147.99181      1820.7336      1820.7336      1820.7336      6.0358612e+09  0.10509588    -14369643      -14369643       953.27148     -14368690      -148.80141     -147.45821     -147.71581      0.54252567     0.42054756     0.53882727     16147.352    
   3057000   320.13903      1.5285         0.015066446    0.014934163    0.014961649   -147.91433      1821.0937      1821.0937      1821.0937      6.0394433e+09  0.10503354    -14362042      -14362042       953.31936     -14361088      -148.69426     -147.38873     -147.66         0.54420362     0.41742925     0.52823021     16211.07     
   3058000   320.14099      1.529          0.015059865    0.014926791    0.014954954   -147.8464       1821.4539      1821.4539      1821.4539      6.0430268e+09  0.10497126    -14354441      -14354441       953.3252      -14353487      -148.62931     -147.31598     -147.59392      0.54423881     0.43626619     0.52591069     16038.402    
   3059000   320.16974      1.5295         0.015053293    0.014916946    0.014944625   -147.75841      1821.814       1821.814       1821.814       6.0466117e+09  0.10490902    -14346841      -14346841       953.4108      -14345887      -148.56445     -147.21881     -147.49198      0.54911794     0.4537091      0.53224152     16164.161    
   3060000   320.23365      1.53           0.015044842    0.014905967    0.014932147   -147.65345      1822.1741      1822.1741      1822.1741      6.0501981e+09  0.10484684    -14339243      -14339243       953.60114     -14338289      -148.48105     -147.11046     -147.36883      0.5637355      0.44502168     0.53671449     16024.054    
   3061000   320.29756      1.5305         0.015034003    0.014895907    0.014920363   -147.54593      1822.5342      1822.5342      1822.5342      6.0537859e+09  0.1047847     -14331648      -14331648       953.79145     -14330694      -148.37408     -147.01117     -147.25253      0.58583938     0.41656003     0.53305291     16033.587    
   3062000   320.33537      1.531          0.015021728    0.014886795    0.014911214   -147.44547      1822.8943      1822.8943      1822.8943      6.0573751e+09  0.10472261    -14324056      -14324056       953.90404     -14323102      -148.25293     -146.92124     -147.16225      0.60284234     0.39322127     0.5231529      16152.823    
   3063000   320.34573      1.5315         0.015010689    0.014877563    0.014904246   -147.35586      1823.2544      1823.2544      1823.2544      6.0609657e+09  0.10466057    -14316465      -14316465       953.93489     -14315511      -148.14398     -146.83013     -147.09347      0.60474846     0.39842098     0.52024769     16006.896    
   3064000   320.35486      1.532          0.015000535    0.0148673      0.014896672   -147.26378      1823.6145      1823.6145      1823.6145      6.0645578e+09  0.10459858    -14308876      -14308876       953.96207     -14307922      -148.04377     -146.72884     -147.01873      0.60236787     0.4307417      0.52803794     16166.418    
   3065000   320.37905      1.5325         0.014990057    0.014856228    0.014887261   -147.16192      1823.9747      1823.9747      1823.9747      6.0681512e+09  0.10453664    -14301290      -14301290       954.0341      -14300336      -147.94036     -146.61957     -146.92584      0.60756116     0.47624178     0.53220811     15978.521    
   3066000   320.38676      1.533          0.014979863    0.014846038    0.014875303   -147.05553      1824.3348      1824.3348      1824.3348      6.0717461e+09  0.10447475    -14293705      -14293705       954.05706     -14292751      -147.83976     -146.51901     -146.80783      0.61890284     0.51225798     0.52416278     15978.957    
   3067000   320.34635      1.5335         0.014968961    0.01483646     0.014861473   -146.94266      1824.6949      1824.6949      1824.6949      6.0753424e+09  0.1044129     -14286124      -14286124       953.93673     -14285170      -147.73216     -146.42447     -146.67134      0.6300098      0.52087451     0.5082164      16108.515    
   3068000   320.28232      1.534          0.014956901    0.014824529    0.014847806   -146.81877      1825.055       1825.055       1825.055       6.0789401e+09  0.10435111    -14278545      -14278545       953.74606     -14277591      -147.61313     -146.30673     -146.53646      0.64556618     0.50802134     0.49272024     15959.671    
   3069000   320.24836      1.5345         0.014945402    0.014810033    0.014834517   -146.68954      1825.4151      1825.4151      1825.4151      6.0825392e+09  0.10428936    -14270970      -14270970       953.64492     -14270017      -147.49965     -146.16366     -146.4053       0.65178499     0.49550363     0.48736883     15929.158    
   3070000   320.26329      1.535          0.014936567    0.014797648    0.014823683   -146.58409      1825.7752      1825.7752      1825.7752      6.0861398e+09  0.10422766    -14263399      -14263399       953.68938     -14262445      -147.41245     -146.04143     -146.29838      0.63589185     0.48934016     0.49169314     16108.524    
   3071000   320.29884      1.5355         0.014928377    0.014788815    0.014814988   -146.49949      1826.1353      1826.1353      1826.1353      6.0897418e+09  0.10416602    -14255829      -14255829       953.79526     -14254875      -147.33163     -145.95426     -146.21257      0.60595137     0.48492849     0.49522211     15966.385    
   3072000   320.34027      1.536          0.014916295    0.014780403    0.014805773   -146.40175      1826.4954      1826.4954      1826.4954      6.0933452e+09  0.10410441    -14248261      -14248261       953.91863     -14247307      -147.21238     -145.87124     -146.12162      0.58002472     0.47391761     0.49642794     16132.369    
   3073000   320.3816       1.5365         0.014902169    0.014770829    0.014795974   -146.29154      1826.8556      1826.8556      1826.8556      6.09695e+09    0.10404286    -14240696      -14240696       954.04168     -14239742      -147.07297     -145.77675     -146.02491      0.56411577     0.44738825     0.49718474     15944.793    
   3074000   320.40678      1.537          0.014891672    0.01476131     0.014786951   -146.19601      1827.2157      1827.2157      1827.2157      6.1005562e+09  0.10398136    -14233134      -14233134       954.11667     -14232179      -146.96938     -145.6828      -145.93586      0.5560911      0.41579344     0.50675012     15949.31     
   3075000   320.40952      1.5375         0.014884015    0.014753039    0.01477757    -146.11275      1827.5758      1827.5758      1827.5758      6.1041639e+09  0.10391991    -14225572      -14225572       954.12484     -14224618      -146.8938      -145.60117     -145.84328      0.56150551     0.40141854     0.53034225     16108.258    
   3076000   320.3929       1.538          0.014876686    0.014745922    0.014766354   -146.02833      1827.9359      1827.9359      1827.9359      6.107773e+09   0.1038585     -14218013      -14218013       954.07535     -14217059      -146.82148     -145.53094     -145.73258      0.58223425     0.41103635     0.55474465     15995.491    
   3077000   320.3569       1.5385         0.014867947    0.014736961    0.014754221   -145.93019      1828.296       1828.296       1828.296       6.1113835e+09  0.10379714    -14210454      -14210454       953.96813     -14209500      -146.73523     -145.4425      -145.61284      0.60789485     0.43839542     0.5538381      16006.376    
   3078000   320.31208      1.539          0.014857317    0.014725739    0.014742816   -145.82078      1828.6561      1828.6561      1828.6561      6.1149954e+09  0.10373583    -14202899      -14202899       953.83467     -14201945      -146.63032     -145.33174     -145.50028      0.62152115     0.47275811     0.52458456     16141.396    
   3079000   320.25768      1.5395         0.01484695     0.014714666    0.014734053   -145.72142      1829.0162      1829.0162      1829.0162      6.1186088e+09  0.10367457    -14195345      -14195345       953.67267     -14194392      -146.528       -145.22246     -145.4138       0.61129423     0.49385787     0.49072774     16053.233    
   3080000   320.19987      1.54           0.014839051    0.014704935    0.014728536   -145.64527      1829.3764      1829.3764      1829.3764      6.1222235e+09  0.10361336    -14187794      -14187794       953.50052     -14186840      -146.45004     -145.12642     -145.35935      0.59092867     0.487265       0.47561442     16150.27     
   3081000   320.1752       1.5405         0.014833073    0.014695493    0.014724405   -145.58096      1829.7365      1829.7365      1829.7365      6.1258397e+09  0.10355219    -14180243      -14180243       953.42706     -14179289      -146.39105     -145.03324     -145.31858      0.57889293     0.46472271     0.48693453     15982.317    
   3082000   320.20696      1.541          0.014826202    0.01468654     0.014718589   -145.50977      1830.0966      1830.0966      1830.0966      6.1294574e+09  0.10349108    -14172692      -14172692       953.52165     -14171739      -146.32323     -144.94488     -145.26118      0.5743095      0.44304376     0.50993167     15963.4      
   3083000   320.26082      1.5415         0.014818644    0.01467865     0.014710378   -145.43194      1830.4567      1830.4567      1830.4567      6.1330764e+09  0.10343001    -14165143      -14165143       953.68203     -14164189      -146.24865     -144.86701     -145.18014      0.57706185     0.43051782     0.52655066     16080.783    
   3084000   320.2906       1.542          0.01480926     0.014669486    0.014699503   -145.33514      1830.8168      1830.8168      1830.8168      6.1366969e+09  0.10336899    -14157594      -14157594       953.7707      -14156640      -146.15604     -144.77657     -145.07281      0.59187676     0.43147534     0.5381682      15972.183    
   3085000   320.29603      1.5425         0.014794994    0.014657307    0.014685867   -145.20328      1831.1769      1831.1769      1831.1769      6.1403188e+09  0.10330801    -14150049      -14150049       953.78688     -14149095      -146.01524     -144.65637     -144.93824      0.60426442     0.43852664     0.54293483     15986.526    
   3086000   320.27588      1.543          0.014779028    0.014645035    0.014671485   -145.06308      1831.537       1831.537       1831.537       6.1439421e+09  0.10324709    -14142508      -14142508       953.72687     -14141554      -145.85767     -144.53526     -144.79629      0.58682191     0.44824878     0.53734476     16158.863    
   3087000   320.22926      1.5435         0.014765063    0.014634299    0.014657425   -144.93556      1831.8971      1831.8971      1831.8971      6.1475668e+09  0.10318621    -14134972      -14134972       953.58804     -14134018      -145.71985     -144.4293      -144.65754      0.5520696      0.45893115     0.52519365     16020.471    
   3088000   320.15271      1.544          0.014754408    0.014624819    0.014644377   -144.82639      1832.2573      1832.2573      1832.2573      6.151193e+09   0.10312538    -14127438      -14127438       953.36011     -14126485      -145.61468     -144.33574     -144.52876      0.53267113     0.47250337     0.50060382     16210.298    
   3089000   320.0644       1.5445         0.014745654    0.014614888    0.014632402   -144.72553      1832.6174      1832.6174      1832.6174      6.1548206e+09  0.1030646     -14119907      -14119907       953.09714     -14118953      -145.52829     -144.23773     -144.41058      0.53275411     0.47540345     0.47024678     16091.809    
   3090000   319.996        1.545          0.014736894    0.014604099    0.01462182    -144.62641      1832.9775      1832.9775      1832.9775      6.1584496e+09  0.10300387    -14112377      -14112377       952.89343     -14111424      -145.44184     -144.13125     -144.30614      0.53520046     0.45729437     0.45423839     16086.378    
   3091000   319.96593      1.5455         0.014726089    0.014593314    0.014610137   -144.51695      1833.3376      1833.3376      1833.3376      6.1620801e+09  0.10294318    -14104850      -14104850       952.80391     -14103897      -145.33519     -144.02481     -144.19084      0.53337979     0.42954741     0.4545946      16239.3      
   3092000   319.97641      1.546          0.014713292    0.014582107    0.014596453   -144.39297      1833.6977      1833.6977      1833.6977      6.1657119e+09  0.10288254    -14097326      -14097326       952.83512     -14096373      -145.2089      -143.91421     -144.05579      0.53538213     0.41633041     0.45830217     16095.509    
   3093000   320.01634      1.5465         0.01470066     0.014569048    0.01458358    -144.2661       1834.0578      1834.0578      1834.0578      6.1693452e+09  0.10282195    -14089806      -14089806       952.95401     -14088853      -145.08423     -143.78533     -143.92875      0.54556697     0.42038956     0.46962769     16222.731    
   3094000   320.07276      1.547          0.014689525    0.014555724    0.014573315   -144.15187      1834.4179      1834.4179      1834.4179      6.17298e+09    0.10276141    -14082290      -14082290       953.12201     -14081337      -144.97434     -143.65383     -143.82743      0.54835621     0.42840023     0.5029213      16054.873    
   3095000   320.13251      1.5475         0.014679546    0.014544981    0.014565404   -144.05767      1834.7781      1834.7781      1834.7781      6.1766161e+09  0.10270092    -14074776      -14074776       953.29995     -14073823      -144.87585     -143.5478      -143.74936      0.53571178     0.43445836     0.54325887     16050.5      
   3096000   320.17988      1.548          0.014669576    0.014537816    0.014559131   -143.98066      1835.1382      1835.1382      1835.1382      6.1802537e+09  0.10264047    -14067264      -14067264       953.44101     -14066311      -144.77746     -143.47708     -143.68745      0.51297125     0.43738069     0.54473663     16170.695    
   3097000   320.22283      1.5485         0.014660161    0.014531       0.014552916   -143.90683      1835.4983      1835.4983      1835.4983      6.1838927e+09  0.10258007    -14059753      -14059753       953.56891     -14058799      -144.68454     -143.40982     -143.62612      0.50351256     0.42996066     0.50925684     16035.289    
   3098000   320.27227      1.549          0.014652304    0.014521487    0.014545435   -143.82507      1835.8584      1835.8584      1835.8584      6.1875332e+09  0.10251971    -14052243      -14052243       953.71612     -14051289      -144