LAMMPS (23 Jun 2022 - Update 1)
OMP_NUM_THREADS environment is not set. Defaulting to 1 thread. (src/comm.cpp:98)
  using 1 OpenMP thread(s) per MPI task

# Init #
dimension   3
boundary    p p p
units       real
atom_style  atomic

# Atom Definition #
read_data ${input_data}
read_data ./pgnpmf/55/dat55.dat
Reading data file ...
  orthogonal box = (-100 -100 -100) to (5100 5100 5100)
  1 by 1 by 1 MPI processor grid
  reading atoms ...
  1000 atoms
  read_data CPU = 0.011 seconds

# Settings #
pair_style table spline 9941

pair_coeff 1 1 ./pgnpmf/N20.txt DE_GNP 75.6
pair_coeff 2 2 ./pgnpmf/N100.txt DE_GNP 115.92
WARNING: 3 of 9941 force values in table DE_GNP are inconsistent with -dE/dr.
WARNING:  Should only be flagged at inflection points (src/pair_table.cpp:463)
pair_coeff 1 2 ./pgnpmf/mixed_potential.txt DE_GNP 95.66
WARNING: 1562 of 9941 force values in table DE_GNP are inconsistent with -dE/dr.
WARNING:  Should only be flagged at inflection points (src/pair_table.cpp:463)

# Neighbor list calc frequency #
neigh_modify delay 0 every 1 check yes

# Saving frequency #
variable ts_save equal floor(${steps_gen}*0.01)
variable ts_save equal floor(5000*0.01)

# Dump #
dump 1 all custom 5000 ./pgnpmf/${folder}/generation/trajectory/trajectory_${usic}_${trial}.gen.custom type x y z ix iy iz
dump 1 all custom 5000 ./pgnpmf/55/generation/trajectory/trajectory_${usic}_${trial}.gen.custom type x y z ix iy iz
dump 1 all custom 5000 ./pgnpmf/55/generation/trajectory/trajectory_1_${trial}.gen.custom type x y z ix iy iz
dump 1 all custom 5000 ./pgnpmf/55/generation/trajectory/trajectory_1_1.gen.custom type x y z ix iy iz
dump_modify 1 first no sort id
dump 2 all cfg 5000 ./pgnpmf/${folder}/generation/trajectory/dumpgen.tens_*.cfg mass type xs ys zs fx fy fz
dump 2 all cfg 5000 ./pgnpmf/55/generation/trajectory/dumpgen.tens_*.cfg mass type xs ys zs fx fy fz
dump_modify 2 element N20 N100

# Fix #
fix 1 all momentum 1000 linear 1 1 1 angular

variable T equal ${Temp}
variable T equal 300

# Velocity #
velocity all create ${T} ${Vseed} mom yes rot yes dist gaussian
velocity all create 300 ${Vseed} mom yes rot yes dist gaussian
velocity all create 300 57138 mom yes rot yes dist gaussian

fix 2 all nvt temp ${T} 370000 100.0 #iso 1.0 1.0 1000.0
fix 2 all nvt temp 300 370000 100.0 
run ${steps_gen}
run 5000
Generated 0 of 1 mixed pair_coeff terms from geometric mixing rule
Neighbor list info ...
  update every 1 steps, delay 0 steps, check yes
  max neighbors/atom: 2000, page size: 100000
  master list distance cutoff = 117.92
  ghost atom cutoff = 117.92
  binsize = 58.96, bins = 89 89 89
  1 neighbor lists, perpetual/occasional/extra = 1 0 0
  (1) pair table, perpetual
      attributes: half, newton on
      pair build: half/bin/atomonly/newton
      stencil: half/bin/3d
      bin: standard
Per MPI rank memory allocation (min/avg/max) = 8.912 | 8.912 | 8.912 Mbytes
   Step          Temp          E_pair         E_mol          TotEng         Press     
         0   300            0              0              893.34877      0.0002904316 
      5000   357464.86     -52235.515      0              1012233.8      0.33936829   
Loop time of 0.172428 on 1 procs for 5000 steps with 1000 atoms

Performance: 2505.399 ns/day, 0.010 hours/ns, 28997.670 timesteps/s
99.3% CPU use with 1 MPI tasks x 1 OpenMP threads

MPI task timing breakdown:
Section |  min time  |  avg time  |  max time  |%varavg| %total
---------------------------------------------------------------
Pair    | 0.023398   | 0.023398   | 0.023398   |   0.0 | 13.57
Neigh   | 0.0094156  | 0.0094156  | 0.0094156  |   0.0 |  5.46
Comm    | 0.0079287  | 0.0079287  | 0.0079287  |   0.0 |  4.60
Output  | 0.0064944  | 0.0064944  | 0.0064944  |   0.0 |  3.77
Modify  | 0.10403    | 0.10403    | 0.10403    |   0.0 | 60.33
Other   |            | 0.02116    |            |       | 12.27

Nlocal:           1000 ave        1000 max        1000 min
Histogram: 1 0 0 0 0 0 0 0 0 0
Nghost:             70 ave          70 max          70 min
Histogram: 1 0 0 0 0 0 0 0 0 0
Neighs:             12 ave          12 max          12 min
Histogram: 1 0 0 0 0 0 0 0 0 0

Total # of neighbors = 12
Ave neighs/atom = 0.012
Neighbor list builds = 13
Dangerous builds = 0

fix 3 all nvt temp 370000 370000 100.0
run 400000
Generated 0 of 1 mixed pair_coeff terms from geometric mixing rule
WARNING: One or more atoms are time integrated more than once (src/modify.cpp:292)
Per MPI rank memory allocation (min/avg/max) = 8.912 | 8.912 | 8.912 Mbytes
   Step          Temp          E_pair         E_mol          TotEng         Press     
      5000   357464.86     -52235.515      0              1012233.8      0.33936829   
    405000   366840.24     -110223.76      0              982163.83      0.3649283    
Loop time of 22.6958 on 1 procs for 400000 steps with 1000 atoms

Performance: 1522.748 ns/day, 0.016 hours/ns, 17624.401 timesteps/s
99.4% CPU use with 1 MPI tasks x 1 OpenMP threads

MPI task timing breakdown:
Section |  min time  |  avg time  |  max time  |%varavg| %total
---------------------------------------------------------------
Pair    | 2.1905     | 2.1905     | 2.1905     |   0.0 |  9.65
Neigh   | 3.907      | 3.907      | 3.907      |   0.0 | 17.21
Comm    | 0.9264     | 0.9264     | 0.9264     |   0.0 |  4.08
Output  | 0.48339    | 0.48339    | 0.48339    |   0.0 |  2.13
Modify  | 13.7       | 13.7       | 13.7       |   0.0 | 60.36
Other   |            | 1.488      |            |       |  6.56

Nlocal:           1000 ave        1000 max        1000 min
Histogram: 1 0 0 0 0 0 0 0 0 0
Nghost:            276 ave         276 max         276 min
Histogram: 1 0 0 0 0 0 0 0 0 0
Neighs:             31 ave          31 max          31 min
Histogram: 1 0 0 0 0 0 0 0 0 0

Total # of neighbors = 31
Ave neighs/atom = 0.031
Neighbor list builds = 5789
Dangerous builds = 0

fix 4 all nvt temp 370000 ${T} 100.0
fix 4 all nvt temp 370000 300 100.0
run ${steps_gen}
run 5000
Generated 0 of 1 mixed pair_coeff terms from geometric mixing rule
WARNING: One or more atoms are time integrated more than once (src/modify.cpp:292)
Per MPI rank memory allocation (min/avg/max) = 8.914 | 8.914 | 8.914 Mbytes
   Step          Temp          E_pair         E_mol          TotEng         Press     
    405000   366840.24     -110223.76      0              982163.83      0.3649283    
    410000   32941.437     -119966.79      0             -21872.811      0.046651279  
Loop time of 0.48524 on 1 procs for 5000 steps with 1000 atoms

Performance: 890.282 ns/day, 0.027 hours/ns, 10304.189 timesteps/s
99.9% CPU use with 1 MPI tasks x 1 OpenMP threads

MPI task timing breakdown:
Section |  min time  |  avg time  |  max time  |%varavg| %total
---------------------------------------------------------------
Pair    | 0.033809   | 0.033809   | 0.033809   |   0.0 |  6.97
Neigh   | 0.072236   | 0.072236   | 0.072236   |   0.0 | 14.89
Comm    | 0.016631   | 0.016631   | 0.016631   |   0.0 |  3.43
Output  | 0.0058277  | 0.0058277  | 0.0058277  |   0.0 |  1.20
Modify  | 0.33206    | 0.33206    | 0.33206    |   0.0 | 68.43
Other   |            | 0.02468    |            |       |  5.09

Nlocal:           1000 ave        1000 max        1000 min
Histogram: 1 0 0 0 0 0 0 0 0 0
Nghost:            282 ave         282 max         282 min
Histogram: 1 0 0 0 0 0 0 0 0 0
Neighs:             30 ave          30 max          30 min
Histogram: 1 0 0 0 0 0 0 0 0 0

Total # of neighbors = 30
Ave neighs/atom = 0.03
Neighbor list builds = 91
Dangerous builds = 0


# Thermo #
thermo_style custom step temp press pe ke etotal epair lx ly lz xlo xhi ylo yhi zlo zhi vol density dt time

# Run stle #
run_style verlet

# Run #
timestep ${ts}
timestep 1
thermo ${ts_save}
thermo 50
# run ${steps_gen}

# write restart #
write_restart ${write_restart}
write_restart ./pgnpmf/55/genpmf.res
System init for write_restart ...
Generated 0 of 1 mixed pair_coeff terms from geometric mixing rule
WARNING: One or more atoms are time integrated more than once (src/modify.cpp:292)


Total wall time: 0:00:23
