LAMMPS (23 Jun 2022 - Update 1)
OMP_NUM_THREADS environment is not set. Defaulting to 1 thread. (src/comm.cpp:98)
  using 1 OpenMP thread(s) per MPI task
# Read restart
read_restart ${read_res}
read_restart ./pgnpmf/trial2/55/equpmf71.res
Reading restart file ...
  restart file = 23 Jun 2022, LAMMPS = 23 Jun 2022
  restoring atom style atomic from restart
  orthogonal box = (2174.5523 2174.5523 2174.5523) to (2825.4477 2825.4477 2825.4477)
  1 by 2 by 2 MPI processor grid
  restoring pair style table from restart
  1000 atoms
  read_restart CPU = 0.013 seconds

# Settings

pair_style table spline 9941

pair_coeff 1 1 ./pgnpmf/N20.txt DE_GNP 75.6
pair_coeff 2 2 ./pgnpmf/N100.txt DE_GNP 115.92
WARNING: 3 of 9941 force values in table DE_GNP are inconsistent with -dE/dr.
WARNING:  Should only be flagged at inflection points (src/pair_table.cpp:463)
pair_coeff 1 2 ./pgnpmf/mixed_potential.txt DE_GNP 95.66
WARNING: 1562 of 9941 force values in table DE_GNP are inconsistent with -dE/dr.
WARNING:  Should only be flagged at inflection points (src/pair_table.cpp:463)

#Neigh_list Calc Frequency

neigh_modify delay 0 every 1 check yes

# computes
compute vor all voronoi/atom

# Saving Frequency (50 frames)
variable ts_save equal ${steps_equ}
variable ts_save equal 5000

# Dump
dump 1 all custom 100000 ./pgnpmf/${folder}/voronoi/voronoi_${usic}_${trial}.custom type x y z ix iy iz c_vor[1] c_vor[2]
dump 1 all custom 100000 ./pgnpmf/trial2/55/voronoi/voronoi_${usic}_${trial}.custom type x y z ix iy iz c_vor[1] c_vor[2]
dump 1 all custom 100000 ./pgnpmf/trial2/55/voronoi/voronoi_1_${trial}.custom type x y z ix iy iz c_vor[1] c_vor[2]
dump 1 all custom 100000 ./pgnpmf/trial2/55/voronoi/voronoi_1_1.custom type x y z ix iy iz c_vor[1] c_vor[2]
dump_modify 1 first no sort id
#dump 2 all cfg 50000 ./pgnpmf/${folder}/equilibration/trajectory/dumpgen.tens_*.cfg mass type xs ys zs fx fy fz
#dump_modify 2 element N20 N100

# thermo_style
thermo_style custom step temp press pe density ke etotal lx ly lz xlo xhi ylo yhi zlo zhi vol dt time cpu tpcpu spcpu cpuremain

# run info
timestep ${ts}
timestep 0.5
thermo 200

# fix

fix 1 all momentum 1000 linear 1 1 1 angular
variable T equal ${temp}
variable T equal 300
fix 2 all nvt temp ${T} ${T} 100.0
fix 2 all nvt temp 300 ${T} 100.0
fix 2 all nvt temp 300 300 100.0

run 100000
Generated 0 of 1 mixed pair_coeff terms from geometric mixing rule
Unused restart file global fix info:
  fix style: npt, fix ID: 5
Neighbor list info ...
  update every 1 steps, delay 0 steps, check yes
  max neighbors/atom: 2000, page size: 100000
  master list distance cutoff = 117.92
  ghost atom cutoff = 117.92
  binsize = 58.96, bins = 12 12 12
  1 neighbor lists, perpetual/occasional/extra = 1 0 0
  (1) pair table, perpetual
      attributes: half, newton on
      pair build: half/bin/atomonly/newton
      stencil: half/bin/3d
      bin: standard
Per MPI rank memory allocation (min/avg/max) = 3.102 | 3.102 | 3.103 Mbytes
   Step          Temp          Press          PotEng        Density         KinEng         TotEng           Lx             Ly             Lz            Xlo            Xhi            Ylo            Yhi            Zlo            Zhi           Volume           Dt            Time           CPU           T/CPU          S/CPU         CPULeft    
  50110000   303.93598      3.4419521     -33373927       1.9386759      905.06945     -33373022       650.89541      650.89541      650.89541      2174.5523      2825.4477      2174.5523      2825.4477      2174.5523      2825.4477      2.757615e+08   0.5            25260000       0              0              0              0            
  50110200   301.63671      3.5904158     -33373934       1.9386759      898.22262     -33373036       650.89541      650.89541      650.89541      2174.5523      2825.4477      2174.5523      2825.4477      2174.5523      2825.4477      2.757615e+08   0.5            25260100       0.014710428    6797.5111      13594.208      7.341793     
  50110400   288.76818      3.7443898     -33373942       1.9386759      859.90234     -33373082       650.89541      650.89541      650.89541      2174.5523      2825.4477      2174.5523      2825.4477      2174.5523      2825.4477      2.757615e+08   0.5            25260200       0.029034385    6981.4203      13962.907      7.2301059    
  50110600   288.07192      3.8234634     -33373950       1.9386759      857.82898     -33373092       650.89541      650.89541      650.89541      2174.5523      2825.4477      2174.5523      2825.4477      2174.5523      2825.4477      2.757615e+08   0.5            25260300       0.043328899    6995.679       13991.385      7.1785204    
  50110800   314.37256      3.8019775     -33373958       1.9386759      936.1478      -33373022       650.89541      650.89541      650.89541      2174.5523      2825.4477      2174.5523      2825.4477      2174.5523      2825.4477      2.757615e+08   0.5            25260400       0.057612673    7000.9641      14002.038      7.1442249    
  50111000   310.15252      3.6583795     -33373965       1.9386759      923.58126     -33373042       650.89541      650.89541      650.89541      2174.5523      2825.4477      2174.5523      2825.4477      2174.5523      2825.4477      2.757615e+08   0.5            25260500       0.071973976    6963.1894      13926.291      7.1256295    
  50111200   297.83395      3.6979355     -33372077       1.9386759      886.89865     -33371190       650.89541      650.89541      650.89541      2174.5523      2825.4477      2174.5523      2825.4477      2174.5523      2825.4477      2.757615e+08   0.5            25260600       0.086238015    7010.5746      14021.16       7.1004434    
  50111400   296.0661       3.5754995     -33372084       1.9386759      881.63428     -33371203       650.89541      650.89541      650.89541      2174.5523      2825.4477      2174.5523      2825.4477      2174.5523      2825.4477      2.757615e+08   0.5            25260700       0.10046219     7030.3223      14060.684      7.0755511    
  50111600   302.34568      3.4620337     -33372092       1.9386759      900.3338      -33371191       650.89541      650.89541      650.89541      2174.5523      2825.4477      2174.5523      2825.4477      2174.5523      2825.4477      2.757615e+08   0.5            25260800       0.11470186     7022.6258      14045.237      7.0542931    
  50111800   311.38751      3.3042935     -33372100       1.9386759      927.25883     -33371172       650.89541      650.89541      650.89541      2174.5523      2825.4477      2174.5523      2825.4477      2174.5523      2825.4477      2.757615e+08   0.5            25260900       0.12895309     7016.9825      14033.979      7.0352159    
  50112000   302.05847      3.0977989     -33372107       1.9386759      899.47855     -33371207       650.89541      650.89541      650.89541      2174.5523      2825.4477      2174.5523      2825.4477      2174.5523      2825.4477      2.757615e+08   0.5            25261000       0.14320213     7018.0373      14036.036      7.0170011    
  50112200   291.3044       2.9268518     -33372113       1.9386759      867.45475     -33371246       650.89541      650.89541      650.89541      2174.5523      2825.4477      2174.5523      2825.4477      2174.5523      2825.4477      2.757615e+08   0.5            25261100       0.15743775     7024.6341      14049.245      6.9989135    
  50112400   298.40183      2.8498094     -33372119       1.9386759      888.5897      -33371231       650.89541      650.89541      650.89541      2174.5523      2825.4477      2174.5523      2825.4477      2174.5523      2825.4477      2.757615e+08   0.5            25261200       0.17171795     7002.707       14005.396      6.983278     
  50112600   310.47275      2.8646322     -33372125       1.9386759      924.53482     -33371200       650.89541      650.89541      650.89541      2174.5523      2825.4477      2174.5523      2825.4477      2174.5523      2825.4477      2.757615e+08   0.5            25261300       0.18599426     7004.6239      14009.324      6.9677017    
  50112800   302.22134      2.9250287     -33372131       1.9386759      899.96354     -33371231       650.89541      650.89541      650.89541      2174.5523      2825.4477      2174.5523      2825.4477      2174.5523      2825.4477      2.757615e+08   0.5            25261400       0.20025612     7011.6934      14023.374      6.9518151    
  50113000   287.62537      3.0116447     -33372137       1.9386759      856.49925     -33371281       650.89541      650.89541      650.89541      2174.5523      2825.4477      2174.5523      2825.4477      2174.5523      2825.4477      2.757615e+08   0.5            25261500       0.21467927     6933.317       13866.547      6.9413616    
  50113200   298.87225      3.159439      -33372144       1.9386759      889.99052     -33371254       650.89541      650.89541      650.89541      2174.5523      2825.4477      2174.5523      2825.4477      2174.5523      2825.4477      2.757615e+08   0.5            25261600       0.22891517     7024.4821      14049.036      6.9247436    
  50113400   309.21506      3.3499014     -33372151       1.9386759      920.78966     -33371230       650.89541      650.89541      650.89541      2174.5523      2825.4477      2174.5523      2825.4477      2174.5523      2825.4477      2.757615e+08   0.5            25261700       0.24316426     7018.0029      14036.003      6.90878      
  50113600   301.84633      3.524642      -33372159       1.9386759      898.84683     -33371260       650.89541      650.89541      650.89541      2174.5523      2825.4477      2174.5523      2825.4477      2174.5523      2825.4477      2.757615e+08   0.5            25261800       0.25740394     7022.6218      14045.267      6.8927562    
  50113800   291.16905      3.5658002     -33372166       1.9386759      867.05171     -33371299       650.89541      650.89541      650.89541      2174.5523      2825.4477      2174.5523      2825.4477      2174.5523      2825.4477      2.757615e+08   0.5            25261900       0.27170362     6993.1366      13986.263      6.8784425    
  50114000   296.29023      3.5142755     -33372173       1.9386759      882.3017      -33371291       650.89541      650.89541      650.89541      2174.5523      2825.4477      2174.5523      2825.4477      2174.5523      2825.4477      2.757615e+08   0.5            25262000       0.28598974     6999.8282      13999.634      6.8638014    
  50114200   302.80708      3.5116023     -33372179       1.9386759      901.70777     -33371277       650.89541      650.89541      650.89541      2174.5523      2825.4477      2174.5523      2825.4477      2174.5523      2825.4477      2.757615e+08   0.5            25262100       0.30023255     7021.0884      14042.166      6.8482059    
  50114400   303.64448      3.5538918     -33372185       1.9386759      904.20142     -33371281       650.89541      650.89541      650.89541      2174.5523      2825.4477      2174.5523      2825.4477      2174.5523      2825.4477      2.757615e+08   0.5            25262200       0.31446744     7025.0042      14050.048      6.8325605    
  50114600   291.90449      3.5786439     -33372191       1.9386759      869.24173     -33371322       650.89541      650.89541      650.89541      2174.5523      2825.4477      2174.5523      2825.4477      2174.5523      2825.4477      2.757615e+08   0.5            25262300       0.32875329     6999.933       13999.82       6.8180993    
  50114800   286.40554      3.5655284     -33372197       1.9386759      852.86678     -33371344       650.89541      650.89541      650.89541      2174.5523      2825.4477      2174.5523      2825.4477      2174.5523      2825.4477      2.757615e+08   0.5            25262400       0.34300864     7014.8743      14029.806      6.8030439    
  50115000   307.86331      3.511404      -33372204       1.9386759      916.76438     -33371287       650.89541      650.89541      650.89541      2174.5523      2825.4477      2174.5523      2825.4477      2174.5523      2825.4477      2.757615e+08   0.5            25262500       0.35727356     7010.2414      14020.5        6.7882349    
  50115200   311.66435      3.3599964     -33372210       1.9386759      928.08321     -33371281       650.89541      650.89541      650.89541      2174.5523      2825.4477      2174.5523      2825.4477      2174.5523      2825.4477      2.757615e+08   0.5            25262600       0.37153942     7009.7264      14019.431      6.7734844    
  50115400   300.95487      3.1241534     -33372215       1.9386759      896.19222     -33371319       650.89541      650.89541      650.89541      2174.5523      2825.4477      2174.5523      2825.4477      2174.5523      2825.4477      2.757615e+08   0.5            25262700       0.3858125      7006.1752      14012.365      6.758897     
  50115600   295.26841      2.8944208     -33372221       1.9386759      879.25891     -33371342       650.89541      650.89541      650.89541      2174.5523      2825.4477      2174.5523      2825.4477      2174.5523      2825.4477      2.757615e+08   0.5            25262800       0.40004988     7023.7765      14047.509      6.7437304    
  50115800   298.91178      2.7139293     -33372226       1.9386759      890.10824     -33371336       650.89541      650.89541      650.89541      2174.5523      2825.4477      2174.5523      2825.4477      2174.5523      2825.4477      2.757615e+08   0.5            25262900       0.41428502     7024.8754      14049.761      6.7285914    
  50116000   312.1193       2.6194139     -33372231       1.9386759      929.43799     -33371302       650.89541      650.89541      650.89541      2174.5523      2825.4477      2174.5523      2825.4477      2174.5523      2825.4477      2.757615e+08   0.5            25263000       0.42853507     7017.5315      14035.075      6.7137464    
  50116200   315.65376      2.820829      -33371867       1.9386759      939.963       -33370927       650.89541      650.89541      650.89541      2174.5523      2825.4477      2174.5523      2825.4477      2174.5523      2825.4477      2.757615e+08   0.5            25263100       0.44278289     7018.6122      14037.224      6.6989057    
  50116400   295.36144      2.8646796     -33372239       1.9386759      879.53592     -33371360       650.89541      650.89541      650.89541      2174.5523      2825.4477      2174.5523      2825.4477      2174.5523      2825.4477      2.757615e+08   0.5            25263200       0.45701737     7025.1883      14050.342      6.6839076    
  50116600   295.11632      3.1023019     -33372243       1.9386759      878.806       -33371364       650.89541      650.89541      650.89541      2174.5523      2825.4477      2174.5523      2825.4477      2174.5523      2825.4477      2.757615e+08   0.5            25263300       0.4712951      7003.8865      14007.819      6.6695672    
  50116800   304.13166      3.1177246     -33372615       1.9386759      905.65214     -33371709       650.89541      650.89541      650.89541      2174.5523      2825.4477      2174.5523      2825.4477      2174.5523      2825.4477      2.757615e+08   0.5            25263400       0.48556748     7006.5497      14013.11       6.655158     
  50117000   308.45434      3.1787943     -33372617       1.9386759      918.52436     -33371699       650.89541      650.89541      650.89541      2174.5523      2825.4477      2174.5523      2825.4477      2174.5523      2825.4477      2.757615e+08   0.5            25263500       0.49982564     7013.5572      14027.134      6.6405655    
  50117200   291.75722      3.1833164     -33372619       1.9386759      868.80317     -33371750       650.89541      650.89541      650.89541      2174.5523      2825.4477      2174.5523      2825.4477      2174.5523      2825.4477      2.757615e+08   0.5            25263600       0.51409964     7005.73        14011.344      6.6261987    
  50117400   287.65416      3.1935601     -33372620       1.9386759      856.58498     -33371764       650.89541      650.89541      650.89541      2174.5523      2825.4477      2174.5523      2825.4477      2174.5523      2825.4477      2.757615e+08   0.5            25263700       0.52838984     6997.8061      13995.661      6.6120385    
  50117600   301.52321      3.4003074     -33372254       1.9386759      897.88464     -33371356       650.89541      650.89541      650.89541      2174.5523      2825.4477      2174.5523      2825.4477      2174.5523      2825.4477      2.757615e+08   0.5            25263800       0.54268799     6993.924       13987.848      6.5979672    
  50117800   305.443        3.6281928     -33371889       1.9386759      909.55708     -33370979       650.89541      650.89541      650.89541      2174.5523      2825.4477      2174.5523      2825.4477      2174.5523      2825.4477      2.757615e+08   0.5            25263900       0.55693629     7018.3742      14036.76       6.5832959    
  50118000   300.675        3.600154      -33372261       1.9386759      895.35881     -33371365       650.89541      650.89541      650.89541      2174.5523      2825.4477      2174.5523      2825.4477      2174.5523      2825.4477      2.757615e+08   0.5            25264000       0.57121942     7001.2783      14002.6        6.5690457    
  50118200   296.79918      3.765466      -33372265       1.9386759      883.81726     -33371382       650.89541      650.89541      650.89541      2174.5523      2825.4477      2174.5523      2825.4477      2174.5523      2825.4477      2.757615e+08   0.5            25264100       0.58548478     7009.9667      14019.907      6.554595     
  50118400   298.2664       3.8784656     -33372272       1.9386759      888.1864      -33371383       650.89541      650.89541      650.89541      2174.5523      2825.4477      2174.5523      2825.4477      2174.5523      2825.4477      2.757615e+08   0.5            25264200       0.59974331     7013.328       14026.581      6.5400804    
  50118600   307.78117      3.8355525     -33372279       1.9386759      916.51978     -33371362       650.89541      650.89541      650.89541      2174.5523      2825.4477      2174.5523      2825.4477      2174.5523      2825.4477      2.757615e+08   0.5            25264300       0.61399305     7017.6857      14035.39       6.5254822    
  50118800   307.03022      3.6147955     -33372285       1.9386759      914.28356     -33371371       650.89541      650.89541      650.89541      2174.5523      2825.4477      2174.5523      2825.4477      2174.5523      2825.4477      2.757615e+08   0.5            25264400       0.62825865     7009.8891      14019.846      6.5110636    
  50119000   293.83996      3.8027924     -33364914       1.9386759      875.00523     -33364039       650.89541      650.89541      650.89541      2174.5523      2825.4477      2174.5523      2825.4477      2174.5523      2825.4477      2.757615e+08   0.5            25264500       0.64254805     6998.1891      13996.351      6.4968946    
  50119200   293.73167      3.5870984     -33364919       1.9386759      874.68275     -33364044       650.89541      650.89541      650.89541      2174.5523      2825.4477      2174.5523      2825.4477      2174.5523      2825.4477      2.757615e+08   0.5            25264600       0.65683633     6998.745       13997.462      6.482709     
  50119400   307.17423      3.506589      -33364925       1.9386759      914.71241     -33364010       650.89541      650.89541      650.89541      2174.5523      2825.4477      2174.5523      2825.4477      2174.5523      2825.4477      2.757615e+08   0.5            25264700       0.67112577     6998.1734      13996.403      6.4685286    
  50119600   314.61693      3.490472      -33364930       1.9386759      936.87551     -33363993       650.89541      650.89541      650.89541      2174.5523      2825.4477      2174.5523      2825.4477      2174.5523      2825.4477      2.757615e+08   0.5            25264800       0.68563617     6891.5461      13783.02       6.4564282    
  50119800   291.89748      3.5244261     -33364935       1.9386759      869.22086     -33364066       650.89541      650.89541      650.89541      2174.5523      2825.4477      2174.5523      2825.4477      2174.5523      2825.4477      2.757615e+08   0.5            25264900       0.69988605     7017.6295      14035.269      6.4418276    
  50120000   293.18449      3.6593636     -33364941       1.9386759      873.05335     -33364068       650.89541      650.89541      650.89541      2174.5523      2825.4477      2174.5523      2825.4477      2174.5523      2825.4477      2.757615e+08   0.5            25265000       0.71413691     7017.1489      14034.321      6.4272502    
  50120200   306.55807      3.8151403     -33364949       1.9386759      912.8776      -33364036       650.89541      650.89541      650.89541      2174.5523      2825.4477      2174.5523      2825.4477      2174.5523      2825.4477      2.757615e+08   0.5            25265100       0.72837312     7024.3493      14048.731      6.4125566    
  50120400   308.8186       3.8542964     -33364958       1.9386759      919.60907     -33364038       650.89541      650.89541      650.89541      2174.5523      2825.4477      2174.5523      2825.4477      2174.5523      2825.4477      2.757615e+08   0.5            25265200       0.74263693     7010.7584      14021.495      6.3981194    
  50120600   292.88294      3.7884509     -33364967       1.9386759      872.15537     -33364095       650.89541      650.89541      650.89541      2174.5523      2825.4477      2174.5523      2825.4477      2174.5523      2825.4477      2.757615e+08   0.5            25265300       0.75689752     7012.3232      14024.668      6.383661     
  50120800   294.78496      3.8199718     -33364976       1.9386759      877.81928     -33364099       650.89541      650.89541      650.89541      2174.5523      2825.4477      2174.5523      2825.4477      2174.5523      2825.4477      2.757615e+08   0.5            25265400       0.77118623     6998.526       13996.984      6.3694441    
  50121000   302.97404      4.0551927     -33364986       1.9386759      902.20496     -33364083       650.89541      650.89541      650.89541      2174.5523      2825.4477      2174.5523      2825.4477      2174.5523      2825.4477      2.757615e+08   0.5            25265500       0.78550442     6984.1142      13968.281      6.3554608    
  50121200   304.61706      4.4551543     -33364994       1.9386759      907.09759     -33364087       650.89541      650.89541      650.89541      2174.5523      2825.4477      2174.5523      2825.4477      2174.5523      2825.4477      2.757615e+08   0.5            25265600       0.79978027     7004.8442      14009.691      6.34113      
  50121400   289.80073      4.8920017     -33365002       1.9386759      862.97709     -33364139       650.89541      650.89541      650.89541      2174.5523      2825.4477      2174.5523      2825.4477      2174.5523      2825.4477      2.757615e+08   0.5            25265700       0.8140619      7001.9881      14003.999      6.3268469    
  50121600   286.2065       5.3053715     -33365009       1.9386759      852.27409     -33364157       650.89541      650.89541      650.89541      2174.5523      2825.4477      2174.5523      2825.4477      2174.5523      2825.4477      2.757615e+08   0.5            25265800       0.82834267     7002.4554      14004.911      6.3125566    
  50121800   299.25952      5.678249      -33365016       1.9386759      891.14374     -33364125       650.89541      650.89541      650.89541      2174.5523      2825.4477      2174.5523      2825.4477      2174.5523      2825.4477      2.757615e+08   0.5            25265900       0.84260107     7013.3865      14026.722      6.2981007    
  50122000   303.84197      5.9542102     -33365023       1.9386759      904.78949     -33364119       650.89541      650.89541      650.89541      2174.5523      2825.4477      2174.5523      2825.4477      2174.5523      2825.4477      2.757615e+08   0.5            25266000       0.85687611     7005.2544      14010.557      6.2837718    
  50122200   301.16442      6.1242083     -33365032       1.9386759      896.8162      -33364135       650.89541      650.89541      650.89541      2174.5523      2825.4477      2174.5523      2825.4477      2174.5523      2825.4477      2.757615e+08   0.5            25266100       0.87219611     6527.4088      13054.78       6.2769665    
  50122400   293.32736      6.1298037     -33365041       1.9386759      873.4788      -33364168       650.89541      650.89541      650.89541      2174.5523      2825.4477      2174.5523      2825.4477      2174.5523      2825.4477      2.757615e+08   0.5            25266200       0.88649057     6995.7011      13991.436      6.2626409    
  50122600   290.13101      6.02893       -33365050       1.9386759      863.96061     -33364186       650.89541      650.89541      650.89541      2174.5523      2825.4477      2174.5523      2825.4477      2174.5523      2825.4477      2.757615e+08   0.5            25266300       0.90073771     7018.9762      14037.945      6.2479876    
  50122800   305.14993      5.9339263     -33365059       1.9386759      908.68438     -33364151       650.89541      650.89541      650.89541      2174.5523      2825.4477      2174.5523      2825.4477      2174.5523      2825.4477      2.757615e+08   0.5            25266400       0.91534945     6843.81        13687.529      6.2358321    
  50123000   315.3417       5.8023748     -33365069       1.9386759      939.03372     -33364130       650.89541      650.89541      650.89541      2174.5523      2825.4477      2174.5523      2825.4477      2174.5523      2825.4477      2.757615e+08   0.5            25266500       0.92960101     7016.7634      14033.606      6.2211891    
  50123200   300.42089      5.5963038     -33365078       1.9386759      894.60211     -33364184       650.89541      650.89541      650.89541      2174.5523      2825.4477      2174.5523      2825.4477      2174.5523      2825.4477      2.757615e+08   0.5            25266600       0.94383155     7027.1575      14054.365      6.2064198    
  50123400   296.68264      5.4070855     -33365087       1.9386759      883.47025     -33364204       650.89541      650.89541      650.89541      2174.5523      2825.4477      2174.5523      2825.4477      2174.5523      2825.4477      2.757615e+08   0.5            25266700       0.95805519     7030.5388      14061.032      6.1916227    
  50123600   300.80274      5.2927288     -33365095       1.9386759      895.7392      -33364200       650.89541      650.89541      650.89541      2174.5523      2825.4477      2174.5523      2825.4477      2174.5523      2825.4477      2.757615e+08   0.5            25266800       0.97238423     6978.8409      13957.696      6.1775121    
  50123800   304.24194      5.5238121     -33363208       1.9386759      905.98054     -33362302       650.89541      650.89541      650.89541      2174.5523      2825.4477      2174.5523      2825.4477      2174.5523      2825.4477      2.757615e+08   0.5            25266900       0.98663467     7017.3267      14034.671      6.1629035    
  50124000   294.7802       5.6583379     -33363216       1.9386759      877.80509     -33362338       650.89541      650.89541      650.89541      2174.5523      2825.4477      2174.5523      2825.4477      2174.5523      2825.4477      2.757615e+08   0.5            25267000       1.0008572      7031.082       14062.098      6.1481351    
  50124200   288.93586      5.7914909     -33363223       1.9386759      860.40165     -33362363       650.89541      650.89541      650.89541      2174.5523      2825.4477      2174.5523      2825.4477      2174.5523      2825.4477      2.757615e+08   0.5            25267100       1.0150533      7044.1907      14088.462      6.1332209    
  50124400   303.48394      5.8823913     -33363231       1.9386759      903.72334     -33362327       650.89541      650.89541      650.89541      2174.5523      2825.4477      2174.5523      2825.4477      2174.5523      2825.4477      2.757615e+08   0.5            25267200       1.029242       7047.8556      14095.684      6.1182834    
  50124600   313.15281      5.9057383     -33363239       1.9386759      932.51561     -33362306       650.89541      650.89541      650.89541      2174.5523      2825.4477      2174.5523      2825.4477      2174.5523      2825.4477      2.757615e+08   0.5            25267300       1.0434293      7048.6221      14097.238      6.1033574    
  50124800   301.7845       5.8614389     -33363246       1.9386759      898.66271     -33362347       650.89541      650.89541      650.89541      2174.5523      2825.4477      2174.5523      2825.4477      2174.5523      2825.4477      2.757615e+08   0.5            25267400       1.0578772      6921.3718      13842.694      6.0899536    
  50125000   299.37019      5.8640529     -33363252       1.9386759      891.4733      -33362361       650.89541      650.89541      650.89541      2174.5523      2825.4477      2174.5523      2825.4477      2174.5523      2825.4477      2.757615e+08   0.5            25267500       1.0721058      7028.1132      14056.217      6.0752775    
  50125200   300.84067      5.8716564     -33363259       1.9386759      895.85214     -33362363       650.89541      650.89541      650.89541      2174.5523      2825.4477      2174.5523      2825.4477      2174.5523      2825.4477      2.757615e+08   0.5            25267600       1.0863362      7027.2098      14054.472      6.060623     
  50125400   300.14882      5.7543025     -33363266       1.9386759      893.79192     -33362372       650.89541      650.89541      650.89541      2174.5523      2825.4477      2174.5523      2825.4477      2174.5523      2825.4477      2.757615e+08   0.5            25267700       1.1005237      7048.4765      14096.954      6.0457441    
  50125600   294.71467      5.4944291     -33363273       1.9386759      877.60995     -33362395       650.89541      650.89541      650.89541      2174.5523      2825.4477      2174.5523      2825.4477      2174.5523      2825.4477      2.757615e+08   0.5            25267800       1.1147064      7050.8471      14101.695      6.0308574    
  50125800   291.33157      5.193146      -33363279       1.9386759      867.53567     -33362411       650.89541      650.89541      650.89541      2174.5523      2825.4477      2174.5523      2825.4477      2174.5523      2825.4477      2.757615e+08   0.5            25267900       1.1289003      7045.2626      14090.55       6.0160482    
  50126000   303.80269      4.9356707     -33363285       1.9386759      904.67254     -33362381       650.89541      650.89541      650.89541      2174.5523      2825.4477      2174.5523      2825.4477      2174.5523      2825.4477      2.757615e+08   0.5            25268000       1.1431049      7039.9868      14079.959      6.0013104    
  50126200   314.76665      4.6176427     -33363292       1.9386759      937.32134     -33362355       650.89541      650.89541      650.89541      2174.5523      2825.4477      2174.5523      2825.4477      2174.5523      2825.4477      2.757615e+08   0.5            25268100       1.1573129      7038.3036      14076.614      5.9866033    
  50126400   299.37914      4.2325201     -33363298       1.9386759      891.49995     -33362407       650.89541      650.89541      650.89541      2174.5523      2825.4477      2174.5523      2825.4477      2174.5523      2825.4477      2.757615e+08   0.5            25268200       1.1715505      7023.6453      14047.292      5.9720595    
  50126600   295.33188      3.9594977     -33363304       1.9386759      879.44791     -33362424       650.89541      650.89541      650.89541      2174.5523      2825.4477      2174.5523      2825.4477      2174.5523      2825.4477      2.757615e+08   0.5            25268300       1.1857987      7018.423       14036.811      5.9575763    
  50126800   300.99518      3.8105565     -33363309       1.9386759      896.31225     -33362413       650.89541      650.89541      650.89541      2174.5523      2825.4477      2174.5523      2825.4477      2174.5523      2825.4477      2.757615e+08   0.5            25268400       1.2000274      7028.0188      14056.069      5.9430024    
  50127000   305.39918      3.7689692     -33363314       1.9386759      909.42662     -33362405       650.89541      650.89541      650.89541      2174.5523      2825.4477      2174.5523      2825.4477      2174.5523      2825.4477      2.757615e+08   0.5            25268500       1.2142689      7021.7855      14043.542      5.9284983    
  50127200   296.19434      3.8073245     -33363320       1.9386759      882.01617     -33362438       650.89541      650.89541      650.89541      2174.5523      2825.4477      2174.5523      2825.4477      2174.5523      2825.4477      2.757615e+08   0.5            25268600       1.2284848      7034.3636      14068.74       5.9138776    
  50127400   286.40234      3.7785352     -33363326       1.9386759      852.85725     -33362473       650.89541      650.89541      650.89541      2174.5523      2825.4477      2174.5523      2825.4477      2174.5523      2825.4477      2.757615e+08   0.5            25268700       1.2426798      7044.7301      14089.454      5.899167     
  50127600   300.20683      3.1236577     -33370710       1.9386759      893.96466     -33369816       650.89541      650.89541      650.89541      2174.5523      2825.4477      2174.5523      2825.4477      2174.5523      2825.4477      2.757615e+08   0.5            25268800       1.2568583      7052.9412      14105.922      5.8843906    
  50127800   309.20594      2.8857608     -33370715       1.9386759      920.76248     -33369794       650.89541      650.89541      650.89541      2174.5523      2825.4477      2174.5523      2825.4477      2174.5523      2825.4477      2.757615e+08   0.5            25268900       1.2710925      7025.3062      14050.624      5.869885     
  50128000   303.78796      2.6320147     -33370720       1.9386759      904.62866     -33369815       650.89541      650.89541      650.89541      2174.5523      2825.4477      2174.5523      2825.4477      2174.5523      2825.4477      2.757615e+08   0.5            25269000       1.2853379      7019.8237      14039.652      5.8554364    
  50128200   298.29144      2.4700283     -33370724       1.9386759      888.26096     -33369836       650.89541      650.89541      650.89541      2174.5523      2825.4477      2174.5523      2825.4477      2174.5523      2825.4477      2.757615e+08   0.5            25269100       1.2995433      7039.5468      14079.069      5.8408131    
  50128400   297.47457      2.4850897     -33370728       1.9386759      885.82848     -33369842       650.89541      650.89541      650.89541      2174.5523      2825.4477      2174.5523      2825.4477      2174.5523      2825.4477      2.757615e+08   0.5            25269200       1.3137491      7039.4001      14078.791      5.8261998    
  50128600   303.33967      2.6515881     -33370732       1.9386759      903.29374     -33369829       650.89541      650.89541      650.89541      2174.5523      2825.4477      2174.5523      2825.4477      2174.5523      2825.4477      2.757615e+08   0.5            25269300       1.3279838      7025.0698      14050.146      5.8117224    
  50128800   315.71036      3.0951706     -33368841       1.9386759      940.13153     -33367901       650.89541      650.89541      650.89541      2174.5523      2825.4477      2174.5523      2825.4477      2174.5523      2825.4477      2.757615e+08   0.5            25269400       1.3421814      7043.4752      14086.931      5.7970893    
  50129000   303.0781       3.2798724     -33368845       1.9386759      902.51482     -33367942       650.89541      650.89541      650.89541      2174.5523      2825.4477      2174.5523      2825.4477      2174.5523      2825.4477      2.757615e+08   0.5            25269500       1.3564086      7028.7875      14057.576      5.782592     
  50129200   292.80987      3.3510479     -33368848       1.9386759      871.93778     -33367976       650.89541      650.89541      650.89541      2174.5523      2825.4477      2174.5523      2825.4477      2174.5523      2825.4477      2.757615e+08   0.5            25269600       1.370649       7022.2594      14044.543      5.7681555    
  50129400   298.47433      3.4053761     -33368851       1.9386759      888.80559     -33367962       650.89541      650.89541      650.89541      2174.5523      2825.4477      2174.5523      2825.4477      2174.5523      2825.4477      2.757615e+08   0.5            25269700       1.3848933      7020.3525      14040.709      5.7537395    
  50129600   308.69626      3.525419      -33368855       1.9386759      919.24475     -33367935       650.89541      650.89541      650.89541      2174.5523      2825.4477      2174.5523      2825.4477      2174.5523      2825.4477      2.757615e+08   0.5            25269800       1.3991011      7038.3993      14076.789      5.7391774    
  50129800   304.53258      3.6616097     -33368858       1.9386759      906.84603     -33367951       650.89541      650.89541      650.89541      2174.5523      2825.4477      2174.5523      2825.4477      2174.5523      2825.4477      2.757615e+08   0.5            25269900       1.4135384      6926.4573      13852.85       5.7255531    
  50130000   286.74527      3.7550937     -33368861       1.9386759      853.87846     -33368007       650.89541      650.89541      650.89541      2174.5523      2825.4477      2174.5523      2825.4477      2174.5523      2825.4477      2.757615e+08   0.5            25270000       1.4277684      7027.476       14054.921      5.7110813    
  50130200   295.48834      3.9915046     -33366970       1.9386759      879.91383     -33366090       650.89541      650.89541      650.89541      2174.5523      2825.4477      2174.5523      2825.4477      2174.5523      2825.4477      2.757615e+08   0.5            25270100       1.4419739      7039.5205      14079.111      5.6965181    
  50130400   307.84794      3.9229184     -33366974       1.9386759      916.71859     -33366057       650.89541      650.89541      650.89541      2174.5523      2825.4477      2174.5523      2825.4477      2174.5523      2825.4477      2.757615e+08   0.5            25270200       1.4561601      7049.0832      14098.166      5.6818869    
  50130600   304.50638      3.7840908     -33366978       1.9386759      906.76799     -33366071       650.89541      650.89541      650.89541      2174.5523      2825.4477      2174.5523      2825.4477      2174.5523      2825.4477      2.757615e+08   0.5            25270300       1.4703988      7023.1293      14046.272      5.6674666    
  50130800   296.51347      3.6726084     -33366983       1.9386759      882.96648     -33366100       650.89541      650.89541      650.89541      2174.5523      2825.4477      2174.5523      2825.4477      2174.5523      2825.4477      2.757615e+08   0.5            25270400       1.4846708      7006.7176      14013.418      5.6531768    
  50131000   297.39929      3.6008815     -33366987       1.9386759      885.60429     -33366101       650.89541      650.89541      650.89541      2174.5523      2825.4477      2174.5523      2825.4477      2174.5523      2825.4477      2.757615e+08   0.5            25270500       1.4989307      7012.6232      14025.242      5.6388419    
  50131200   300.65261      3.5183983     -33366990       1.9386759      895.29213     -33366095       650.89541      650.89541      650.89541      2174.5523      2825.4477      2174.5523      2825.4477      2174.5523      2825.4477      2.757615e+08   0.5            25270600       1.5131664      7024.6178      14049.266      5.6244179    
  50131400   301.94203      3.3157896     -33367362       1.9386759      899.13182     -33366462       650.89541      650.89541      650.89541      2174.5523      2825.4477      2174.5523      2825.4477      2174.5523      2825.4477      2.757615e+08   0.5            25270700       1.5273762      7037.4126      14074.83       5.6099026    
  50131600   297.47426      2.8603406     -33374743       1.9386759      885.82755     -33373857       650.89541      650.89541      650.89541      2174.5523      2825.4477      2174.5523      2825.4477      2174.5523      2825.4477      2.757615e+08   0.5            25270800       1.5416106      7025.2411      14050.434      5.5954823    
  50131800   287.19331      2.934376      -33374746       1.9386759      855.21263     -33373891       650.89541      650.89541      650.89541      2174.5523      2825.4477      2174.5523      2825.4477      2174.5523      2825.4477      2.757615e+08   0.5            25270900       1.5558171      7038.9972      14078.02       5.5809654    
  50132000   295.05516      3.0011037     -33374751       1.9386759      878.62388     -33373872       650.89541      650.89541      650.89541      2174.5523      2825.4477      2174.5523      2825.4477      2174.5523      2825.4477      2.757615e+08   0.5            25271000       1.570063       7019.5537      14039.129      5.5665938    
  50132200   311.82177      3.0263882     -33374756       1.9386759      928.55198     -33373827       650.89541      650.89541      650.89541      2174.5523      2825.4477      2174.5523      2825.4477      2174.5523      2825.4477      2.757615e+08   0.5            25271100       1.5842914      7028.2406      14056.484      5.5521627    
  50132400   305.79402      2.9369076     -33374761       1.9386759      910.60238     -33373850       650.89541      650.89541      650.89541      2174.5523      2825.4477      2174.5523      2825.4477      2174.5523      2825.4477      2.757615e+08   0.5            25271200       1.5985419      7017.2853      14034.555      5.5378123    
  50132600   297.88641      2.7439477     -33374765       1.9386759      887.05487     -33373878       650.89541      650.89541      650.89541      2174.5523      2825.4477      2174.5523      2825.4477      2174.5523      2825.4477      2.757615e+08   0.5            25271300       1.6127654      7030.6332      14061.258      5.5233711    
  50132800   298.67444      2.4839775     -33374770       1.9386759      889.40148     -33373881       650.89541      650.89541      650.89541      2174.5523      2825.4477      2174.5523      2825.4477      2174.5523      2825.4477      2.757615e+08   0.5            25271400       1.6269922      7029.0009      14058.016      5.5089446    
  50133000   301.76945      2.1469988     -33374776       1.9386759      898.61789     -33373877       650.89541      650.89541      650.89541      2174.5523      2825.4477      2174.5523      2825.4477      2174.5523      2825.4477      2.757615e+08   0.5            25271500       1.6412219      7027.5629      14055.123      5.4945316    
  50133200   300.62349      1.8737229     -33374783       1.9386759      895.20542     -33373887       650.89541      650.89541      650.89541      2174.5523      2825.4477      2174.5523      2825.4477      2174.5523      2825.4477      2.757615e+08   0.5            25271600       1.6554557      7025.5135      14051.069      5.4801351    
  50133400   287.73651      1.8153407     -33374790       1.9386759      856.8302      -33373933       650.89541      650.89541      650.89541      2174.5523      2825.4477      2174.5523      2825.4477      2174.5523      2825.4477      2.757615e+08   0.5            25271700       1.6696746      7032.9166      14065.802      5.4656927    
  50133600   293.60963      1.7267027     -33376694       1.9386759      874.31934     -33375819       650.89541      650.89541      650.89541      2174.5523      2825.4477      2174.5523      2825.4477      2174.5523      2825.4477      2.757615e+08   0.5            25271800       1.6838949      7032.1634      14064.307      5.451259     
  50133800   310.87241      1.9168032     -33376704       1.9386759      925.72494     -33375778       650.89541      650.89541      650.89541      2174.5523      2825.4477      2174.5523      2825.4477      2174.5523      2825.4477      2.757615e+08   0.5            25271900       1.6981226      7028.5419      14057.088      5.4368523    
  50134000   307.61455      2.0805913     -33376714       1.9386759      916.02359     -33375798       650.89541      650.89541      650.89541      2174.5523      2825.4477      2174.5523      2825.4477      2174.5523      2825.4477      2.757615e+08   0.5            25272000       1.7123371      7035.0654      14070.15       5.4224068    
  50134200   298.98492      2.190948      -33376723       1.9386759      890.32603     -33375833       650.89541      650.89541      650.89541      2174.5523      2825.4477      2174.5523      2825.4477      2174.5523      2825.4477      2.757615e+08   0.5            25272100       1.7265449      7038.4052      14076.8        5.407944     
  50134400   300.35107      2.3222298     -33376732       1.9386759      894.39421     -33375838       650.89541      650.89541      650.89541      2174.5523      2825.4477      2174.5523      2825.4477      2174.5523      2825.4477      2.757615e+08   0.5            25272200       1.7407608      7034.3359      14068.648      5.3935107    
  50134600   301.59454      2.5620978     -33376741       1.9386759      898.09703     -33375843       650.89541      650.89541      650.89541      2174.5523      2825.4477      2174.5523      2825.4477      2174.5523      2825.4477      2.757615e+08   0.5            25272300       1.7549549      7045.211       14090.449      5.3790138    
  50134800   296.67909      2.8694597     -33376751       1.9386759      883.45967     -33375868       650.89541      650.89541      650.89541      2174.5523      2825.4477      2174.5523      2825.4477      2174.5523      2825.4477      2.757615e+08   0.5            25272400       1.7691801      7029.7663      14059.54       5.3646163    
  50135000   287.08798      3.1035959     -33376762       1.9386759      854.89898     -33375907       650.89541      650.89541      650.89541      2174.5523      2825.4477      2174.5523      2825.4477      2174.5523      2825.4477      2.757615e+08   0.5            25272500       1.7834136      7025.7188      14051.414      5.3502463    
  50135200   296.49346      3.2364506     -33376771       1.9386759      882.9069      -33375889       650.89541      650.89541      650.89541      2174.5523      2825.4477      2174.5523      2825.4477      2174.5523      2825.4477      2.757615e+08   0.5            25272600       1.7976374      7030.4626      14060.926      5.3358498    
  50135400   316.28722      3.2697436     -33376782       1.9386759      941.84934     -33375840       650.89541      650.89541      650.89541      2174.5523      2825.4477      2174.5523      2825.4477      2174.5523      2825.4477      2.757615e+08   0.5            25272700       1.8118366      7042.6255      14085.244      5.3213838    
  50135600   308.26233      3.2156791     -33376792       1.9386759      917.95257     -33375874       650.89541      650.89541      650.89541      2174.5523      2825.4477      2174.5523      2825.4477      2174.5523      2825.4477      2.757615e+08   0.5            25272800       1.8260681      7026.6499      14053.339      5.3070159    
  50135800   301.04127      3.2136256     -33376804       1.9386759      896.44951     -33375907       650.89541      650.89541      650.89541      2174.5523      2825.4477      2174.5523      2825.4477      2174.5523      2825.4477      2.757615e+08   0.5            25272900       1.840293       7029.9061      14059.793      5.2926311    
  50136000   298.78294      3.2674173     -33376815       1.9386759      889.72459     -33375925       650.89541      650.89541      650.89541      2174.5523      2825.4477      2174.5523      2825.4477      2174.5523      2825.4477      2.757615e+08   0.5            25273000       1.8547863      6899.7842      13799.501      5.2790129    
  50136200   298.32615      3.3691178     -33376827       1.9386759      888.36433     -33375938       650.89541      650.89541      650.89541      2174.5523      2825.4477      2174.5523      2825.4477      2174.5523      2825.4477      2.757615e+08   0.5            25273100       1.8690324      7019.4546      14038.948      5.2646845    
  50136400   295.54978      3.5347997     -33376838       1.9386759      880.09679     -33375958       650.89541      650.89541      650.89541      2174.5523      2825.4477      2174.5523      2825.4477      2174.5523      2825.4477      2.757615e+08   0.5            25273200       1.8832696      7023.8816      14047.763      5.2503326    
  50136600   290.87946      3.6498628     -33376850       1.9386759      866.18937     -33375983       650.89541      650.89541      650.89541      2174.5523      2825.4477      2174.5523      2825.4477      2174.5523      2825.4477      2.757615e+08   0.5            25273300       1.8974886      7032.8271      14065.658      5.2359324    
  50136800   299.28318      3.6800208     -33376860       1.9386759      891.21421     -33375969       650.89541      650.89541      650.89541      2174.5523      2825.4477      2174.5523      2825.4477      2174.5523      2825.4477      2.757615e+08   0.5            25273400       1.9116864      7043.3279      14086.696      5.2214769    
  50137000   313.53847      3.5294673     -33376870       1.9386759      933.66401     -33375936       650.89541      650.89541      650.89541      2174.5523      2825.4477      2174.5523      2825.4477      2174.5523      2825.4477      2.757615e+08   0.5            25273500       1.9258967      7037.1417      14074.258      5.2070592    
  50137200   303.12078      3.2433884     -33376879       1.9386759      902.64193     -33375976       650.89541      650.89541      650.89541      2174.5523      2825.4477      2174.5523      2825.4477      2174.5523      2825.4477      2.757615e+08   0.5            25273600       1.940096       7042.5759      14085.171      5.192615     
  50137400   293.96471      3.0383558     -33376888       1.9386759      875.37672     -33376013       650.89541      650.89541      650.89541      2174.5523      2825.4477      2174.5523      2825.4477      2174.5523      2825.4477      2.757615e+08   0.5            25273700       1.9542809      7049.8018      14099.607      5.1781359    
  50137600   300.38305      2.9748854     -33376897       1.9386759      894.48942     -33376003       650.89541      650.89541      650.89541      2174.5523      2825.4477      2174.5523      2825.4477      2174.5523      2825.4477      2.757615e+08   0.5            25273800       1.9684768      7044.2626      14088.509      5.1636904    
  50137800   306.2064       2.9582028     -33376906       1.9386759      911.83037     -33375994       650.89541      650.89541      650.89541      2174.5523      2825.4477      2174.5523      2825.4477      2174.5523      2825.4477      2.757615e+08   0.5            25273900       1.9827012      7030.1933      14060.397      5.1493222    
  50138000   296.43293      2.9144544     -33376915       1.9386759      882.72665     -33376032       650.89541      650.89541      650.89541      2174.5523      2825.4477      2174.5523      2825.4477      2174.5523      2825.4477      2.757615e+08   0.5            25274000       1.9969077      7039.0245      14078.023      5.1349103    
  50138200   287.38155      2.9903178     -33376923       1.9386759      855.77319     -33376067       650.89541      650.89541      650.89541      2174.5523      2825.4477      2174.5523      2825.4477      2174.5523      2825.4477      2.757615e+08   0.5            25274100       2.0111114      7040.4146      14080.847      5.120494     
  50138400   299.97667      3.2998676     -33376932       1.9386759      893.27931     -33376039       650.89541      650.89541      650.89541      2174.5523      2825.4477      2174.5523      2825.4477      2174.5523      2825.4477      2.757615e+08   0.5            25274200       2.0252978      7049.0231      14098.049      5.1060371    
  50138600   307.96297      3.5978403     -33376942       1.9386759      917.06115     -33376025       650.89541      650.89541      650.89541      2174.5523      2825.4477      2174.5523      2825.4477      2174.5523      2825.4477      2.757615e+08   0.5            25274300       2.0395023      7040.0136      14080.072      5.0916291    
  50138800   304.80636      3.6756793     -33376951       1.9386759      907.66129     -33376043       650.89541      650.89541      650.89541      2174.5523      2825.4477      2174.5523      2825.4477      2174.5523      2825.4477      2.757615e+08   0.5            25274400       2.0537264      7030.2931      14060.518      5.0772728    
  50139000   300.14258      3.5383682     -33376960       1.9386759      893.77336     -33376066       650.89541      650.89541      650.89541      2174.5523      2825.4477      2174.5523      2825.4477      2174.5523      2825.4477      2.757615e+08   0.5            25274500       2.0679774      7017.0958      14034.154      5.0629837    
  50139200   298.03284      3.5151884     -33375074       1.9386759      887.49089     -33374186       650.89541      650.89541      650.89541      2174.5523      2825.4477      2174.5523      2825.4477      2174.5523      2825.4477      2.757615e+08   0.5            25274600       2.0822089      7026.6376      14053.33       5.0486481    
  50139400   298.30085      3.2810759     -33375083       1.9386759      888.28898     -33374195       650.89541      650.89541      650.89541      2174.5523      2825.4477      2174.5523      2825.4477      2174.5523      2825.4477      2.757615e+08   0.5            25274700       2.0964334      7030.1127      14060.217      5.034297     
  50139600   295.4152       3.0246719     -33375092       1.9386759      879.69601     -33374213       650.89541      650.89541      650.89541      2174.5523      2825.4477      2174.5523      2825.4477      2174.5523      2825.4477      2.757615e+08   0.5            25274800       2.1106232      7047.3087      14094.61       5.0198652    
  50139800   295.30709      2.7720857     -33375102       1.9386759      879.3741      -33374222       650.89541      650.89541      650.89541      2174.5523      2825.4477      2174.5523      2825.4477      2174.5523      2825.4477      2.757615e+08   0.5            25274900       2.1248085      7049.5811      14099.167      5.0054258    
  50140000   303.70801      2.6816874     -33375111       1.9386759      904.3906      -33374207       650.89541      650.89541      650.89541      2174.5523      2825.4477      2174.5523      2825.4477      2174.5523      2825.4477      2.757615e+08   0.5            25275000       2.1389995      7046.7332      14093.476      4.9910031    
  50140200   308.56511      2.6928483     -33375120       1.9386759      918.85422     -33374201       650.89541      650.89541      650.89541      2174.5523      2825.4477      2174.5523      2825.4477      2174.5523      2825.4477      2.757615e+08   0.5            25275100       2.1531762      7053.8322      14107.657      4.9765507    
  50140400   294.87718      2.6915074     -33375128       1.9386759      878.09389     -33374249       650.89541      650.89541      650.89541      2174.5523      2825.4477      2174.5523      2825.4477      2174.5523      2825.4477      2.757615e+08   0.5            25275200       2.1673789      7040.9014      14081.82       4.9621612    
  50140600   291.60919      2.6343312     -33375135       1.9386759      868.36237     -33374267       650.89541      650.89541      650.89541      2174.5523      2825.4477      2174.5523      2825.4477      2174.5523      2825.4477      2.757615e+08   0.5            25275300       2.1816178      7023.0401      14046.098      4.9478562    
  50140800   302.4642       2.4511131     -33375143       1.9386759      900.68673     -33374242       650.89541      650.89541      650.89541      2174.5523      2825.4477      2174.5523      2825.4477      2174.5523      2825.4477      2.757615e+08   0.5            25275400       2.1958349      7033.7402      14067.445      4.9335035    
  50141000   307.74154      2.1556291     -33375151       1.9386759      916.40177     -33374235       650.89541      650.89541      650.89541      2174.5523      2825.4477      2174.5523      2825.4477      2174.5523      2825.4477      2.757615e+08   0.5            25275500       2.2100656      7027.081       14054.152      4.9191824    
  50141200   291.57152      1.7859629     -33375160       1.9386759      868.25021     -33374292       650.89541      650.89541      650.89541      2174.5523      2825.4477      2174.5523      2825.4477      2174.5523      2825.4477      2.757615e+08   0.5            25275600       2.2242843      7033.0026      14066.029      4.904836     
  50141400   284.83389      1.4822595     -33375169       1.9386759      848.1867      -33374321       650.89541      650.89541      650.89541      2174.5523      2825.4477      2174.5523      2825.4477      2174.5523      2825.4477      2.757615e+08   0.5            25275700       2.2387345      6920.2591      13840.535      4.8909976    
  50141600   300.90873      1.2971498     -33375178       1.9386759      896.0548      -33374282       650.89541      650.89541      650.89541      2174.5523      2825.4477      2174.5523      2825.4477      2174.5523      2825.4477      2.757615e+08   0.5            25275800       2.2529455      7036.8262      14073.598      4.8766331    
  50141800   309.83476      1.2150583     -33375186       1.9386759      922.635       -33374264       650.89541      650.89541      650.89541      2174.5523      2825.4477      2174.5523      2825.4477      2174.5523      2825.4477      2.757615e+08   0.5            25275900       2.2671614      7034.3899      14068.801      4.8622811    
  50142000   300.0011       1.7557071     -33367816       1.9386759      893.35206     -33366923       650.89541      650.89541      650.89541      2174.5523      2825.4477      2174.5523      2825.4477      2174.5523      2825.4477      2.757615e+08   0.5            25276000       2.2814288      7008.9669      14017.905      4.8480404    
  50142200   292.95393      1.9330096     -33367824       1.9386759      872.36677     -33366952       650.89541      650.89541      650.89541      2174.5523      2825.4477      2174.5523      2825.4477      2174.5523      2825.4477      2.757615e+08   0.5            25276100       2.2956605      7026.5679      14053.142      4.8337241    
  50142400   299.37535      2.2053429     -33367833       1.9386759      891.48867     -33366941       650.89541      650.89541      650.89541      2174.5523      2825.4477      2174.5523      2825.4477      2174.5523      2825.4477      2.757615e+08   0.5            25276200       2.3098772      7034.0138      14068.053      4.8193772    
  50142600   304.73742      2.9705025     -33360464       1.9386759      907.45601     -33359557       650.89541      650.89541      650.89541      2174.5523      2825.4477      2174.5523      2825.4477      2174.5523      2825.4477      2.757615e+08   0.5            25276300       2.3241224      7019.9262      14039.862      4.8050911    
  50142800   304.00409      3.2135369     -33360474       1.9386759      905.27226     -33359569       650.89541      650.89541      650.89541      2174.5523      2825.4477      2174.5523      2825.4477      2174.5523      2825.4477      2.757615e+08   0.5            25276400       2.3383568      7025.2317      14050.475      4.7907835    
  50143000   302.24454      3.4384064     -33360483       1.9386759      900.03262     -33359583       650.89541      650.89541      650.89541      2174.5523      2825.4477      2174.5523      2825.4477      2174.5523      2825.4477      2.757615e+08   0.5            25276500       2.352595       7023.3222      14046.669      4.7764845    
  50143200   299.34231      3.5489388     -33360492       1.9386759      891.39029     -33359601       650.89541      650.89541      650.89541      2174.5523      2825.4477      2174.5523      2825.4477      2174.5523      2825.4477      2.757615e+08   0.5            25276600       2.3668132      7033.2386      14066.439      4.7621461    
  50143400   296.25043      3.5364453     -33360500       1.9386759      882.18318     -33359618       650.89541      650.89541      650.89541      2174.5523      2825.4477      2174.5523      2825.4477      2174.5523      2825.4477      2.757615e+08   0.5            25276700       2.3810505      7023.8047      14047.602      4.747847     
  50143600   291.67992      3.4584966     -33360508       1.9386759      868.57298     -33359639       650.89541      650.89541      650.89541      2174.5523      2825.4477      2174.5523      2825.4477      2174.5523      2825.4477      2.757615e+08   0.5            25276800       2.3953125      7011.66        14023.225      4.7335976    
  50143800   293.74913      3.3875099     -33360516       1.9386759      874.73475     -33359641       650.89541      650.89541      650.89541      2174.5523      2825.4477      2174.5523      2825.4477      2174.5523      2825.4477      2.757615e+08   0.5            25276900       2.409527       7035.0594      14070.204      4.7192547    
  50144000   308.84625      3.6578103     -33358630       1.9386759      919.6914      -33357710       650.89541      650.89541      650.89541      2174.5523      2825.4477      2174.5523      2825.4477      2174.5523      2825.4477      2.757615e+08   0.5            25277000       2.4237933      7009.5299      14019.093      4.7050141    
  50144200   309.62737      3.9066292     -33358637       1.9386759      922.01744     -33357715       650.89541      650.89541      650.89541      2174.5523      2825.4477      2174.5523      2825.4477      2174.5523      2825.4477      2.757615e+08   0.5            25277100       2.4380277      7025.2203      14050.408      4.6907118    
  50144400   293.66787      4.2327969     -33358643       1.9386759      874.49278     -33357769       650.89541      650.89541      650.89541      2174.5523      2825.4477      2174.5523      2825.4477      2174.5523      2825.4477      2.757615e+08   0.5            25277200       2.4522746      7019.0881      14038.188      4.6764342    
  50144600   295.33786      4.5404293     -33358648       1.9386759      879.46572     -33357768       650.89541      650.89541      650.89541      2174.5523      2825.4477      2174.5523      2825.4477      2174.5523      2825.4477      2.757615e+08   0.5            25277300       2.4665068      7026.3265      14052.633      4.6621291    
  50144800   302.75636      4.756077      -33358652       1.9386759      901.55675     -33357750       650.89541      650.89541      650.89541      2174.5523      2825.4477      2174.5523      2825.4477      2174.5523      2825.4477      2.757615e+08   0.5            25277400       2.4807664      7012.8244      14025.671      4.6478761    
  50145000   304.52938      4.8190174     -33358655       1.9386759      906.83648     -33357748       650.89541      650.89541      650.89541      2174.5523      2825.4477      2174.5523      2825.4477      2174.5523      2825.4477      2.757615e+08   0.5            25277500       2.4950251      7013.2606      14026.515      4.6336215    
  50145200   288.42433      4.7304607     -33358658       1.9386759      858.87841     -33357799       650.89541      650.89541      650.89541      2174.5523      2825.4477      2174.5523      2825.4477      2174.5523      2825.4477      2.757615e+08   0.5            25277600       2.509265       7022.5163      14045.056      4.6193321    
  50145400   285.28574      4.5702533     -33358662       1.9386759      849.53223     -33357812       650.89541      650.89541      650.89541      2174.5523      2825.4477      2174.5523      2825.4477      2174.5523      2825.4477      2.757615e+08   0.5            25277700       2.523492       7028.8947      14057.782      4.6050198    
  50145600   301.90269      4.4868195     -33358667       1.9386759      899.01466     -33357768       650.89541      650.89541      650.89541      2174.5523      2825.4477      2174.5523      2825.4477      2174.5523      2825.4477      2.757615e+08   0.5            25277800       2.5377338      7021.5863      14043.128      4.5907353    
  50145800   305.51141      4.4363889     -33358672       1.9386759      909.7608      -33357762       650.89541      650.89541      650.89541      2174.5523      2825.4477      2174.5523      2825.4477      2174.5523      2825.4477      2.757615e+08   0.5            25277900       2.5519587      7029.9126      14059.86       4.5764209    
  50146000   299.61445      4.3141038     -33358677       1.9386759      892.20066     -33357785       650.89541      650.89541      650.89541      2174.5523      2825.4477      2174.5523      2825.4477      2174.5523      2825.4477      2.757615e+08   0.5            25278000       2.5661962      7023.7203      14047.436      4.5621298    
  50146200   293.49412      4.133287      -33358682       1.9386759      873.97537     -33357808       650.89541      650.89541      650.89541      2174.5523      2825.4477      2174.5523      2825.4477      2174.5523      2825.4477      2.757615e+08   0.5            25278100       2.5804428      7019.2068      14038.45       4.5478554    
  50146400   295.64329      3.9074048     -33358688       1.9386759      880.37523     -33357808       650.89541      650.89541      650.89541      2174.5523      2825.4477      2174.5523      2825.4477      2174.5523      2825.4477      2.757615e+08   0.5            25278200       2.5946944      7016.7344      14033.4        4.5335904    
  50146600   311.82909      3.6084071     -33358696       1.9386759      928.57378     -33357767       650.89541      650.89541      650.89541      2174.5523      2825.4477      2174.5523      2825.4477      2174.5523      2825.4477      2.757615e+08   0.5            25278300       2.6091595      6913.2001      13826.418      4.519695     
  50146800   309.27058      3.4264768     -33358703       1.9386759      920.95499     -33357782       650.89541      650.89541      650.89541      2174.5523      2825.4477      2174.5523      2825.4477      2174.5523      2825.4477      2.757615e+08   0.5            25278400       2.6233537      7045.1395      14090.228      4.5053282    
  50147000   294.78151      3.3902734     -33358709       1.9386759      877.80899     -33357831       650.89541      650.89541      650.89541      2174.5523      2825.4477      2174.5523      2825.4477      2174.5523      2825.4477      2.757615e+08   0.5            25278500       2.6375462      7045.9531      14091.962      4.4909604    
  50147200   296.29044      3.3682616     -33358715       1.9386759      882.30233     -33357833       650.89541      650.89541      650.89541      2174.5523      2825.4477      2174.5523      2825.4477      2174.5523      2825.4477      2.757615e+08   0.5            25278600       2.6517111      7059.7189      14119.469      4.4765478    
  50147400   305.17639      3.4168925     -33358722       1.9386759      908.76319     -33357814       650.89541      650.89541      650.89541      2174.5523      2825.4477      2174.5523      2825.4477      2174.5523      2825.4477      2.757615e+08   0.5            25278700       2.6658877      7053.9193      14107.829      4.4621572    
  50147600   308.73517      3.5356868     -33358729       1.9386759      919.36061     -33357810       650.89541      650.89541      650.89541      2174.5523      2825.4477      2174.5523      2825.4477      2174.5523      2825.4477      2.757615e+08   0.5            25278800       2.6800881      7042.0021      14084.003      4.4478089    
  50147800   291.80503      3.5522852     -33358735       1.9386759      868.94554     -33357866       650.89541      650.89541      650.89541      2174.5523      2825.4477      2174.5523      2825.4477      2174.5523      2825.4477      2.757615e+08   0.5            25278900       2.6942785      7047.0619      14094.099      4.4334454    
  50148000   291.35724      3.4923738     -33358741       1.9386759      867.6121      -33357874       650.89541      650.89541      650.89541      2174.5523      2825.4477      2174.5523      2825.4477      2174.5523      2825.4477      2.757615e+08   0.5            25279000       2.7084587      7052.0713      14104.175      4.4190672    
  50148200   306.35157      3.4283013     -33358748       1.9386759      912.26266     -33357836       650.89541      650.89541      650.89541      2174.5523      2825.4477      2174.5523      2825.4477      2174.5523      2825.4477      2.757615e+08   0.5            25279100       2.7226568      7043.181       14086.3        4.4047203    
  50148400   309.68999      3.366338      -33358756       1.9386759      922.2039      -33357833       650.89541      650.89541      650.89541      2174.5523      2825.4477      2174.5523      2825.4477      2174.5523      2825.4477      2.757615e+08   0.5            25279200       2.7368415      7049.8366      14099.725      4.390353     
  50148600   294.73589      3.2888869     -33358763       1.9386759      877.67315     -33357886       650.89541      650.89541      650.89541      2174.5523      2825.4477      2174.5523      2825.4477      2174.5523      2825.4477      2.757615e+08   0.5            25279300       2.75103        7047.9182      14095.843      4.3759939    
  50148800   295.32216      3.3351325     -33358772       1.9386759      879.41896     -33357893       650.89541      650.89541      650.89541      2174.5523      2825.4477      2174.5523      2825.4477      2174.5523      2825.4477      2.757615e+08   0.5            25279400       2.765217       7048.7771      14097.532      4.3616339    
  50149000   302.83394      3.5320987     -33358782       1.9386759      901.78777     -33357880       650.89541      650.89541      650.89541      2174.5523      2825.4477      2174.5523      2825.4477      2174.5523      2825.4477      2.757615e+08   0.5            25279500       2.7794643      7018.8733      14037.736      4.3473702    
  50149200   304.80851      3.7074935     -33358791       1.9386759      907.6677      -33357883       650.89541      650.89541      650.89541      2174.5523      2825.4477      2174.5523      2825.4477      2174.5523      2825.4477      2.757615e+08   0.5            25279600       2.7936399      7054.3403      14108.715      4.3329954    
  50149400   293.44784      3.8323964     -33358797       1.9386759      873.83755     -33357923       650.89541      650.89541      650.89541      2174.5523      2825.4477      2174.5523      2825.4477      2174.5523      2825.4477      2.757615e+08   0.5            25279700       2.8078374      7043.4931      14086.978      4.3186564    
  50149600   289.25093      3.8030932     -33360698       1.9386759      861.33988     -33359836       650.89541      650.89541      650.89541      2174.5523      2825.4477      2174.5523      2825.4477      2174.5523      2825.4477      2.757615e+08   0.5            25279800       2.8220088      7056.4753      14112.95       4.304279     
  50149800   309.5561       3.9974637     -33360704       1.9386759      921.80521     -33359782       650.89541      650.89541      650.89541      2174.5523      2825.4477      2174.5523      2825.4477      2174.5523      2825.4477      2.757615e+08   0.5            25279900       2.8361986      7047.3544      14094.693      4.2899313    
  50150000   316.20571      4.1364894     -33360712       1.9386759      941.60661     -33359770       650.89541      650.89541      650.89541      2174.5523      2825.4477      2174.5523      2825.4477      2174.5523      2825.4477      2.757615e+08   0.5            25280000       2.8503786      7052.1623      14104.358      4.2755706    
  50150200   305.49884      4.1502053     -33360720       1.9386759      909.72338     -33359810       650.89541      650.89541      650.89541      2174.5523      2825.4477      2174.5523      2825.4477      2174.5523      2825.4477      2.757615e+08   0.5            25280100       2.8645546      7054.2109      14108.402      4.2612057    
  50150400   297.53741      3.5337066     -33368106       1.9386759      886.01561     -33367220       650.89541      650.89541      650.89541      2174.5523      2825.4477      2174.5523      2825.4477      2174.5523      2825.4477      2.757615e+08   0.5            25280200       2.878775       7032.1223      14064.234      4.2469084    
  50150600   296.15081      3.5927809     -33368114       1.9386759      881.88653     -33367232       650.89541      650.89541      650.89541      2174.5523      2825.4477      2174.5523      2825.4477      2174.5523      2825.4477      2.757615e+08   0.5            25280300       2.8929683      7045.5714      14091.149      4.2325721    
  50150800   302.02748      4.0063453     -33368119       1.9386759      899.38627     -33367220       650.89541      650.89541      650.89541      2174.5523      2825.4477      2174.5523      2825.4477      2174.5523      2825.4477      2.757615e+08   0.5            25280400       2.9071511      7050.8014      14101.635      4.2182218    
  50151000   312.99086      4.2322633     -33368126       1.9386759      932.03335     -33367194       650.89541      650.89541      650.89541      2174.5523      2825.4477      2174.5523      2825.4477      2174.5523      2825.4477      2.757615e+08   0.5            25280500       2.9213539      7040.8756      14081.746      4.2039021    
  50151200   304.43384      4.059477      -33368134       1.9386759      906.55198     -33367228       650.89541      650.89541      650.89541      2174.5523      2825.4477      2174.5523      2825.4477      2174.5523      2825.4477      2.757615e+08   0.5            25280600       2.9357867      6928.6217      13857.193      4.189912     
  50151400   293.09117      3.9049606     -33368143       1.9386759      872.77546     -33367270       650.89541      650.89541      650.89541      2174.5523      2825.4477      2174.5523      2825.4477      2174.5523      2825.4477      2.757615e+08   0.5            25280700       2.9499873      7042.0026      14084.036      4.1755885    
  50151600   298.25653      3.7937407     -33368150       1.9386759      888.15701     -33367261       650.89541      650.89541      650.89541      2174.5523      2825.4477      2174.5523      2825.4477      2174.5523      2825.4477      2.757615e+08   0.5            25280800       2.9642016      7035.1272      14070.246      4.1612857    
  50151800   308.10461      3.553393      -33368157       1.9386759      917.48293     -33367239       650.89541      650.89541      650.89541      2174.5523      2825.4477      2174.5523      2825.4477      2174.5523      2825.4477      2.757615e+08   0.5            25280900       2.9784367      7024.9         14049.75       4.1470128    
  50152000   304.49634      3.3792132     -33367797       1.9386759      906.73812     -33366890       650.89541      650.89541      650.89541      2174.5523      2825.4477      2174.5523      2825.4477      2174.5523      2825.4477      2.757615e+08   0.5            25281000       2.9926828      7019.4985      14039.065      4.132755     
  50152200   289.24158      3.0903494     -33367806       1.9386759      861.31202     -33366945       650.89541      650.89541      650.89541      2174.5523      2825.4477      2174.5523      2825.4477      2174.5523      2825.4477      2.757615e+08   0.5            25281100       3.0068705      7048.3131      14096.598      4.1184177    
  50152400   297.34362      3.0631139     -33367817       1.9386759      885.43853     -33366931       650.89541      650.89541      650.89541      2174.5523      2825.4477      2174.5523      2825.4477      2174.5523      2825.4477      2.757615e+08   0.5            25281200       3.0210564      7049.2661      14098.539      4.1040792    
  50152600   310.04124      3.1445524     -33367827       1.9386759      923.24987     -33366904       650.89541      650.89541      650.89541      2174.5523      2825.4477      2174.5523      2825.4477      2174.5523      2825.4477      2.757615e+08   0.5            25281300       3.0352522      7044.35        14088.636      4.0897556    
  50152800   302.23335      3.0949388     -33367837       1.9386759      899.99929     -33366937       650.89541      650.89541      650.89541      2174.5523      2825.4477      2174.5523      2825.4477      2174.5523      2825.4477      2.757615e+08   0.5            25281400       3.0494401      7048.25        14096.475      4.0754225    
  50153000   289.39327      3.3065077     -33367477       1.9386759      861.76375     -33366616       650.89541      650.89541      650.89541      2174.5523      2825.4477      2174.5523      2825.4477      2174.5523      2825.4477      2.757615e+08   0.5            25281500       3.0636396      7042.5248      14085.184      4.061106     
  50153200   299.38253      3.6184894     -33367489       1.9386759      891.51004     -33366597       650.89541      650.89541      650.89541      2174.5523      2825.4477      2174.5523      2825.4477      2174.5523      2825.4477      2.757615e+08   0.5            25281600       3.0778559      7034.1499      14068.27       4.046813     
  50153400   308.30066      3.6931267     -33367501       1.9386759      918.06672     -33366583       650.89541      650.89541      650.89541      2174.5523      2825.4477      2174.5523      2825.4477      2174.5523      2825.4477      2.757615e+08   0.5            25281700       3.0920526      7043.8989      14087.798      4.032495     
  50153600   299.9125       3.3508862     -33367513       1.9386759      893.08821     -33366620       650.89541      650.89541      650.89541      2174.5523      2825.4477      2174.5523      2825.4477      2174.5523      2825.4477      2.757615e+08   0.5            25281800       3.1062366      7050.1959      14100.373      4.0181617    
  50153800   291.0513       3.1556645     -33367524       1.9386759      866.70106     -33366657       650.89541      650.89541      650.89541      2174.5523      2825.4477      2174.5523      2825.4477      2174.5523      2825.4477      2.757615e+08   0.5            25281900       3.1203943      7063.3156      14126.653      4.003796     
  50154000   298.93069      3.2558186     -33367536       1.9386759      890.16456     -33366645       650.89541      650.89541      650.89541      2174.5523      2825.4477      2174.5523      2825.4477      2174.5523      2825.4477      2.757615e+08   0.5            25282000       3.1345872      7045.764       14091.477      3.9894771    
  50154200   305.20383      3.7133077     -33360170       1.9386759      908.8449      -33359261       650.89541      650.89541      650.89541      2174.5523      2825.4477      2174.5523      2825.4477      2174.5523      2825.4477      2.757615e+08   0.5            25282100       3.1487828      7044.4482      14088.927      3.9751625    
  50154400   302.4005       3.5510697     -33360183       1.9386759      900.49704     -33359283       650.89541      650.89541      650.89541      2174.5523      2825.4477      2174.5523      2825.4477      2174.5523      2825.4477      2.757615e+08   0.5            25282200       3.1629621      7052.5065      14105.049      3.9608287    
  50154600   292.56761      3.4672975     -33360198       1.9386759      871.21638     -33359327       650.89541      650.89541      650.89541      2174.5523      2825.4477      2174.5523      2825.4477      2174.5523      2825.4477      2.757615e+08   0.5            25282300       3.1771753      7035.7331      14071.458      3.9465384    
[...]
  50199200   289.20872      3.7813934     -33351564       1.9386759      861.21418     -33350703       650.89541      650.89541      650.89541      2174.5523      2825.4477      2174.5523      2825.4477      2174.5523      2825.4477      2.757615e+08   0.5            25304600       6.3481134      7041.2296      14082.441      0.76860588   
  50199400   299.19138      4.1271265     -33351561       1.9386759      890.94083     -33350670       650.89541      650.89541      650.89541      2174.5523      2825.4477      2174.5523      2825.4477      2174.5523      2825.4477      2.757615e+08   0.5            25304700       6.3622933      7052.2195      14104.435      0.75436609   
  50199600   308.72086      4.5214716     -33351557       1.9386759      919.31801     -33350638       650.89541      650.89541      650.89541      2174.5523      2825.4477      2174.5523      2825.4477      2174.5523      2825.4477      2.757615e+08   0.5            25304800       6.3764999      7039.0002      14078          0.74012966   
  50199800   301.73368      4.7925509     -33351553       1.9386759      898.51138     -33350654       650.89541      650.89541      650.89541      2174.5523      2825.4477      2174.5523      2825.4477      2174.5523      2825.4477      2.757615e+08   0.5            25304900       6.3907396      7022.5858      14045.169      0.72589714   
  50200000   294.70049      4.9434339     -33351549       1.9386759      877.56772     -33350671       650.89541      650.89541      650.89541      2174.5523      2825.4477      2174.5523      2825.4477      2174.5523      2825.4477      2.757615e+08   0.5            25305000       6.420409       3370.4545      6740.8986      0.71337901   
  50200200   296.15774      5.0177528     -33351544       1.9386759      881.90719     -33350663       650.89541      650.89541      650.89541      2174.5523      2825.4477      2174.5523      2825.4477      2174.5523      2825.4477      2.757615e+08   0.5            25305100       6.4346339      7030.044       14060.109      0.69910677   
  50200400   298.82272      5.0203877     -33351541       1.9386759      889.84302     -33350651       650.89541      650.89541      650.89541      2174.5523      2825.4477      2174.5523      2825.4477      2174.5523      2825.4477      2.757615e+08   0.5            25305200       6.448846       7036.2286      14072.431      0.68483341   
  50200600   301.94851      5.0023613     -33351538       1.9386759      899.15111     -33350639       650.89541      650.89541      650.89541      2174.5523      2825.4477      2174.5523      2825.4477      2174.5523      2825.4477      2.757615e+08   0.5            25305300       6.4630479      7041.3153      14082.674      0.67055925   
  50200800   303.06896      5.0500649     -33351536       1.9386759      902.4876      -33350634       650.89541      650.89541      650.89541      2174.5523      2825.4477      2174.5523      2825.4477      2174.5523      2825.4477      2.757615e+08   0.5            25305400       6.4772973      7017.8664      14035.726      0.65629023   
  50201000   296.74514      5.0515223     -33351534       1.9386759      883.65635     -33350650       650.89541      650.89541      650.89541      2174.5523      2825.4477      2174.5523      2825.4477      2174.5523      2825.4477      2.757615e+08   0.5            25305500       6.4915445      7018.8905      14037.82       0.64202107   
  50201200   289.72371      4.932609      -33351532       1.9386759      862.74775     -33350669       650.89541      650.89541      650.89541      2174.5523      2825.4477      2174.5523      2825.4477      2174.5523      2825.4477      2.757615e+08   0.5            25305600       6.5057533      7037.8851      14075.748      0.62774831   
  50201400   300.5515       4.8584965     -33351530       1.9386759      894.99103     -33350635       650.89541      650.89541      650.89541      2174.5523      2825.4477      2174.5523      2825.4477      2174.5523      2825.4477      2.757615e+08   0.5            25305700       6.5199251      7056.2712      14112.52       0.61347234   
  50201600   309.78648      4.8170214     -33351526       1.9386759      922.49125     -33350603       650.89541      650.89541      650.89541      2174.5523      2825.4477      2174.5523      2825.4477      2174.5523      2825.4477      2.757615e+08   0.5            25305800       6.5341251      7042.2674      14084.595      0.59919941   
  50201800   300.54045      4.7182466     -33351521       1.9386759      894.95814     -33350626       650.89541      650.89541      650.89541      2174.5523      2825.4477      2174.5523      2825.4477      2174.5523      2825.4477      2.757615e+08   0.5            25305900       6.5483108      7049.3401      14098.655      0.58492553   
  50202000   291.33887      4.7229225     -33351518       1.9386759      867.55741     -33350650       650.89541      650.89541      650.89541      2174.5523      2825.4477      2174.5523      2825.4477      2174.5523      2825.4477      2.757615e+08   0.5            25306000       6.562527       7034.2454      14068.481      0.57065468   
  50202200   301.44507      4.7494088     -33351514       1.9386759      897.65196     -33350617       650.89541      650.89541      650.89541      2174.5523      2825.4477      2174.5523      2825.4477      2174.5523      2825.4477      2.757615e+08   0.5            25306100       6.5767485      7031.61        14063.182      0.55638453   
  50202400   319.71857      4.6798023     -33351511       1.9386759      952.06729     -33350559       650.89541      650.89541      650.89541      2174.5523      2825.4477      2174.5523      2825.4477      2174.5523      2825.4477      2.757615e+08   0.5            25306200       6.590978       7027.6192      14055.27       0.54211523   
  50202600   302.64781      4.5870756     -33351507       1.9386759      901.23349     -33350606       650.89541      650.89541      650.89541      2174.5523      2825.4477      2174.5523      2825.4477      2174.5523      2825.4477      2.757615e+08   0.5            25306300       6.6051769      7042.8174      14085.632      0.52784366   
  50202800   291.73746      4.5680887     -33351503       1.9386759      868.74433     -33350634       650.89541      650.89541      650.89541      2174.5523      2825.4477      2174.5523      2825.4477      2174.5523      2825.4477      2.757615e+08   0.5            25306400       6.6193676      7046.9045      14093.809      0.51357177   
  50203000   296.95976      4.6164594     -33351499       1.9386759      884.29547     -33350615       650.89541      650.89541      650.89541      2174.5523      2825.4477      2174.5523      2825.4477      2174.5523      2825.4477      2.757615e+08   0.5            25306500       6.6335568      7047.5918      14095.191      0.49930012   
  50203200   308.62249      4.6655462     -33351495       1.9386759      919.02506     -33350576       650.89541      650.89541      650.89541      2174.5523      2825.4477      2174.5523      2825.4477      2174.5523      2825.4477      2.757615e+08   0.5            25306600       6.6477766      7032.4314      14064.834      0.48503105   
  50203400   303.96668      4.7453686     -33351491       1.9386759      905.16086     -33350585       650.89541      650.89541      650.89541      2174.5523      2825.4477      2174.5523      2825.4477      2174.5523      2825.4477      2.757615e+08   0.5            25306700       6.6619661      7047.4751      14095.008      0.47076005   
  50203600   284.67358      4.8515572     -33351485       1.9386759      847.7093      -33350637       650.89541      650.89541      650.89541      2174.5523      2825.4477      2174.5523      2825.4477      2174.5523      2825.4477      2.757615e+08   0.5            25306800       6.6761828      7034.0173      14068          0.45649126   
  50203800   280.80762      4.902768      -33351480       1.9386759      836.19713     -33350644       650.89541      650.89541      650.89541      2174.5523      2825.4477      2174.5523      2825.4477      2174.5523      2825.4477      2.757615e+08   0.5            25306900       6.6906314      6921.0307      13841.999      0.44223803   
  50204000   304.99444      4.8669587     -33351474       1.9386759      908.22136     -33350566       650.89541      650.89541      650.89541      2174.5523      2825.4477      2174.5523      2825.4477      2174.5523      2825.4477      2.757615e+08   0.5            25307000       6.7048344      7040.7799      14081.6        0.42796828   
  50204200   304.21189      4.742347      -33351468       1.9386759      905.89105     -33350562       650.89541      650.89541      650.89541      2174.5523      2825.4477      2174.5523      2825.4477      2174.5523      2825.4477      2.757615e+08   0.5            25307100       6.7190133      7052.7537      14105.493      0.41369733   
  50204400   295.12006      4.5745972     -33351461       1.9386759      878.81714     -33350582       650.89541      650.89541      650.89541      2174.5523      2825.4477      2174.5523      2825.4477      2174.5523      2825.4477      2.757615e+08   0.5            25307200       6.7331934      7052.1429      14104.345      0.39942683   
  50204600   293.19233      4.3868889     -33351454       1.9386759      873.07668     -33350581       650.89541      650.89541      650.89541      2174.5523      2825.4477      2174.5523      2825.4477      2174.5523      2825.4477      2.757615e+08   0.5            25307300       6.7473973      7040.3006      14080.607      0.38515809   
  50204800   305.60181      4.1751769     -33351448       1.9386759      910.03001     -33350538       650.89541      650.89541      650.89541      2174.5523      2825.4477      2174.5523      2825.4477      2174.5523      2825.4477      2.757615e+08   0.5            25307400       6.7615928      7044.478       14088.886      0.37088917   
  50205000   308.23501      3.9159857     -33351442       1.9386759      917.87121     -33350525       650.89541      650.89541      650.89541      2174.5523      2825.4477      2174.5523      2825.4477      2174.5523      2825.4477      2.757615e+08   0.5            25307500       6.775832       7022.8576      14045.776      0.35662284   
  50205200   294.23833      3.6076338     -33351438       1.9386759      876.1915      -33350562       650.89541      650.89541      650.89541      2174.5523      2825.4477      2174.5523      2825.4477      2174.5523      2825.4477      2.757615e+08   0.5            25307600       6.790053       7031.8375      14063.665      0.34235571   
  50205400   283.2046       3.1515273     -33351804       1.9386759      843.33493     -33350961       650.89541      650.89541      650.89541      2174.5523      2825.4477      2174.5523      2825.4477      2174.5523      2825.4477      2.757615e+08   0.5            25307700       6.8042835      7027.1778      14054.332      0.32808923   
  50205600   306.49878      2.8889245     -33351803       1.9386759      912.70103     -33350890       650.89541      650.89541      650.89541      2174.5523      2825.4477      2174.5523      2825.4477      2174.5523      2825.4477      2.757615e+08   0.5            25307800       6.818498       7035.0911      14070.218      0.31382217   
  50205800   310.07969      2.708135      -33351802       1.9386759      923.36435     -33350878       650.89541      650.89541      650.89541      2174.5523      2825.4477      2174.5523      2825.4477      2174.5523      2825.4477      2.757615e+08   0.5            25307900       6.8327032      7039.686       14079.329      0.29955492   
  50206000   295.73821      2.7358214     -33351801       1.9386759      880.6579      -33350920       650.89541      650.89541      650.89541      2174.5523      2825.4477      2174.5523      2825.4477      2174.5523      2825.4477      2.757615e+08   0.5            25308000       6.846919       7034.4319      14068.871      0.28528837   
  50206200   290.97825      2.9757346     -33351799       1.9386759      866.48353     -33350933       650.89541      650.89541      650.89541      2174.5523      2825.4477      2174.5523      2825.4477      2174.5523      2825.4477      2.757615e+08   0.5            25308100       6.8611174      7043.0322      14086.068      0.27102134   
  50206400   303.22002      3.2858533     -33351797       1.9386759      902.93745     -33350894       650.89541      650.89541      650.89541      2174.5523      2825.4477      2174.5523      2825.4477      2174.5523      2825.4477      2.757615e+08   0.5            25308200       6.8753212      7040.3987      14080.815      0.2567548    
  50206600   309.61877      3.5370537     -33351794       1.9386759      921.99181     -33350872       650.89541      650.89541      650.89541      2174.5523      2825.4477      2174.5523      2825.4477      2174.5523      2825.4477      2.757615e+08   0.5            25308300       6.8895419      7031.9661      14063.926      0.24248912   
  50206800   300.47601      3.705462      -33351791       1.9386759      894.76624     -33350896       650.89541      650.89541      650.89541      2174.5523      2825.4477      2174.5523      2825.4477      2174.5523      2825.4477      2.757615e+08   0.5            25308400       6.9037755      7025.6038      14051.196      0.22822405   
  50207000   297.00639      3.8220377     -33351789       1.9386759      884.4343      -33350904       650.89541      650.89541      650.89541      2174.5523      2825.4477      2174.5523      2825.4477      2174.5523      2825.4477      2.757615e+08   0.5            25308500       6.9179963      7031.968       14063.962      0.21395871   
  50207200   299.41968      3.8821719     -33351788       1.9386759      891.62068     -33350896       650.89541      650.89541      650.89541      2174.5523      2825.4477      2174.5523      2825.4477      2174.5523      2825.4477      2.757615e+08   0.5            25308600       6.9321814      7049.6586      14099.293      0.19969252   
  50207400   303.18725      3.8788321     -33351788       1.9386759      902.83987     -33350885       650.89541      650.89541      650.89541      2174.5523      2825.4477      2174.5523      2825.4477      2174.5523      2825.4477      2.757615e+08   0.5            25308700       6.946361       7052.3727      14104.77       0.18542652   
  50207600   302.61967      3.7758358     -33351789       1.9386759      901.14971     -33350888       650.89541      650.89541      650.89541      2174.5523      2825.4477      2174.5523      2825.4477      2174.5523      2825.4477      2.757615e+08   0.5            25308800       6.9605348      7055.2879      14110.548      0.17116074   
  50207800   291.39441      3.5935061     -33351791       1.9386759      867.7228      -33350923       650.89541      650.89541      650.89541      2174.5523      2825.4477      2174.5523      2825.4477      2174.5523      2825.4477      2.757615e+08   0.5            25308900       6.9747399      7039.7574      14079.543      0.15689603   
  50208000   290.13692      3.4282351     -33351793       1.9386759      863.9782      -33350929       650.89541      650.89541      650.89541      2174.5523      2825.4477      2174.5523      2825.4477      2174.5523      2825.4477      2.757615e+08   0.5            25309000       6.988974       7025.3329      14050.637      0.14263216   
  50208200   308.39712      3.3424621     -33351796       1.9386759      918.35397     -33350878       650.89541      650.89541      650.89541      2174.5523      2825.4477      2174.5523      2825.4477      2174.5523      2825.4477      2.757615e+08   0.5            25309100       7.0031999      7029.4461      14058.931      0.12836826   
  50208400   309.95062      3.2844092     -33351801       1.9386759      922.98001     -33350878       650.89541      650.89541      650.89541      2174.5523      2825.4477      2174.5523      2825.4477      2174.5523      2825.4477      2.757615e+08   0.5            25309200       7.0173986      7042.8894      14085.774      0.11410407   
  50208600   300.89127      3.3308546     -33351437       1.9386759      896.00281     -33350541       650.89541      650.89541      650.89541      2174.5523      2825.4477      2174.5523      2825.4477      2174.5523      2825.4477      2.757615e+08   0.5            25309300       7.0316079      7037.6622      14075.324      0.099840301  
  50208800   299.09359      3.2186558     -33351443       1.9386759      890.64964     -33350552       650.89541      650.89541      650.89541      2174.5523      2825.4477      2174.5523      2825.4477      2174.5523      2825.4477      2.757615e+08   0.5            25309400       7.0457844      7053.9327      14107.831      0.085576351  
  50209000   300.41715      3.1420867     -33351449       1.9386759      894.59099     -33350555       650.89541      650.89541      650.89541      2174.5523      2825.4477      2174.5523      2825.4477      2174.5523      2825.4477      2.757615e+08   0.5            25309500       7.0599886      7040.1583      14080.28       0.071313036  
  50209200   300.05439      3.1895426     -33351456       1.9386759      893.51074     -33350563       650.89541      650.89541      650.89541      2174.5523      2825.4477      2174.5523      2825.4477      2174.5523      2825.4477      2.757615e+08   0.5            25309600       7.0741731      7049.9444      14099.924      0.057049798  
  50209400   290.35297      3.449472      -33351463       1.9386759      864.62156     -33350598       650.89541      650.89541      650.89541      2174.5523      2825.4477      2174.5523      2825.4477      2174.5523      2825.4477      2.757615e+08   0.5            25309700       7.0883791      7039.2708      14078.538      0.042787008  
  50209600   290.92726      3.8446357     -33351470       1.9386759      866.33172     -33350604       650.89541      650.89541      650.89541      2174.5523      2825.4477      2174.5523      2825.4477      2174.5523      2825.4477      2.757615e+08   0.5            25309800       7.1025812      7041.2201      14082.459      0.02852443   
  50209800   309.124        4.1810652     -33351478       1.9386759      920.51847     -33350557       650.89541      650.89541      650.89541      2174.5523      2825.4477      2174.5523      2825.4477      2174.5523      2825.4477      2.757615e+08   0.5            25309900       7.1167753      7045.2135      14090.456      0.014262078  
  50210000   310.63347      4.3760668     -33351486       1.9386759      925.01342     -33350561       650.89541      650.89541      650.89541      2174.5523      2825.4477      2174.5523      2825.4477      2174.5523      2825.4477      2.757615e+08   0.5            25310000       7.1309963      7031.8405      14063.64       0            
Loop time of 7.13101 on 4 procs for 100000 steps with 1000 atoms

Performance: 605.805 ns/day, 0.040 hours/ns, 14023.258 timesteps/s
99.9% CPU use with 4 MPI tasks x 1 OpenMP threads

MPI task timing breakdown:
Section |  min time  |  avg time  |  max time  |%varavg| %total
---------------------------------------------------------------
Pair    | 4.1923     | 4.4191     | 4.6843     |   9.8 | 61.97
Neigh   | 0.0040951  | 0.0044235  | 0.0046675  |   0.3 |  0.06
Comm    | 1.5425     | 1.8131     | 2.0171     |  15.3 | 25.42
Output  | 0.026783   | 0.027906   | 0.031181   |   1.1 |  0.39
Modify  | 0.5398     | 0.59309    | 0.63677    |   5.1 |  8.32
Other   |            | 0.2734     |            |       |  3.83

Nlocal:            250 ave         265 max         240 min
Histogram: 1 0 1 0 1 0 0 0 0 1
Nghost:         753.25 ave         761 max         748 min
Histogram: 1 0 1 1 0 0 0 0 0 1
Neighs:         1705.5 ave        1819 max        1612 min
Histogram: 1 1 0 0 0 0 1 0 0 1

Total # of neighbors = 6822
Ave neighs/atom = 6.822
Neighbor list builds = 23
Dangerous builds = 0

# run_style
run_style verlet


Total wall time: 0:00:07
