ITEM: TIMESTEP
50200000
ITEM: NUMBER OF ATOMS
1000
ITEM: BOX BOUNDS pp pp pp
2.1398667079713819e+03 2.8601332920276650e+03
2.1398667079713819e+03 2.8601332920276650e+03
2.1398667079713819e+03 2.8601332920276650e+03
ITEM: ATOMS type x y z ix iy iz c_vor[1] c_vor[2]
1 2661.06 2618.66 2593.33 -1 0 0 252090 12
1 2593.34 2498.26 2777.68 0 0 -1 238098 13
1 2856.72 2469.42 2294.16 -1 0 -1 261981 13
1 2790.47 2651.27 2715.9 -1 0 0 216541 14
1 2282.13 2669.69 2520.89 1 -1 -1 312644 11
1 2848.68 2446.16 2488.42 -1 0 0 234766 10
1 2559 2189.44 2512.29 0 0 0 294949 11
1 2808.5 2370.42 2724.61 -2 2 -1 286525 12
1 2437.72 2334.69 2594.12 1 0 -1 307902 10
1 2383.59 2722.1 2646.27 0 0 0 222841 10
1 2839.42 2591.47 2546.45 -1 1 0 194178 13
1 2791.99 2452.3 2591.75 1 0 0 264029 11
1 2676.24 2856.61 2759.69 -1 0 -1 263096 13
1 2756.03 2162.53 2688.67 -1 0 -1 224982 11
1 2165.18 2617.63 2552.7 0 0 0 223262 13
1 2777.33 2298.46 2515.11 0 0 -1 293410 13
1 2492.63 2514.12 2568.54 0 -1 -1 272194 10
1 2424.75 2157.41 2833.44 -1 0 -1 341930 12
1 2790.27 2487.45 2710.08 0 -1 -1 204182 11
1 2780.22 2663.14 2303.39 1 0 0 222175 11
1 2147.57 2695.72 2677.76 -1 0 -1 211677 11
1 2347.12 2398.5 2578.48 -1 1 -1 333487 11
1 2753.18 2453.06 2728.29 -1 -1 -2 218322 12
1 2378.37 2765.95 2677.14 -1 -1 -1 231490 12
1 2766.27 2579.6 2380.63 -1 -1 0 240118 13
1 2776.73 2847.93 2580.15 -1 0 -1 234998 11
1 2645.85 2538.79 2766.3 0 -1 0 250740 14
1 2604.43 2153.4 2765.53 0 -1 -1 249968 12
1 2167.45 2789.28 2730.86 1 -1 -1 327931 11
1 2607.76 2563.52 2858.4 -1 -1 -1 258629 10
1 2844.63 2302.39 2638.1 0 -1 -1 320826 12
1 2819.29 2490.67 2616.25 0 0 0 242951 12
1 2258.76 2220.07 2521.92 0 0 0 287770 10
1 2408.65 2817.66 2489.72 0 -1 0 311524 11
1 2577.6 2842.39 2344.14 0 -1 0 298568 12
1 2652.23 2517.89 2599.55 -1 0 0 237237 11
1 2152.55 2772.78 2239.24 0 -1 0 200978 11
1 2682.22 2752.26 2229.12 -1 -1 0 293077 12
1 2380.08 2787.43 2306.75 -1 0 0 305023 10
1 2532.09 2758.43 2240.8 0 0 0 294904 10
1 2749.2 2684.24 2728.4 0 0 -1 218173 12
1 2613.12 2589.2 2239.84 1 0 0 280063 9
1 2822.81 2548.56 2518.3 0 -1 -1 203185 10
1 2285.59 2344.12 2462.34 0 0 0 295308 11
1 2765.09 2381.48 2827.65 0 -1 -1 278674 9
1 2672.76 2855.88 2705.18 0 0 -1 232177 13
1 2775.27 2648.4 2803.74 1 0 -1 238684 11
1 2397.01 2679.44 2698.83 1 0 -1 292945 13
1 2784.91 2729.28 2308.34 0 -1 0 258468 12
1 2821.93 2487.9 2331.21 -1 -2 0 245634 11
1 2792.07 2454.67 2478.29 2 1 0 269243 15
1 2191.22 2179.69 2189.01 0 2 1 243347 9
1 2767.44 2496.85 2168.47 0 1 0 251158 12
1 2351.09 2295.9 2644.05 0 1 -1 299349 11
1 2317.27 2152.95 2627.95 2 2 1 283257 10
1 2323.8 2455.75 2839.34 0 0 -1 328926 14
1 2757.21 2255.88 2145.83 -1 1 0 279588 12
1 2785.31 2837.61 2633.43 -1 0 -1 201847 13
1 2848.51 2635.99 2481.06 -1 0 -1 283670 12
1 2535.77 2543.85 2594.61 0 -1 0 267229 13
1 2203.1 2460.49 2280.31 0 0 2 285620 12
1 2761.59 2759.26 2669.39 -1 0 -1 202379 12
1 2726.59 2731.18 2855.62 0 0 0 284413 11
1 2344.39 2208.37 2515.6 0 1 -1 312814 13
1 2364.16 2572.56 2492.22 1 0 0 325860 13
1 2724.04 2850.55 2718.42 -1 -1 0 213152 13
1 2625.77 2162.08 2344.79 -1 1 0 293994 12
1 2706.45 2397.07 2564.07 0 0 1 301546 12
1 2160.2 2647.02 2657.89 0 0 -3 211769 12
1 2665.7 2585.7 2748.67 -1 -1 -1 211329 10
1 2323.75 2317.46 2503.09 0 0 0 298915 12
1 2632.71 2605.56 2712.85 0 0 0 272961 15
1 2711.28 2441.44 2688.33 -1 0 -1 261588 12
1 2505.3 2789.09 2792.8 0 -1 0 276268 11
1 2737.3 2332.82 2736.74 0 0 -2 279786 13
1 2806.32 2150.94 2446.4 -1 0 0 265426 13
1 2696.48 2676.85 2731.28 0 -1 0 223829 10
1 2789.69 2744.46 2624.18 -1 -1 0 209717 12
1 2849.07 2574.73 2720.99 -1 0 0 255175 11
1 2644.36 2567.67 2617.82 -1 0 0 232207 13
1 2723.83 2574.08 2703.37 0 1 1 251270 13
1 2372.35 2777.14 2624.32 1 0 0 226850 11
1 2707.32 2771.9 2626.08 -1 -1 0 247213 14
1 2784.25 2526.71 2655.19 -1 0 0 242175 13
1 2848 2477.95 2405.38 -1 -2 0 264853 13
1 2462.44 2856.43 2657.72 -1 -1 -1 274563 12
1 2145.76 2820.46 2264.89 0 0 -1 250315 11
1 2208.49 2713.09 2859.59 0 0 0 294569 12
1 2835.53 2250.61 2334.62 -1 -1 0 313789 12
1 2811.69 2590.4 2486.74 -1 -1 0 238939 12
1 2363.12 2292.87 2382.58 0 0 0 277773 10
1 2721.85 2203.69 2696.01 -1 0 0 299497 14
1 2541.61 2836.24 2702.7 -1 -1 -1 258010 12
1 2798.54 2173.85 2566.21 -1 0 0 281560 13
1 2450.13 2527.82 2675.87 -1 1 1 314896 13
1 2212.04 2605.06 2673.97 0 0 0 262323 11
1 2679.49 2470.56 2583.19 -2 -1 0 280218 12
1 2492.3 2283.94 2277.14 0 0 0 282914 10
1 2789.47 2472.71 2657.71 0 0 0 249664 14
1 2392.84 2313.89 2430.23 0 0 0 302526 13
1 2605.33 2648.19 2574.7 0 1 0 281502 10
1 2422.86 2232.26 2604.2 0 0 0 303885 12
1 2808.19 2355.71 2404.8 0 0 -1 272218 10
1 2737.59 2653.4 2408.01 -1 1 -1 283178 11
1 2786.46 2540.13 2431.86 0 -1 0 246311 13
1 2256.99 2298.15 2348.94 1 1 0 307257 12
1 2440.61 2539.48 2767.22 1 0 -1 295615 12
1 2830.63 2619.1 2698.7 0 0 -1 196019 11
1 2364.39 2635.81 2436.19 0 0 -1 295451 11
1 2722.7 2651.16 2692.12 1 -1 0 231471 13
1 2150.16 2552.75 2326.04 0 0 1 288833 12
1 2745.51 2760.75 2484.69 0 0 0 295829 10
1 2156.07 2433.47 2382.49 0 0 0 264410 12
1 2357.91 2313.15 2159.49 0 0 0 301383 11
1 2169.76 2735.7 2400.81 0 0 -1 259133 12
1 2192.33 2694.53 2187.37 1 0 2 255230 13
1 2212.7 2684.52 2741.38 0 1 -1 265942 12
1 2783.22 2210.98 2788.16 0 0 -1 288413 13
1 2604.38 2802.21 2574.58 0 0 0 298906 12
1 2151.55 2670.55 2553.36 0 0 -1 282717 12
1 2563.08 2788.22 2698.54 1 0 -1 246252 10
1 2692.57 2537.41 2640.71 0 0 0 229515 13
1 2209.73 2736.42 2484.72 0 -1 0 280696 10
1 2636.54 2472.52 2394.53 0 1 -1 303583 10
1 2654.1 2851.61 2445.14 0 -1 -1 291389 13
1 2182.02 2602.97 2856.41 0 -1 -1 266332 14
1 2597.45 2204.83 2770.64 0 0 0 254522 10
1 2723.1 2795.4 2673.9 -1 -1 0 198091 11
1 2765.13 2568.02 2327.78 0 -2 0 254277 10
1 2610.17 2536.34 2811.44 0 -1 2 227973 11
1 2184.99 2625.77 2200.4 0 0 1 286917 12
1 2816.99 2401.44 2494.04 -1 0 0 250037 9
1 2824.9 2698.79 2186.8 0 -2 0 268878 12
1 2788.42 2281.99 2727.11 -2 -2 1 299907 15
1 2719.02 2461.73 2769.21 -1 -1 0 282587 15
1 2614.96 2449.48 2774.81 0 -1 0 250138 13
1 2701.37 2302.75 2667.01 0 1 0 277889 12
1 2159.08 2577.27 2589.06 2 0 0 226029 10
1 2682.31 2626.17 2718.02 -2 -1 0 187506 10
1 2736.38 2844.53 2655.75 -1 -1 -1 192254 13
1 2318.7 2659.08 2784.01 1 -1 2 299906 12
1 2735.2 2494.1 2462.58 0 1 0 255569 11
1 2204.17 2180.04 2392.99 0 0 0 274742 12
1 2836.3 2808.61 2408.05 -1 -1 0 278943 12
1 2199.8 2695.96 2419.16 1 -1 0 254478 10
1 2841.41 2669.06 2716.17 0 -1 0 222366 13
1 2143.92 2544.54 2550.66 1 -1 0 228582 12
1 2241.83 2281.33 2720.95 0 0 0 296212 10
1 2656.41 2809.27 2561.82 0 -1 0 254170 11
1 2833.43 2490.14 2740.63 -1 0 0 266188 12
1 2790.73 2172.08 2744.62 -1 1 0 298782 16
1 2328.76 2768.77 2657.38 -1 0 -1 236448 13
1 2740.19 2558.79 2652.75 -1 0 0 184686 10
1 2772.75 2572.61 2788.38 0 0 -1 300982 12
1 2824.7 2658.48 2820.57 -1 1 0 250938 12
1 2428.76 2541.57 2454.66 0 0 0 332160 13
1 2707.17 2815.1 2267.45 0 -1 0 299012 11
1 2844.41 2778.07 2545.67 -1 0 1 279159 9
1 2750.76 2224.63 2457.76 -1 -1 -1 293951 12
1 2785.06 2630.3 2392.51 -1 1 0 227690 10
1 2142.72 2573.59 2835.67 0 0 -1 287150 12
1 2714.34 2364.41 2684.75 -1 1 0 255706 11
1 2458.8 2429.76 2657.68 0 0 0 297685 13
1 2497.38 2307.81 2504.85 0 0 0 324959 12
1 2806.87 2790.75 2644.21 -1 0 -1 205985 11
1 2634.84 2801.02 2449.83 -1 0 0 275092 11
1 2155.19 2776.23 2291.99 -1 0 -1 224803 11
1 2645.85 2257.52 2751.43 -1 1 0 319711 12
1 2823.72 2691.62 2306.72 0 0 1 194000 11
1 2771.31 2528.47 2482.07 -1 0 0 235071 13
1 2578.26 2411.17 2791 0 0 0 253870 11
1 2436.98 2854.05 2398.6 0 -1 0 284534 10
1 2736.58 2585.43 2606 -1 0 -1 225947 13
1 2597.08 2375.38 2670.83 -1 0 0 256841 11
1 2225.36 2638.56 2764.71 1 0 0 250687 12
1 2779.38 2611.46 2585.59 0 0 0 209847 10
1 2637.03 2355.8 2642.77 -1 -1 -1 277853 13
1 2577.09 2702.49 2714.65 0 0 0 309599 12
1 2731.77 2650.42 2626.86 1 -1 0 237701 12
1 2821.16 2580.06 2236.95 -1 0 0 286623 14
1 2288.59 2677.06 2665.77 1 0 -1 286589 10
1 2449.57 2813.55 2756.93 0 0 1 291525 12
1 2379.27 2730.16 2592.28 0 0 0 253312 11
1 2831.3 2707.32 2639.73 -1 0 -1 220194 13
1 2766.14 2490.08 2221.1 0 0 1 262607 13
1 2554.67 2579.88 2630.95 0 0 0 264704 10
1 2755.54 2793.83 2629.66 -1 0 0 166119 12
1 2264.09 2201.69 2400.17 0 0 0 287587 12
1 2851.53 2724.52 2275.78 -1 0 1 212548 12
1 2822.77 2646.57 2276.11 0 -1 1 236480 11
1 2180.6 2847.6 2190.61 1 1 1 283552 14
1 2842.65 2833.05 2455.29 -1 0 -1 231396 12
1 2689.58 2315.84 2425.44 0 -1 1 300616 11
1 2718.49 2476.56 2856.39 0 0 0 300148 13
1 2722.28 2294.71 2589.13 -1 1 1 286492 11
1 2774.63 2663.55 2596.25 0 0 1 245445 13
1 2838.27 2740.19 2217.17 -1 -1 1 225921 11
1 2471.02 2146.27 2198.17 0 1 1 315386 10
1 2256.03 2160.92 2702.87 1 0 0 317514 14
1 2829.18 2659.71 2664.2 0 -1 -1 180282 12
2 2274 2409.75 2847.81 0 0 -1 397720 14
2 2481 2667.42 2419.96 0 0 0 440244 16
2 2569.96 2820.03 2448.46 0 -1 0 428163 16
2 2284.5 2206.85 2808.71 0 0 0 424899 13
2 2221.36 2261.56 2811.59 0 0 -1 446330 17
2 2261.95 2326.95 2845.36 0 0 -1 426904 14
2 2808.39 2152.97 2808.19 -1 0 -1 389276 15
2 2854.33 2149.49 2740.27 -1 0 -1 404864 14
2 2825.13 2743.32 2419.73 -1 -1 0 353992 14
2 2174.65 2235.21 2153.62 0 0 0 392032 15
2 2300.89 2300.7 2194.05 0 0 0 414410 15
2 2780.52 2447.09 2846.11 -1 0 -1 356434 14
2 2333.45 2421.85 2768.34 0 0 -1 416722 14
2 2781.6 2819.91 2699.55 -1 -1 -1 313145 16
2 2229.63 2358.51 2329.13 0 0 0 407739 15
2 2822.37 2519.67 2855.73 -1 0 -1 385110 15
2 2816.87 2148.09 2263.47 -1 0 0 403009 15
2 2215.15 2803.26 2306.81 0 -1 0 419179 14
2 2834.43 2507.74 2465.99 -1 0 0 303205 16
2 2167.62 2756.42 2173.36 0 -1 0 351054 16
2 2785.44 2172.63 2189.3 -1 0 0 447810 15
2 2152.36 2600 2274.49 0 0 0 360704 15
2 2581.48 2255.63 2728.07 -1 0 0 390809 14
2 2264.97 2150.31 2355.14 0 0 0 396569 14
2 2827.79 2792.53 2762.91 -1 -1 -1 428593 16
2 2744.02 2701.08 2514.5 -1 -1 0 406877 14
2 2231.32 2662.99 2233.93 0 -1 0 395499 15
2 2226.53 2224.61 2347.49 0 0 0 372674 14
2 2814.95 2540.41 2290.57 -1 0 0 319423 16
2 2285.74 2305.23 2635.47 0 0 -1 425494 17
2 2636.61 2222.44 2609.59 -1 0 0 410685 13
2 2637.07 2530.53 2262.82 0 -1 0 454794 16
2 2738.33 2175.54 2258.7 -1 0 0 423583 13
2 2532.45 2365.62 2683.79 0 0 -1 400570 16
2 2180.77 2277.6 2448.46 0 0 0 426543 13
2 2537.36 2416.1 2849.2 0 0 -1 414882 15
2 2816.65 2424.6 2349.57 -1 0 0 364864 16
2 2347.08 2291.28 2262.66 0 0 0 437995 13
2 2450.36 2283.95 2638.47 0 0 -1 386250 15
2 2833.04 2505.35 2217.55 -1 0 0 377572 14
2 2349.71 2216.98 2757.37 0 0 -1 447928 15
2 2402.7 2674.15 2476.31 0 0 0 439042 16
2 2332.7 2472.43 2703.2 0 0 -1 456663 14
2 2222.16 2169.01 2763.48 0 0 -1 402227 14
2 2298.89 2836.02 2287.76 0 -1 0 458165 16
2 2830.13 2380.47 2846.91 -1 0 -1 423489 16
2 2502.78 2577.03 2544.62 0 -1 0 389552 14
2 2296.04 2547.16 2606.54 0 0 0 412810 13
2 2828.47 2383.64 2277.56 -1 0 0 432467 16
2 2470.94 2207.84 2834.02 0 0 -1 396437 14
2 2384.09 2532.05 2730.1 0 0 -1 395314 15
2 2218.81 2439.94 2181.8 0 0 0 424724 15
2 2541.55 2542.29 2766.56 0 -1 -1 398539 16
2 2859.53 2159.75 2149.75 -1 0 0 377976 14
2 2185.48 2356.81 2260.78 0 0 0 446677 15
2 2255.39 2342.81 2699.95 0 0 -1 377956 13
2 2334.69 2685.01 2616.97 0 -1 0 377914 17
2 2144.26 2150.26 2406.03 0 0 0 341916 15
2 2148.7 2284.7 2236.92 0 0 0 446225 16
2 2210.31 2302.08 2185.05 0 0 0 457894 14
2 2252.57 2467.63 2325.22 0 0 0 415284 15
2 2262.93 2375.98 2774.33 0 0 -1 443860 15
2 2768.66 2405.81 2680.48 -1 0 0 328634 17
2 2178.19 2799.47 2380.53 0 -1 0 386335 16
2 2787.11 2412.29 2772.56 -1 0 -1 344999 18
2 2142.23 2451.92 2158.53 0 0 0 413424 13
2 2775.33 2319.15 2855.15 -1 0 -1 379014 14
2 2329.26 2186.6 2320.43 0 0 0 434538 15
2 2828.67 2182.01 2337.68 -1 0 0 383027 13
2 2788.2 2308.7 2269.59 -1 0 0 410164 13
2 2166.75 2375.63 2184.79 0 0 0 442987 14
2 2408.58 2337.01 2843.67 0 0 -1 434016 14
2 2804.74 2696.47 2766.32 -1 -1 -1 333173 15
2 2322.93 2272.91 2839.27 0 0 -1 401867 13
2 2405.68 2462.5 2767.75 0 0 -1 439410 16
2 2575.53 2754.65 2757.07 0 -1 -1 377678 16
2 2407.88 2605.71 2754.78 0 0 -1 399891 15
2 2303.89 2226.74 2229.84 0 0 0 436468 13
2 2166.16 2491.54 2350.39 0 0 0 324477 16
2 2190.65 2509.02 2825.93 0 0 -1 449963 16
2 2378.77 2255.32 2328.28 0 0 0 439798 14
2 2212.33 2230.89 2228.37 0 0 0 415058 15
2 2298.49 2226.16 2467.71 0 0 0 360009 14
2 2798.53 2261.03 2200.1 -1 0 0 403518 14
2 2262.72 2458.37 2782.62 0 0 -1 416141 13
2 2331.1 2199.3 2156.77 0 0 0 425491 14
2 2307.26 2790.4 2719.15 0 -1 -1 412908 15
2 2818.03 2612.58 2335.29 -1 -1 0 334440 18
2 2580.58 2815.72 2638.06 -1 -1 0 391451 16
2 2218.69 2173.8 2846.45 0 0 -1 387387 14
2 2484.9 2462.57 2265.26 0 -1 0 458888 16
2 2329.72 2350.61 2730.19 0 0 -1 410698 14
2 2331.88 2351.27 2812.06 0 0 -1 390475 14
2 2275.83 2149.7 2488.13 -1 0 0 418113 15
2 2161.98 2222.18 2293.03 0 0 0 406335 15
2 2269.81 2491.59 2859.6 0 0 -1 417111 15
2 2832.42 2415.78 2430.6 -1 0 0 317676 15
2 2318.62 2555.39 2685.9 0 0 -1 437440 14
2 2742.62 2194.41 2842.09 -1 0 -1 396734 15
2 2360.77 2438.98 2445.14 0 0 0 394368 12
2 2425.85 2182.86 2769.24 0 0 -1 401794 15
2 2367.31 2512.8 2410.02 0 0 0 409485 13
2 2631.37 2452.28 2242.85 0 -1 1 463847 14
2 2543.78 2183.5 2806 0 0 -1 394912 14
2 2211.86 2285.18 2291.91 0 0 0 413057 14
2 2799.05 2670.47 2448.04 0 -1 0 381080 15
2 2600.51 2502.41 2333.02 0 0 0 426153 15
2 2650.64 2811.79 2231.5 0 -1 0 378676 13
2 2662.74 2362.5 2858.45 0 0 -1 429468 14
2 2523.9 2805.33 2288.43 0 -1 0 415764 16
2 2835.1 2265.48 2530.46 0 0 0 413281 15
2 2633 2742.53 2186.35 0 -1 0 417411 16
2 2544.84 2321.33 2459.49 0 -1 0 380300 13
2 2184.71 2346.17 2831.98 1 0 -1 446621 15
2 2606.99 2170.21 2663.15 1 0 0 411222 16
2 2676.15 2218.82 2329.03 0 0 0 410723 14
2 2454.87 2676.36 2206.57 0 -1 -1 453082 13
2 2860.15 2375.18 2770.21 0 0 -1 421104 13
2 2607.68 2158.16 2203.77 0 0 0 448729 14
2 2488.02 2802.91 2213.76 0 -1 0 408318 14
2 2521.38 2758.58 2423.1 0 -1 0 435632 14
2 2675.34 2685 2403.73 0 -1 0 384891 13
2 2450 2145.15 2332.11 0 0 0 420359 14
2 2186.23 2541.81 2721.7 0 0 -1 400879 15
2 2378.85 2209.11 2259.28 0 0 0 451758 16
2 2700.73 2806.35 2461.6 0 -1 0 363127 14
2 2728.57 2338.5 2539.54 0 0 0 354387 14
2 2254.39 2371.78 2514.96 0 0 0 414829 13
2 2172.36 2697.62 2613.59 0 -1 0 330333 15
2 2653.49 2259.97 2438.59 0 0 0 416274 15
2 2792.35 2701 2246.87 0 -1 0 309847 16
2 2328.17 2580.71 2764.74 1 0 -1 416344 14
2 2280.72 2409.76 2445.46 0 0 0 429707 16
2 2316.26 2162.61 2418.68 0 0 0 395835 14
2 2411.55 2761.92 2178.58 0 -1 0 476184 15
2 2185.11 2153.88 2334.41 0 0 0 404967 15
2 2719.1 2428.44 2464.29 -1 -1 0 396606 14
2 2788.17 2691.4 2365.29 0 -1 0 322592 14
2 2666.75 2491.33 2454.15 0 0 0 387560 14
2 2592.25 2243.65 2228.83 0 0 0 438519 14
2 2611.42 2245.05 2370.21 0 0 0 415401 15
2 2191.25 2177.42 2687.86 0 0 -1 398077 14
2 2722.95 2706.67 2198.89 0 -1 0 389055 16
2 2449.05 2286.24 2546.02 0 0 -1 382214 15
2 2202.63 2467.36 2665.61 0 0 0 449240 14
2 2561.07 2495.58 2262.78 0 0 0 437326 12
2 2722.87 2227.52 2195.67 0 0 0 389758 13
2 2254.84 2368.7 2196.61 0 0 0 427394 13
2 2202.73 2321.71 2757.51 0 0 -1 396994 13
2 2657.17 2401.96 2684.78 0 0 0 335013 15
2 2677.28 2765.83 2395.24 0 -1 0 415923 13
2 2714.56 2453.6 2247.04 0 0 0 424194 15
2 2762.32 2829.85 2140.43 0 -1 0 437796 15
2 2435.66 2852.64 2539.43 0 -1 0 400738 13
2 2304.76 2759.36 2594.57 0 -1 -1 373716 14
2 2645.41 2348.68 2550.26 0 0 0 426695 16
2 2415.42 2255.65 2402.95 0 -1 0 413888 15
2 2626.09 2335.54 2418 0 0 0 409402 15
2 2679.8 2357.53 2476.53 0 0 0 415628 17
2 2206.04 2355.15 2436.99 1 0 0 463865 17
2 2629.66 2817.03 2790.83 0 -1 -1 372779 13
2 2767.12 2322.93 2676.67 0 0 -1 343691 16
2 2357.9 2821.31 2155.56 0 -1 0 452288 15
2 2530.29 2150.08 2235.56 0 0 0 417421 14
2 2596 2206.59 2301.37 0 0 0 408247 16
2 2288.81 2712.53 2383.68 0 -1 0 423015 15
2 2654.78 2409.26 2603.34 0 0 0 344280 14
2 2610.99 2295.28 2499.13 0 0 0 432781 14
2 2412.18 2471.51 2684.24 1 0 -1 361929 12
2 2595.64 2849.34 2279.89 0 -1 0 396175 13
2 2495.65 2269.34 2417.52 0 0 0 447756 16
2 2667.22 2570.01 2824.23 1 -1 -1 370274 17
2 2775.11 2757.51 2816.61 0 -1 -1 378243 12
2 2262.46 2425.11 2706.64 1 0 0 433490 13
2 2675.32 2294.35 2363.99 0 0 0 403511 13
2 2412.67 2836.79 2214.94 0 -1 0 423548 14
2 2723.09 2266.85 2721.16 0 0 -1 351634 18
2 2536.47 2459.89 2770.11 0 -1 -1 371537 14
2 2853.04 2303.8 2156.59 0 0 0 414094 14
2 2646.68 2221.76 2166.37 0 0 0 427840 14
2 2596.29 2769.45 2278.05 0 -1 0 405990 14
2 2523.45 2182 2453.73 0 0 0 438987 16
2 2678.48 2271.89 2542.05 0 0 0 415611 16
2 2840.75 2822.39 2328.37 -1 -1 0 370494 14
2 2377.49 2413.89 2836.85 0 0 -1 406973 13
2 2777.06 2686.17 2139.92 0 -1 0 346054 16
2 2331.88 2373.2 2170.4 0 0 0 387868 14
2 2822.36 2616.9 2766.63 -1 0 -1 303064 16
2 2381.45 2683.37 2166.21 0 0 0 429625 13
2 2720.84 2236.58 2399.02 0 0 0 403517 16
2 2222.33 2418.41 2385.67 0 -1 0 433782 13
2 2750.5 2824.71 2776.17 0 -1 0 387852 15
2 2353.47 2760.53 2397.9 0 -1 0 419824 14
2 2743.02 2538.7 2840.41 0 -1 -1 381678 16
2 2381.21 2852.41 2288.94 0 -1 0 402692 13
2 2198.46 2730.61 2267.16 1 -1 0 367092 16
2 2664.05 2282.56 2217.19 0 0 0 411924 13
2 2596 2325.56 2235.17 0 -1 0 463833 13
2 2819.69 2347.53 2534.94 0 0 0 381989 14
2 2439.78 2747.16 2617.96 -1 -1 -2 402296 16
2 2730.15 2437.87 2614.91 -1 0 0 344312 16
2 2283.17 2617.66 2564.1 0 0 0 435903 14
2 2411.41 2168.76 2686.32 -1 1 -1 404154 15
2 2316.24 2789.07 2517.02 -1 0 0 451921 14
2 2674.38 2142.63 2300.82 -1 1 0 395804 15
2 2326.19 2322.26 2334.62 0 0 0 397511 15
2 2578.46 2349.54 2817.78 0 0 -1 413666 15
2 2756.5 2245.36 2552.31 -1 1 0 398004 16
2 2437.91 2528.84 2286.37 0 0 0 402530 12
2 2308.93 2458.61 2384.91 0 0 0 435894 14
2 2348.87 2631.4 2702.73 -1 0 -1 410169 16
2 2390.61 2338.35 2213.88 0 0 0 438949 15
2 2698.28 2731.6 2680.18 0 0 0 361261 17
2 2148.73 2673.09 2234.51 0 0 0 306939 15
2 2424.21 2591.21 2516.5 0 0 0 391750 15
2 2325.41 2416.46 2515.28 0 0 0 441051 16
2 2541.62 2693.19 2469.48 0 0 0 395336 12
2 2642.71 2539.27 2391.79 0 0 0 415859 15
2 2396.23 2552.24 2817.04 0 0 -1 412955 15
2 2651.49 2542.8 2696.58 0 0 -1 339459 16
2 2297.99 2616.87 2339.72 0 0 0 456330 14
2 2413.91 2189.67 2173.82 0 0 0 424081 15
2 2373.63 2524.15 2633.27 0 0 0 431887 15
2 2461.6 2331.33 2735.91 -1 0 -1 446191 16
2 2441.11 2394.71 2245.76 0 0 0 426375 13
2 2501.26 2608.06 2188.62 0 0 0 441802 15
2 2599.38 2376.54 2487.65 0 0 1 416062 12
2 2274.22 2329.09 2267.13 0 0 0 445092 15
2 2172.33 2416 2317.78 0 0 0 358724 14
2 2642.79 2416.17 2431.22 -1 0 0 393237 13
2 2363.34 2627.27 2824.13 0 0 -1 428242 15
2 2379.83 2382.05 2314.3 0 0 0 440346 13
2 2410.02 2659.57 2636.14 0 0 -1 394022 16
2 2494.39 2477.25 2165.52 0 0 0 439845 14
2 2471.82 2587.12 2804.1 0 0 -1 388705 13
2 2785.74 2555.68 2723.3 -1 0 -1 313283 17
2 2348.24 2497.43 2168.19 0 0 0 417734 14
2 2365.06 2514.21 2325.92 0 0 0 433899 14
2 2429.05 2493.76 2212.04 0 0 0 436193 15
2 2707.75 2419.5 2820.99 -1 0 -1 348255 14
2 2757.07 2397.15 2399.23 -1 0 0 393952 14
2 2677.16 2365.37 2219.79 0 0 0 465294 16
2 2275.28 2344.81 2395.19 0 0 0 385482 14
2 2342.42 2713.14 2537.42 0 0 -1 404585 14
2 2722.31 2257.37 2271.62 -1 0 0 436422 14
2 2564.31 2559.56 2380.34 0 0 0 423868 14
2 2565.04 2777.89 2355.45 0 0 0 419033 13
2 2663.62 2397.76 2294.04 0 0 0 460718 14
2 2572.41 2398.91 2266.97 0 0 0 505051 17
2 2402.33 2455.36 2282.9 0 0 0 429847 13
2 2689.45 2604.03 2653.72 -1 0 -1 267592 15
2 2514.85 2528.18 2322.29 0 0 0 437277 16
2 2847.29 2540.67 2779.91 -1 0 -1 340419 14
2 2320.13 2463.26 2277.1 0 0 0 457304 17
2 2392.38 2781.14 2548.22 -1 0 0 370887 15
2 2189.56 2515.02 2188.67 0 0 0 442283 16
2 2615.5 2343.6 2335.41 -1 0 -1 453299 14
2 2429.65 2323.43 2286.47 0 0 0 442221 14
2 2153.65 2698.53 2470.1 0 0 0 355820 15
2 2423.89 2630.64 2356.76 0 0 0 431686 14
2 2336.06 2149.1 2221.63 0 0 0 440902 14
2 2383.44 2397.03 2691.03 0 1 -1 429865 15
2 2300.7 2538.98 2369.48 0 0 0 419280 15
2 2324.76 2235.61 2385.79 0 0 0 397990 15
2 2612.53 2634.21 2388.07 -1 0 0 426575 14
2 2455.77 2548.97 2156.15 0 0 0 424437 13
2 2289.1 2854.67 2848.1 -1 0 -1 420380 15
2 2481.57 2449.21 2548.91 0 0 0 403812 13
2 2458.58 2472.82 2342.15 0 0 0 421779 13
2 2261.39 2538.33 2790.58 0 0 -1 413688 13
2 2787.47 2848.89 2384.22 -1 0 -1 360821 12
2 2229.66 2845.66 2424.11 0 -1 0 410527 16
2 2604.02 2593.19 2774.46 0 0 -1 360337 14
2 2271.3 2618.18 2809.92 0 0 -1 372232 15
2 2155.23 2227.82 2386.3 0 0 0 378315 15
2 2297.43 2488.2 2461.83 0 0 0 435518 13
2 2543.62 2576.95 2843.29 0 0 -1 441624 17
2 2256.69 2165.47 2199.91 0 1 0 418807 15
2 2544.16 2762.53 2588.02 -1 0 0 440760 15
2 2141.62 2281.86 2798.26 1 1 -1 448574 17
2 2695.67 2286.11 2140.92 -1 1 0 403202 15
2 2195.58 2584.63 2792.77 0 0 -1 358194 14
2 2380.48 2278.61 2499.76 0 0 0 384641 15
2 2488.21 2683.76 2634.19 -1 0 0 444245 14
2 2453.05 2748.33 2780.22 -1 0 -1 381307 13
2 2350.13 2376.98 2391.07 0 0 0 411975 15
2 2851.51 2741.07 2343.15 -1 1 -2 329426 16
2 2338.06 2713.22 2696.27 -1 -1 0 323611 15
2 2314.38 2565.08 2447.42 0 0 0 391464 14
2 2140.57 2771.65 2609.7 0 0 0 344992 15
2 2273.73 2614.19 2648.96 0 0 0 380211 14
2 2203.13 2623.34 2609.62 0 0 -1 336261 16
2 2545.02 2651.46 2683 0 0 -1 423152 15
2 2293.72 2547.52 2204.31 0 0 0 446444 15
2 2376.85 2206.44 2456.44 0 0 0 416253 15
2 2789.49 2303.76 2599 -1 1 -1 398424 16
2 2173.02 2625.39 2723.46 0 0 -1 291166 15
2 2329.22 2385.06 2251.33 0 0 0 440544 15
2 2300.81 2400.15 2328.29 0 0 0 437732 14
2 2482.01 2144.34 2721.81 -1 1 0 361169 16
2 2392.03 2232.01 2826.8 0 0 0 418960 16
2 2837.12 2601.26 2423.84 -1 0 0 338434 15
2 2150.27 2580.51 2656.98 0 0 0 324879 16
2 2659.35 2425.22 2521.36 -1 0 0 413911 15
2 2734.16 2753.76 2269.27 -1 -1 0 362929 15
2 2847.42 2339.24 2456.37 -1 0 0 393185 15
2 2846.29 2721.79 2832.01 -1 -1 0 388974 15
2 2278.12 2819.54 2647.11 0 -1 0 384576 15
2 2373.83 2294.16 2773.3 0 0 0 430317 14
2 2496.61 2800.44 2644.19 -1 -1 0 397507 15
2 2497.72 2514.23 2401.76 0 0 0 418106 13
2 2146.23 2656.07 2154.58 -1 0 0 306213 16
2 2811.42 2778.26 2267.66 -1 -1 0 321800 16
2 2288.22 2256.13 2305.6 0 0 0 411287 14
2 2822.77 2227.57 2601.54 -1 0 0 385676 14
2 2269.85 2688.47 2306.15 0 -1 0 434187 14
2 2140.12 2819.42 2676.49 0 -1 0 369000 14
2 2698.83 2188.62 2568.78 -1 0 0 435930 15
2 2351.07 2789.63 2244.01 0 -1 1 415948 14
2 2215.36 2571.55 2548.27 0 -1 -1 391837 15
2 2723.23 2623.34 2202.38 -1 -1 0 461073 16
2 2314.54 2340.24 2566.01 0 0 0 396161 14
2 2820.46 2538.7 2373.69 -1 -1 -1 311443 15
2 2273.98 2759.91 2839.76 0 -1 0 421865 15
2 2167.71 2277.21 2591.91 0 0 0 401774 15
2 2156.21 2437.55 2237.93 0 0 0 392728 16
2 2713.89 2244.49 2631.61 -1 0 -1 371881 16
2 2784.77 2242.4 2672.3 -1 0 0 391124 16
2 2713.79 2399 2742.01 -1 0 0 318728 15
2 2663.97 2468.38 2730.94 0 0 -1 359019 17
2 2654.86 2723.53 2757.65 0 -1 -1 408991 15
2 2329.84 2185.26 2684.85 0 0 0 401051 15
2 2479.22 2598.38 2303.33 0 0 0 426962 14
2 2761.61 2178.66 2622.31 -1 0 0 325105 15
2 2239.19 2497.29 2402.06 0 0 0 421215 15
2 2156.69 2200.7 2800.63 0 0 0 396808 14
2 2651.95 2712.2 2273.68 -1 -1 0 399184 15
2 2665.45 2476.25 2649.55 0 0 0 335263 15
2 2570.28 2463.96 2189.52 0 -1 1 421838 15
2 2520.19 2446.3 2681.69 0 0 0 400733 15
2 2616.61 2435.31 2840.69 0 -1 -1 381852 15
2 2186.72 2318.79 2660.88 0 0 0 406544 15
2 2489.21 2349.62 2831.63 0 0 0 443688 15
2 2249.07 2685.79 2463.87 -1 -1 0 362788 14
2 2618.4 2750.59 2686.57 -1 0 0 399985 14
2 2491.9 2210.3 2193.12 0 0 1 389551 13
2 2624.23 2776.88 2513.23 -1 -1 0 383601 16
2 2847.68 2460.5 2799.72 -1 0 -1 391576 13
2 2563.07 2186.92 2581.89 -1 0 0 415793 16
2 2316.74 2232.27 2618.69 0 0 0 408299 17
2 2697.49 2562.57 2483.46 -1 0 0 413088 15
2 2254.55 2606.7 2484.98 0 -1 -1 401315 14
2 2836.68 2801.73 2844.97 -1 -1 0 422763 14
2 2188.33 2388.16 2707.24 0 0 0 442232 15
2 2379.62 2573.87 2175.75 0 -1 0 446431 14
2 2589.39 2698.35 2616.85 0 0 0 430734 16
2 2792.28 2491.63 2536.46 -1 0 0 341790 16
2 2157.54 2574.87 2490.81 0 -1 0 341525 15
2 2496.88 2226.05 2756.59 0 0 0 444035 16
2 2189.91 2242.51 2738.22 0 0 0 394828 14
2 2256.19 2178.23 2635.54 0 0 0 382100 14
2 2382.73 2590.5 2297.85 0 -1 0 459397 15
2 2746.1 2264.94 2799.71 -1 0 0 387595 16
2 2193.13 2241.87 2520.17 0 0 0 388461 14
2 2220.76 2822.77 2707.03 0 -1 0 402168 15
2 2176.2 2320.86 2520.05 0 0 0 425045 12
2 2399.84 2373.09 2769.1 0 0 0 439406 14
2 2564.04 2627.08 2514.16 0 -1 0 439038 16
2 2351.03 2603.31 2625.44 0 0 0 416364 13
2 2324.56 2274.43 2702.05 0 0 0 409863 15
2 2858.65 2578 2182.2 -1 -1 0 347043 15
2 2608.94 2621.35 2638.32 -1 0 0 329056 15
2 2157.6 2359.91 2592.85 0 0 0 432572 14
2 2800.62 2227.79 2275.27 -1 0 1 412815 15
2 2460.6 2177.15 2604.71 0 0 0 370835 13
2 2378.53 2430.85 2206.01 0 0 1 444261 14
2 2427.19 2253.13 2728.11 0 0 0 437150 14
2 2225.11 2544.75 2647.76 0 0 0 423966 16
2 2385.76 2241.05 2659.95 0 0 0 363733 13
2 2377.43 2353.13 2621.37 0 0 0 347824 14
2 2375.31 2738.26 2825.71 -1 -1 -1 444643 17
2 2847.38 2504.57 2676.67 -1 0 0 338257 16
2 2508.62 2401.15 2612.02 -1 0 0 404100 16
2 2839.24 2363.86 2665.71 -1 0 0 363703 13
2 2479.51 2574.3 2722.81 0 0 0 385122 15
2 2158.88 2724.87 2748.17 0 -1 0 349178 13
2 2840.7 2426.57 2552.01 -1 0 0 350081 15
2 2443.05 2268.83 2160.09 0 0 1 415517 14
2 2335.39 2501.31 2789.87 0 0 0 423687 15
2 2738.79 2629.41 2343.34 -1 0 0 324674 15
2 2688.61 2151.76 2187.23 -1 0 0 469408 16
2 2830.79 2295.09 2386.74 -1 0 0 374069 13
2 2147.26 2246.64 2668.27 0 0 0 376514 13
2 2356.47 2830.3 2664.76 0 -1 0 344054 15
2 2551.26 2512.34 2533.95 0 0 0 398430 15
2 2792.43 2385.59 2603.35 -1 0 0 397133 16
2 2841.15 2634.46 2601.5 -2 -1 0 278480 16
2 2169.31 2488.01 2524.22 0 0 0 383050 16
2 2239.82 2498.2 2572.54 0 0 0 431549 14
2 2174.1 2733.9 2541 0 -1 0 349730 15
2 2810.89 2744.16 2499.24 0 0 0 388989 16
2 2513.94 2286.99 2692.62 1 1 -1 435059 15
2 2688.05 2605.69 2402.77 0 0 0 389616 15
2 2429.71 2658.23 2281.02 0 0 0 400430 12
2 2225.61 2544.32 2334.48 1 0 0 425735 16
2 2617.24 2219.5 2529.9 0 0 0 427614 15
2 2670.2 2490.24 2808.97 0 0 -1 337816 14
2 2435.98 2590.4 2233.27 0 0 -1 438635 14
2 2613.33 2423.11 2354.21 0 0 0 432202 15
2 2554.13 2578.41 2270.33 0 0 0 409421 15
2 2571.26 2803.59 2206.93 0 -1 0 429713 15
2 2540.21 2255.88 2515.7 0 0 0 398833 15
2 2189.19 2462.26 2746.33 1 0 -1 452807 16
2 2529.77 2627 2762.32 1 0 -1 450198 16
2 2717.09 2356.32 2618.6 0 1 -1 344774 15
2 2604.97 2173.16 2464.25 0 0 0 387526 14
2 2495.95 2432.48 2402.53 0 0 0 427524 13
2 2457.87 2649.41 2702.88 0 0 -1 393631 13
2 2428.44 2546.62 2366.67 0 0 0 441781 15
2 2779.85 2475.16 2413.13 0 0 0 335017 16
2 2592.16 2574.97 2572.33 0 0 -1 357126 16
2 2491.75 2350.87 2404.83 0 0 0 417750 14
2 2775.43 2558.95 2193.33 0 0 0 373048 15
2 2518.68 2275.59 2853 0 0 -1 445189 15
2 2305.4 2623.79 2175.85 1 0 0 468268 15
2 2507.09 2831.94 2384.23 0 -1 0 454609 16
2 2737.29 2312.54 2207.09 0 0 -1 403952 14
2 2782.1 2807.21 2453.91 0 0 0 363140 16
2 2830.24 2174.56 2666.7 0 0 -1 400220 16
2 2141.66 2673.97 2392.43 1 0 0 369780 17
2 2839.66 2430.92 2712.37 -1 1 -1 359987 15
2 2758.07 2822.89 2223.76 0 -1 0 398101 13
2 2373.3 2505.46 2492 0 0 0 416023 15
2 2254.29 2267.45 2412.51 0 0 0 376156 15
2 2672.05 2227.28 2806.96 0 0 -1 427252 16
2 2511.89 2474 2472.93 0 0 0 442365 16
2 2378.25 2682.11 2763.19 0 0 -1 391340 15
2 2590.81 2335.94 2738.15 0 0 -1 410627 17
2 2232.02 2756.2 2424.73 -1 0 0 375830 14
2 2692.45 2209.29 2489.67 0 0 0 437267 15
2 2173.17 2839.87 2804.36 1 -1 -1 414024 14
2 2554.18 2707.31 2308.16 0 0 0 422927 14
2 2468.51 2339.23 2191.61 0 0 0 426294 14
2 2200.9 2839.36 2626.81 1 0 0 428351 15
2 2574.22 2173.19 2388.31 0 0 0 401113 15
2 2330.03 2803.36 2798.07 0 0 -1 401197 13
2 2661.7 2204.6 2247.5 0 0 0 421507 14
2 2674.08 2603.45 2264.81 0 0 0 418071 15
2 2803.27 2635.43 2200.83 0 0 0 366411 17
2 2497.57 2535.24 2227.79 1 0 0 435735 14
2 2280.83 2472.71 2639.71 1 0 -1 447103 15
2 2714.57 2717.21 2339.82 0 -1 0 411799 15
2 2564.83 2389.13 2413.2 0 0 0 432312 15
2 2507.72 2392.61 2474.74 0 0 0 465715 16
2 2543.45 2765.39 2505.31 0 0 -1 429145 15
2 2254.67 2687.27 2601.98 0 0 0 400839 15
2 2657.18 2300.6 2614.4 0 0 0 345300 12
2 2799.64 2642.76 2528.46 -1 0 0 352886 17
2 2192.57 2298.25 2370.4 0 0 0 394059 15
2 2575.91 2694.14 2149.18 0 -1 0 439980 14
2 2459.56 2638.15 2574.61 0 0 0 406436 12
2 2565.64 2212.62 2158.51 0 0 0 438047 13
2 2644.69 2620.96 2527.51 0 0 -1 375247 13
2 2569.14 2471.71 2403.95 0 0 0 411631 14
2 2364.04 2679.49 2384.7 0 0 -1 435089 15
2 2839.75 2819.36 2202.75 -1 0 1 363454 15
2 2698.82 2647.71 2473.01 0 0 0 435989 16
2 2706.21 2841.59 2374.22 0 -1 0 461388 17
2 2363.53 2529.37 2244.81 0 0 0 454922 15
2 2618.7 2168.2 2831.44 0 0 -1 426319 17
2 2824.91 2836 2519.54 0 0 0 352362 16
2 2774.2 2771.42 2360.9 0 0 0 435840 17
2 2249.28 2815.84 2786.3 0 0 -1 421563 15
2 2752.75 2313.93 2404.64 0 0 0 386136 15
2 2793.86 2328.25 2775.75 0 0 -1 358620 13
2 2407.67 2211.87 2541.49 0 0 0 401375 15
2 2418.82 2480.98 2850.61 0 0 -1 424749 15
2 2737 2420.44 2322.87 0 0 0 426175 14
2 2590.12 2679.04 2788.03 0 -1 -1 447900 16
2 2816.56 2229.34 2846.18 0 0 -1 396871 15
2 2393.84 2316.55 2692.28 0 0 0 388339 13
2 2548.77 2335.75 2539.21 0 1 0 405985 14
2 2758.48 2599.31 2445.52 0 0 0 325391 14
2 2669.01 2678.03 2624.88 0 0 0 372200 15
2 2459.7 2390.93 2327.25 0 0 0 474617 15
2 2758.81 2831.2 2307.58 0 0 0 406481 15
2 2239.85 2451.38 2505.03 0 0 0 441112 14
2 2857.99 2210.21 2463.98 -1 1 0 406324 15
2 2190.57 2631.74 2441.64 0 -1 -1 387871 16
2 2714.46 2543.4 2763.35 0 0 -1 330465 15
2 2737.63 2157.94 2442.93 0 1 0 397720 15
2 2455.57 2228.08 2319.43 0 0 0 454371 15
2 2441.46 2331.68 2475.48 0 0 0 401161 15
2 2798.2 2431.91 2203.78 0 0 0 404185 14
2 2748.27 2185.68 2340.77 0 1 0 438094 15
2 2358.03 2443.99 2627.93 0 0 -1 398466 14
2 2521.41 2282.72 2215.81 0 0 0 408160 14
2 2435.21 2627.27 2143.65 1 0 0 433467 14
2 2651.57 2662.66 2208.81 0 0 0 434037 16
2 2561.13 2497.52 2837.3 0 0 -1 378602 15
2 2726.23 2183 2762 0 0 0 336531 16
2 2478.26 2215.34 2676.19 0 0 0 426961 15