LAMMPS (23 Jun 2022 - Update 1)
OMP_NUM_THREADS environment is not set. Defaulting to 1 thread. (src/comm.cpp:98)
  using 1 OpenMP thread(s) per MPI task

# Init #
dimension   3
boundary    p p p
units       real
atom_style  atomic

# Atom Definition #
read_data ${input_data}
read_data ./pgnpmf/46/dat46.dat
Reading data file ...
  orthogonal box = (-100 -100 -100) to (5100 5100 5100)
  1 by 1 by 1 MPI processor grid
  reading atoms ...
  1000 atoms
  read_data CPU = 0.008 seconds

# Settings #
pair_style table spline 9941

pair_coeff 1 1 ./pgnpmf/N20.txt DE_GNP 75.6
pair_coeff 2 2 ./pgnpmf/N100.txt DE_GNP 115.92
WARNING: 3 of 9941 force values in table DE_GNP are inconsistent with -dE/dr.
WARNING:  Should only be flagged at inflection points (src/pair_table.cpp:463)
pair_coeff 1 2 ./pgnpmf/mixed_potential.txt DE_GNP 95.66
WARNING: 1562 of 9941 force values in table DE_GNP are inconsistent with -dE/dr.
WARNING:  Should only be flagged at inflection points (src/pair_table.cpp:463)

# Neighbor list calc frequency #
neigh_modify delay 0 every 1 check yes

# Saving frequency #
variable ts_save equal floor(${steps_gen}*0.01)
variable ts_save equal floor(5000*0.01)

# Dump #
dump 1 all custom 5000 ./pgnpmf/${folder}/generation/trajectory/trajectory_${usic}_${trial}.gen.custom type x y z ix iy iz
dump 1 all custom 5000 ./pgnpmf/46/generation/trajectory/trajectory_${usic}_${trial}.gen.custom type x y z ix iy iz
dump 1 all custom 5000 ./pgnpmf/46/generation/trajectory/trajectory_1_${trial}.gen.custom type x y z ix iy iz
dump 1 all custom 5000 ./pgnpmf/46/generation/trajectory/trajectory_1_1.gen.custom type x y z ix iy iz
dump_modify 1 first no sort id
dump 2 all cfg 5000 ./pgnpmf/${folder}/generation/trajectory/dumpgen.tens_*.cfg mass type xs ys zs fx fy fz
dump 2 all cfg 5000 ./pgnpmf/46/generation/trajectory/dumpgen.tens_*.cfg mass type xs ys zs fx fy fz
dump_modify 2 element N20 N100

# Fix #
fix 1 all momentum 1000 linear 1 1 1 angular

variable T equal ${Temp}
variable T equal 300

# Velocity #
velocity all create ${T} ${Vseed} mom yes rot yes dist gaussian
velocity all create 300 ${Vseed} mom yes rot yes dist gaussian
velocity all create 300 57138 mom yes rot yes dist gaussian

fix 2 all nvt temp ${T} 370000 100.0 #iso 1.0 1.0 1000.0
fix 2 all nvt temp 300 370000 100.0 
run ${steps_gen}
run 5000
Generated 0 of 1 mixed pair_coeff terms from geometric mixing rule
Neighbor list info ...
  update every 1 steps, delay 0 steps, check yes
  max neighbors/atom: 2000, page size: 100000
  master list distance cutoff = 117.92
  ghost atom cutoff = 117.92
  binsize = 58.96, bins = 89 89 89
  1 neighbor lists, perpetual/occasional/extra = 1 0 0
  (1) pair table, perpetual
      attributes: half, newton on
      pair build: half/bin/atomonly/newton
      stencil: half/bin/3d
      bin: standard
Per MPI rank memory allocation (min/avg/max) = 8.913 | 8.913 | 8.913 Mbytes
   Step          Temp          E_pair         E_mol          TotEng         Press     
         0   300           -279785.41      0             -278892.06     -0.035116695  
      5000   357260.23     -344931.63      0              718928.32      0.30360747   
Loop time of 0.117613 on 1 procs for 5000 steps with 1000 atoms

Performance: 3673.061 ns/day, 0.007 hours/ns, 42512.285 timesteps/s
99.0% CPU use with 1 MPI tasks x 1 OpenMP threads

MPI task timing breakdown:
Section |  min time  |  avg time  |  max time  |%varavg| %total
---------------------------------------------------------------
Pair    | 0.020355   | 0.020355   | 0.020355   |   0.0 | 17.31
Neigh   | 0.0082542  | 0.0082542  | 0.0082542  |   0.0 |  7.02
Comm    | 0.0090986  | 0.0090986  | 0.0090986  |   0.0 |  7.74
Output  | 0.0044873  | 0.0044873  | 0.0044873  |   0.0 |  3.82
Modify  | 0.062571   | 0.062571   | 0.062571   |   0.0 | 53.20
Other   |            | 0.01285    |            |       | 10.92

Nlocal:           1000 ave        1000 max        1000 min
Histogram: 1 0 0 0 0 0 0 0 0 0
Nghost:            201 ave         201 max         201 min
Histogram: 1 0 0 0 0 0 0 0 0 0
Neighs:             56 ave          56 max          56 min
Histogram: 1 0 0 0 0 0 0 0 0 0

Total # of neighbors = 56
Ave neighs/atom = 0.056
Neighbor list builds = 13
Dangerous builds = 0

fix 3 all nvt temp 370000 370000 100.0
run 400000
Generated 0 of 1 mixed pair_coeff terms from geometric mixing rule
WARNING: One or more atoms are time integrated more than once (src/modify.cpp:292)
Per MPI rank memory allocation (min/avg/max) = 8.913 | 8.913 | 8.913 Mbytes
   Step          Temp          E_pair         E_mol          TotEng         Press     
      5000   357260.23     -344931.63      0              718928.32      0.30360747   
    405000   370069.37     -219788.03      0              882215.35      0.34831471   
Loop time of 17.4232 on 1 procs for 400000 steps with 1000 atoms

Performance: 1983.559 ns/day, 0.012 hours/ns, 22957.853 timesteps/s
98.9% CPU use with 1 MPI tasks x 1 OpenMP threads

MPI task timing breakdown:
Section |  min time  |  avg time  |  max time  |%varavg| %total
---------------------------------------------------------------
Pair    | 1.6488     | 1.6488     | 1.6488     |   0.0 |  9.46
Neigh   | 3.3826     | 3.3826     | 3.3826     |   0.0 | 19.41
Comm    | 0.87406    | 0.87406    | 0.87406    |   0.0 |  5.02
Output  | 0.46133    | 0.46133    | 0.46133    |   0.0 |  2.65
Modify  | 9.9983     | 9.9983     | 9.9983     |   0.0 | 57.38
Other   |            | 1.058      |            |       |  6.07

Nlocal:           1000 ave        1000 max        1000 min
Histogram: 1 0 0 0 0 0 0 0 0 0
Nghost:            205 ave         205 max         205 min
Histogram: 1 0 0 0 0 0 0 0 0 0
Neighs:             33 ave          33 max          33 min
Histogram: 1 0 0 0 0 0 0 0 0 0

Total # of neighbors = 33
Ave neighs/atom = 0.033
Neighbor list builds = 5326
Dangerous builds = 0

fix 4 all nvt temp 370000 ${T} 100.0
fix 4 all nvt temp 370000 300 100.0
run ${steps_gen}
run 5000
Generated 0 of 1 mixed pair_coeff terms from geometric mixing rule
WARNING: One or more atoms are time integrated more than once (src/modify.cpp:292)
Per MPI rank memory allocation (min/avg/max) = 8.913 | 8.913 | 8.913 Mbytes
   Step          Temp          E_pair         E_mol          TotEng         Press     
    405000   370069.37     -219788.03      0              882215.35      0.34831471   
    410000   32985.344     -224950.08      0             -126725.36      0.050177672  
Loop time of 0.287731 on 1 procs for 5000 steps with 1000 atoms

Performance: 1501.400 ns/day, 0.016 hours/ns, 17377.313 timesteps/s
99.0% CPU use with 1 MPI tasks x 1 OpenMP threads

MPI task timing breakdown:
Section |  min time  |  avg time  |  max time  |%varavg| %total
---------------------------------------------------------------
Pair    | 0.018813   | 0.018813   | 0.018813   |   0.0 |  6.54
Neigh   | 0.052175   | 0.052175   | 0.052175   |   0.0 | 18.13
Comm    | 0.0098679  | 0.0098679  | 0.0098679  |   0.0 |  3.43
Output  | 0.0085556  | 0.0085556  | 0.0085556  |   0.0 |  2.97
Modify  | 0.185      | 0.185      | 0.185      |   0.0 | 64.29
Other   |            | 0.01332    |            |       |  4.63

Nlocal:           1000 ave        1000 max        1000 min
Histogram: 1 0 0 0 0 0 0 0 0 0
Nghost:            202 ave         202 max         202 min
Histogram: 1 0 0 0 0 0 0 0 0 0
Neighs:             31 ave          31 max          31 min
Histogram: 1 0 0 0 0 0 0 0 0 0

Total # of neighbors = 31
Ave neighs/atom = 0.031
Neighbor list builds = 83
Dangerous builds = 0


# Thermo #
thermo_style custom step temp press pe ke etotal epair lx ly lz xlo xhi ylo yhi zlo zhi vol density dt time

# Run stle #
run_style verlet

# Run #
timestep ${ts}
timestep 1
thermo ${ts_save}
thermo 50
# run ${steps_gen}

# write restart #
write_restart ${write_restart}
write_restart ./pgnpmf/46/genpmf.res
System init for write_restart ...
Generated 0 of 1 mixed pair_coeff terms from geometric mixing rule
WARNING: One or more atoms are time integrated more than once (src/modify.cpp:292)


Total wall time: 0:00:17
