LAMMPS (23 Jun 2022 - Update 1)
# Read restart
read_restart ${read_res}
read_restart ./pgnpmf/46/equpmf20.res
Reading restart file ...
  restart file = 23 Jun 2022, LAMMPS = 23 Jun 2022
  restoring atom style atomic from restart
  orthogonal box = (2026.7951 2026.7951 2026.7951) to (2973.2049 2973.2049 2973.2049)
  1 by 2 by 2 MPI processor grid
  restoring pair style table from restart
  1000 atoms
  read_restart CPU = 0.006 seconds

# Settings

pair_style table spline 9941

pair_coeff 1 1 ./pgnpmf/N20.txt DE_GNP 75.6
pair_coeff 2 2 ./pgnpmf/N100.txt DE_GNP 115.92
WARNING: 3 of 9941 force values in table DE_GNP are inconsistent with -dE/dr.
WARNING:  Should only be flagged at inflection points (../pair_table.cpp:463)
pair_coeff 1 2 ./pgnpmf/mixed_potential.txt DE_GNP 95.66
WARNING: 1562 of 9941 force values in table DE_GNP are inconsistent with -dE/dr.
WARNING:  Should only be flagged at inflection points (../pair_table.cpp:463)

#Neigh_list Calc Frequency

neigh_modify delay 0 every 1 check yes

# Saving Frequency (50 frames)

variable ts_save equal ${steps_equ}
variable ts_save equal 5000

# Dump
#dump 1 all custom ${ts_save} ./pgnpmf/${folder}/equilibration/trajectory/trajectory_${usic}_${trial}.equ.custom type x y z ix iy iz
#dump_modify 1 first no sort id
dump 2 all cfg 50000 ./pgnpmf/${folder}/equilibration/trajectory/dumpgen.tens_*.cfg mass type xs ys zs fx fy fz
dump 2 all cfg 50000 ./pgnpmf/46/equilibration/trajectory/dumpgen.tens_*.cfg mass type xs ys zs fx fy fz
dump_modify 2 element N20 N100

# thermo_style
thermo_style custom step temp press pe density ke etotal lx ly lz xlo xhi ylo yhi zlo zhi vol dt time cpu tpcpu spcpu cpuremain

# run info
timestep ${ts}
timestep 0.5
thermo 200

# fix

fix 1 all momentum 1000 linear 1 1 1 angular
variable T equal ${temp}
variable T equal 300
fix 2 all nvt temp ${T} 370000 100.0
fix 2 all nvt temp 300 370000 100.0

run 100000
Generated 0 of 1 mixed pair_coeff terms from geometric mixing rule
Unused restart file global fix info:
  fix style: npt, fix ID: 5
Neighbor list info ...
  update every 1 steps, delay 0 steps, check yes
  max neighbors/atom: 2000, page size: 100000
  master list distance cutoff = 117.92
  ghost atom cutoff = 117.92
  binsize = 58.96, bins = 17 17 17
  1 neighbor lists, perpetual/occasional/extra = 1 0 0
  (1) pair table, perpetual
      attributes: half, newton on
      pair build: half/bin/atomonly/newton
      stencil: half/bin/3d
      bin: standard
Per MPI rank memory allocation (min/avg/max) = 3.084 | 3.088 | 3.091 Mbytes
   Step          Temp          Press          PotEng        Density         KinEng         TotEng           Lx             Ly             Lz            Xlo            Xhi            Ylo            Yhi            Zlo            Zhi           Volume           Dt            Time           CPU           T/CPU          S/CPU         CPULeft    
  14410000   308.91986     -1.6753259     -29332187       0.66988571     919.91059     -29331267       946.40976      946.40976      946.40976      2026.7951      2973.2049      2026.7951      2973.2049      2026.7951      2973.2049      8.476911e+08   0.5            7410000        0              0              0              0            
  14410200   404.72649     -1.9429695     -29332304       0.66988571     1205.2064     -29331099       946.40976      946.40976      946.40976      2026.7951      2973.2049      2026.7951      2973.2049      2026.7951      2973.2049      8.476911e+08   0.5            7410100        0.011752118    8508.6433      17016.047      5.8654192    
  14410400   610.49487     -2.4362146     -29339822       0.66988571     1817.9495     -29338004       946.40976      946.40976      946.40976      2026.7951      2973.2049      2026.7951      2973.2049      2026.7951      2973.2049      8.476911e+08   0.5            7410200        0.022776387    9070.9769      18142.102      5.671836     
  14410600   958.60885     -2.8817359     -29339996       0.66988571     2854.5735     -29337141       946.40976      946.40976      946.40976      2026.7951      2973.2049      2026.7951      2973.2049      2026.7951      2973.2049      8.476911e+08   0.5            7410300        0.03363293     9211.0454      18422.16       5.5721905    
  14410800   1513.9632     -3.4180166     -29340214       0.66988571     4508.324      -29335705       946.40976      946.40976      946.40976      2026.7951      2973.2049      2026.7951      2973.2049      2026.7951      2973.2049      8.476911e+08   0.5            7410400        0.04463319     9090.6901      18181.476      5.53475      
  14411000   2351.3505     -4.0189954     -29340483       0.66988571     7001.9203     -29333481       946.40976      946.40976      946.40976      2026.7951      2973.2049      2026.7951      2973.2049      2026.7951      2973.2049      8.476911e+08   0.5            7410500        0.055600798    9117.721       18235.297      5.5046854    
  14411200   3515.7176     -4.8128856     -29340812       0.66988571     10469.207     -29330343       946.40976      946.40976      946.40976      2026.7951      2973.2049      2026.7951      2973.2049      2026.7951      2973.2049      8.476911e+08   0.5            7410600        0.066548351    9134.5732      18269.166      5.4793013    
  14411400   4941.4041     -5.7378006     -29341209       0.66988571     14714.658     -29326494       946.40976      946.40976      946.40976      2026.7951      2973.2049      2026.7951      2973.2049      2026.7951      2973.2049      8.476911e+08   0.5            7410700        0.077526685    9108.8768      18217.762      5.460224     
  14411600   6346.9106     -6.8306416     -29341661       0.66988571     18900.016     -29322761       946.40976      946.40976      946.40976      2026.7951      2973.2049      2026.7951      2973.2049      2026.7951      2973.2049      8.476911e+08   0.5            7410800        0.088833523    8844.1399      17688.306      5.463381     
  14411800   7289.8837     -8.2332881     -29342159       0.66988571     21708.029     -29320451       946.40976      946.40976      946.40976      2026.7951      2973.2049      2026.7951      2973.2049      2026.7951      2973.2049      8.476911e+08   0.5            7410900        0.099847124    9079.699       18159.339      5.447321     
  14412000   7649.6612     -9.3926247     -29342664       0.66988571     22779.385     -29319884       946.40976      946.40976      946.40976      2026.7951      2973.2049      2026.7951      2973.2049      2026.7951      2973.2049      8.476911e+08   0.5            7411000        0.11077812     9148.283       18296.541      5.4282239    
  14412200   8086.4817     -10.219396     -29335419       0.66988571     24080.162     -29311338       946.40976      946.40976      946.40976      2026.7951      2973.2049      2026.7951      2973.2049      2026.7951      2973.2049      8.476911e+08   0.5            7411100        0.12208247     8846.0817      17692.101      5.4272135    
  14412400   9105.9477     -10.996881     -29334039       0.66988571     27115.957     -29306923       946.40976      946.40976      946.40976      2026.7951      2973.2049      2026.7951      2973.2049      2026.7951      2973.2049      8.476911e+08   0.5            7411200        0.13302224     9141.0812      18282.229      5.4096494    
  14412600   10216.992     -12.173298     -29342314       0.66988571     30424.457     -29311889       946.40976      946.40976      946.40976      2026.7951      2973.2049      2026.7951      2973.2049      2026.7951      2973.2049      8.476911e+08   0.5            7411300        0.14391105     9183.7645      18367.59       5.3912004    
  14412800   10815.245     -13.612524     -29349866       0.66988571     32205.954     -29317660       946.40976      946.40976      946.40976      2026.7951      2973.2049      2026.7951      2973.2049      2026.7951      2973.2049      8.476911e+08   0.5            7411400        0.15480642     9178.2333      18356.522      5.3740557    
  14413000   11139.715     -14.892023     -29350396       0.66988571     33172.169     -29317223       946.40976      946.40976      946.40976      2026.7951      2973.2049      2026.7951      2973.2049      2026.7951      2973.2049      8.476911e+08   0.5            7411500        0.1657096      9171.5605      18343.081      5.3580047    
  14413200   11897.469     -16.10993      -29351299       0.66988571     35428.631     -29315870       946.40976      946.40976      946.40976      2026.7951      2973.2049      2026.7951      2973.2049      2026.7951      2973.2049      8.476911e+08   0.5            7411600        0.17778574     8280.8205      16561.634      5.3780739    
  14413400   13057.844     -17.227406     -29351831       0.66988571     38884.031     -29312947       946.40976      946.40976      946.40976      2026.7951      2973.2049      2026.7951      2973.2049      2026.7951      2973.2049      8.476911e+08   0.5            7411700        0.18907864     8855.1049      17710.28       5.3721097    
  14413600   13910.516     -18.775963     -29352727       0.66988571     41423.14      -29311304       946.40976      946.40976      946.40976      2026.7951      2973.2049      2026.7951      2973.2049      2026.7951      2973.2049      8.476911e+08   0.5            7411800        0.20006619     9101.2266      18202.312      5.3573786    
  14413800   14259.34      -20.067119     -29360988       0.66988571     42461.879     -29318526       946.40976      946.40976      946.40976      2026.7951      2973.2049      2026.7951      2973.2049      2026.7951      2973.2049      8.476911e+08   0.5            7411900        0.21098114     9161.7377      18323.536      5.3412014    
  14414000   14760.323     -21.247932     -29363377       0.66988571     43953.721     -29319423       946.40976      946.40976      946.40976      2026.7951      2973.2049      2026.7951      2973.2049      2026.7951      2973.2049      8.476911e+08   0.5            7412000        0.22211105     8984.772       17969.416      5.3307144    
  14414200   15824.113     -22.186347     -29365749       0.66988571     47121.507     -29318628       946.40976      946.40976      946.40976      2026.7951      2973.2049      2026.7951      2973.2049      2026.7951      2973.2049      8.476911e+08   0.5            7412100        0.2331827      9032.1019      18064.372      5.3188287    
  14414400   16907.511     -23.268058     -29368105       0.66988571     50347.68      -29317758       946.40976      946.40976      946.40976      2026.7951      2973.2049      2026.7951      2973.2049      2026.7951      2973.2049      8.476911e+08   0.5            7412200        0.24407025     9184.7961      18369.594      5.3030213    
  14414600   17422.046     -24.540066     -29370432       0.66988571     51879.879     -29318552       946.40976      946.40976      946.40976      2026.7951      2973.2049      2026.7951      2973.2049      2026.7951      2973.2049      8.476911e+08   0.5            7412300        0.25494189     9198.2916      18396.59       5.2873113    
  14414800   17739.793     -25.674413     -29370834       0.66988571     52826.073     -29318008       946.40976      946.40976      946.40976      2026.7951      2973.2049      2026.7951      2973.2049      2026.7951      2973.2049      8.476911e+08   0.5            7412400        0.26616793     8907.817       17815.494      5.2790361    
  14415000   18576.648     -26.987331     -29373102       0.66988571     55318.084     -29317783       946.40976      946.40976      946.40976      2026.7951      2973.2049      2026.7951      2973.2049      2026.7951      2973.2049      8.476911e+08   0.5            7412500        0.27711527     9134.6416      18269.29       5.2652282    
  14415200   19778.507     -28.034138     -29371186       0.66988571     58897.016     -29312289       946.40976      946.40976      946.40976      2026.7951      2973.2049      2026.7951      2973.2049      2026.7951      2973.2049      8.476911e+08   0.5            7412600        0.28850351     8780.992       17561.995      5.2596758    
  14415400   20562.593     -29.484343     -29371505       0.66988571     61231.891     -29310273       946.40976      946.40976      946.40976      2026.7951      2973.2049      2026.7951      2973.2049      2026.7951      2973.2049      8.476911e+08   0.5            7412700        0.29972893     8908.3622      17816.755      5.2508413    
  14415600   20842.923     -30.744054     -29379535       0.66988571     62066.667     -29317468       946.40976      946.40976      946.40976      2026.7951      2973.2049      2026.7951      2973.2049      2026.7951      2973.2049      8.476911e+08   0.5            7412800        0.31057575     9219.2987      18438.671      5.2354507    
  14415800   21392.555     -31.934322     -29389055       0.66988571     63703.377     -29325352       946.40976      946.40976      946.40976      2026.7951      2973.2049      2026.7951      2973.2049      2026.7951      2973.2049      8.476911e+08   0.5            7412900        0.32156316     9101.3649      18202.758      5.2226575    
  14416000   22542.695     -33.066158     -29391164       0.66988571     67128.296     -29324036       946.40976      946.40976      946.40976      2026.7951      2973.2049      2026.7951      2973.2049      2026.7951      2973.2049      8.476911e+08   0.5            7413000        0.33243483     9198.2129      18396.416      5.2081736    
  14416200   23603.505     -34.415825     -29395503       0.66988571     70287.207     -29325216       946.40976      946.40976      946.40976      2026.7951      2973.2049      2026.7951      2973.2049      2026.7951      2973.2049      8.476911e+08   0.5            7413100        0.34373256     8851.2996      17702.615      5.2003685    
  14416400   24026.978     -35.366528     -29393757       0.66988571     71548.237     -29322209       946.40976      946.40976      946.40976      2026.7951      2973.2049      2026.7951      2973.2049      2026.7951      2973.2049      8.476911e+08   0.5            7413200        0.35464723     9161.9819      18323.908      5.1867429    
  14416600   24338.705     -35.812364     -29393873       0.66988571     72476.507     -29321396       946.40976      946.40976      946.40976      2026.7951      2973.2049      2026.7951      2973.2049      2026.7951      2973.2049      8.476911e+08   0.5            7413300        0.3656738      9068.9967      18138.056      5.1748644    
  14416800   25268.476     -36.957034     -29401336       0.66988571     75245.208     -29326090       946.40976      946.40976      946.40976      2026.7951      2973.2049      2026.7951      2973.2049      2026.7951      2973.2049      8.476911e+08   0.5            7413400        0.37684382     8952.5282      17905.007      5.1650029    
  14417000   26508.06      -37.985465     -29403306       0.66988571     78936.475     -29324370       946.40976      946.40976      946.40976      2026.7951      2973.2049      2026.7951      2973.2049      2026.7951      2973.2049      8.476911e+08   0.5            7413500        0.38813636     8855.4436      17710.842      5.1566931    
  14417200   27205.355     -39.19754      -29403350       0.66988571     81012.902     -29322337       946.40976      946.40976      946.40976      2026.7951      2973.2049      2026.7951      2973.2049      2026.7951      2973.2049      8.476911e+08   0.5            7413600        0.39919926     9039.2473      18078.58       5.145258     
  14417400   27429.969     -40.150668     -29399601       0.66988571     81681.764     -29317919       946.40976      946.40976      946.40976      2026.7951      2973.2049      2026.7951      2973.2049      2026.7951      2973.2049      8.476911e+08   0.5            7413700        0.41010275     9171.3064      18342.611      5.1318496    
  14417600   28053.018     -40.96421      -29392265       0.66988571     83537.097     -29308727       946.40976      946.40976      946.40976      2026.7951      2973.2049      2026.7951      2973.2049      2026.7951      2973.2049      8.476911e+08   0.5            7413800        0.42133454     8903.3051      17806.529      5.1225639    
  14417800   29282.942     -41.653283     -29392303       0.66988571     87199.602     -29305104       946.40976      946.40976      946.40976      2026.7951      2973.2049      2026.7951      2973.2049      2026.7951      2973.2049      8.476911e+08   0.5            7413900        0.43223207     9176.4217      18352.933      5.1092258    
  14418000   30293.422     -42.404014     -29392339       0.66988571     90208.639     -29302130       946.40976      946.40976      946.40976      2026.7951      2973.2049      2026.7951      2973.2049      2026.7951      2973.2049      8.476911e+08   0.5            7414000        0.44324183     9082.8435      18165.702      5.0973019    
  14418200   30622.006     -43.433983     -29392384       0.66988571     91187.104     -29301197       946.40976      946.40976      946.40976      2026.7951      2973.2049      2026.7951      2973.2049      2026.7951      2973.2049      8.476911e+08   0.5            7414100        0.45418962     9134.2761      18268.489      5.0847286    
  14418400   30955.783     -44.421037     -29392446       0.66988571     92181.034     -29300265       946.40976      946.40976      946.40976      2026.7951      2973.2049      2026.7951      2973.2049      2026.7951      2973.2049      8.476911e+08   0.5            7414200        0.46528025     9016.6114      18033.294      5.0737902    
  14418600   31993.909     -45.726628     -29394418       0.66988571     95272.397     -29299145       946.40976      946.40976      946.40976      2026.7951      2973.2049      2026.7951      2973.2049      2026.7951      2973.2049      8.476911e+08   0.5            7414300        0.47633973     9042.0361      18084.021      5.0625133    
  14418800   33244.293     -46.769459     -29401896       0.66988571     98995.828     -29302900       946.40976      946.40976      946.40976      2026.7951      2973.2049      2026.7951      2973.2049      2026.7951      2973.2049      8.476911e+08   0.5            7414400        0.48754643     8923.2175      17846.406      5.0527726    
  14419000   33836.732     -47.773992     -29414505       0.66988571     100760.01     -29313745       946.40976      946.40976      946.40976      2026.7951      2973.2049      2026.7951      2973.2049      2026.7951      2973.2049      8.476911e+08   0.5            7414500        0.49854845     9089.2268      18178.468      5.0408975    
  14419200   34005.359     -49.043633     -29412753       0.66988571     101262.15     -29311491       946.40976      946.40976      946.40976      2026.7951      2973.2049      2026.7951      2973.2049      2026.7951      2973.2049      8.476911e+08   0.5            7414600        0.50983204     8862.4096      17724.884      5.0318385    
  14419400   34715.765     -50.361497     -29412911       0.66988571     103377.62     -29309533       946.40976      946.40976      946.40976      2026.7951      2973.2049      2026.7951      2973.2049      2026.7951      2973.2049      8.476911e+08   0.5            7414700        0.52075532     9154.7736      18309.467      5.0192128    
  14419600   36040.656     -51.049733     -29411186       0.66988571     107322.92     -29303863       946.40976      946.40976      946.40976      2026.7951      2973.2049      2026.7951      2973.2049      2026.7951      2973.2049      8.476911e+08   0.5            7414800        0.53175821     9088.5568      18177.138      5.0074067    
  14419800   36995.181     -52.272617     -29420657       0.66988571     110165.33     -29310492       946.40976      946.40976      946.40976      2026.7951      2973.2049      2026.7951      2973.2049      2026.7951      2973.2049      8.476911e+08   0.5            7414900        0.54268207     9154.2524      18308.391      4.9949074    
  14420000   37189.902     -53.408933     -29423112       0.66988571     110745.18     -29312367       946.40976      946.40976      946.40976      2026.7951      2973.2049      2026.7951      2973.2049      2026.7951      2973.2049      8.476911e+08   0.5            7415000        0.55384256     8960.156       17920.155      4.9846016    
  14420200   37529.701     -54.68365      -29421407       0.66988571     111757.04     -29309650       946.40976      946.40976      946.40976      2026.7951      2973.2049      2026.7951      2973.2049      2026.7951      2973.2049      8.476911e+08   0.5            7415100        0.56481899     9110.4576      18221.151      4.9726377    
  14420400   38731.228     -55.796783     -29419717       0.66988571     115334.98     -29304382       946.40976      946.40976      946.40976      2026.7951      2973.2049      2026.7951      2973.2049      2026.7951      2973.2049      8.476911e+08   0.5            7415200        0.57578629     9118.0012      18236.007      4.9606362    
  14420600   40022.898     -56.742071     -29414440       0.66988571     119181.36     -29295258       946.40976      946.40976      946.40976      2026.7951      2973.2049      2026.7951      2973.2049      2026.7951      2973.2049      8.476911e+08   0.5            7415300        0.58704198     8884.4182      17768.852      4.9511052    
  14420800   40458.79      -57.671382     -29407628       0.66988571     120479.37     -29287149       946.40976      946.40976      946.40976      2026.7951      2973.2049      2026.7951      2973.2049      2026.7951      2973.2049      8.476911e+08   0.5            7415400        0.59834628     8846.1608      17692.35       4.941913     
  14421000   40514.802     -58.495713     -29397240       0.66988571     120646.16     -29276594       946.40976      946.40976      946.40976      2026.7951      2973.2049      2026.7951      2973.2049      2026.7951      2973.2049      8.476911e+08   0.5            7415500        0.60923289     9185.6364      18371.241      4.9292624    
  14421200   41379.188     -59.505039     -29397443       0.66988571     123220.15     -29274222       946.40976      946.40976      946.40976      2026.7951      2973.2049      2026.7951      2973.2049      2026.7951      2973.2049      8.476911e+08   0.5            7415600        0.62031564     9023.0003      18046.069      4.9182307    
  14421400   42906.335     -60.583741     -29397645       0.66988571     127767.74     -29269877       946.40976      946.40976      946.40976      2026.7951      2973.2049      2026.7951      2973.2049      2026.7951      2973.2049      8.476911e+08   0.5            7415700        0.63127304     9126.2351      18252.409      4.9062242    
  14421600   43741.159     -61.355909     -29399742       0.66988571     130253.7      -29269488       946.40976      946.40976      946.40976      2026.7951      2973.2049      2026.7951      2973.2049      2026.7951      2973.2049      8.476911e+08   0.5            7415800        0.64241477     8975.2652      17950.574      4.8956576    
  14421800   43661.72      -62.342145     -29399937       0.66988571     130017.15     -29269920       946.40976      946.40976      946.40976      2026.7951      2973.2049      2026.7951      2973.2049      2026.7951      2973.2049      8.476911e+08   0.5            7415900        0.65342939     9078.9018      18157.71       4.8841215    
  14422000   44009.179     -63.339223     -29400129       0.66988571     131051.82     -29269077       946.40976      946.40976      946.40976      2026.7951      2973.2049      2026.7951      2973.2049      2026.7951      2973.2049      8.476911e+08   0.5            7416000        0.66436409     9145.1682      18290.4        4.8720173    
  14422200   45936.996     -64.139607     -29400295       0.66988571     136792.53     -29263502       946.40976      946.40976      946.40976      2026.7951      2973.2049      2026.7951      2973.2049      2026.7951      2973.2049      8.476911e+08   0.5            7416100        0.67546088     9011.6183      18023.255      4.8611169    
  14422400   47213.594     -65.309712     -29409699       0.66988571     140594.02     -29269105       946.40976      946.40976      946.40976      2026.7951      2973.2049      2026.7951      2973.2049      2026.7951      2973.2049      8.476911e+08   0.5            7416200        0.68677403     8839.2211      17678.395      4.8517397    
  14422600   46332.846     -65.777786     -29396929       0.66988571     137971.3      -29258957       946.40976      946.40976      946.40976      2026.7951      2973.2049      2026.7951      2973.2049      2026.7951      2973.2049      8.476911e+08   0.5            7416300        0.69813269     8803.8895      17607.77       4.842616     
  14422800   44230.924     -66.986102     -29398885       0.66988571     131712.14     -29267173       946.40976      946.40976      946.40976      2026.7951      2973.2049      2026.7951      2973.2049      2026.7951      2973.2049      8.476911e+08   0.5            7416400        0.70922828     9012.5678      18025.205      4.8316303    
  14423000   47021.183     -67.094437     -29391529       0.66988571     140021.05     -29251508       946.40976      946.40976      946.40976      2026.7951      2973.2049      2026.7951      2973.2049      2026.7951      2973.2049      8.476911e+08   0.5            7416500        0.72052564     8851.631       17703.054      4.8219926    
  14423200   49091.964     -66.963711     -29391500       0.66988571     146187.49     -29245312       946.40976      946.40976      946.40976      2026.7951      2973.2049      2026.7951      2973.2049      2026.7951      2973.2049      8.476911e+08   0.5            7416600        0.73156977     9054.6116      18109.502      4.810637     
  14423400   50157.11      -67.492676     -29391404       0.66988571     149359.31     -29242044       946.40976      946.40976      946.40976      2026.7951      2973.2049      2026.7951      2973.2049      2026.7951      2973.2049      8.476911e+08   0.5            7416700        0.74243546     9203.293       18406.535      4.7981391    
  14423600   50859.229     -67.91259      -29398617       0.66988571     151450.1      -29247167       946.40976      946.40976      946.40976      2026.7951      2973.2049      2026.7951      2973.2049      2026.7951      2973.2049      8.476911e+08   0.5            7416800        0.75375553     8833.8481      17667.649      4.7885764    
  14423800   51532.402     -68.050089     -29398382       0.66988571     153454.69     -29244927       946.40976      946.40976      946.40976      2026.7951      2973.2049      2026.7951      2973.2049      2026.7951      2973.2049      8.476911e+08   0.5            7416900        0.76472837     9113.4001      18226.858      4.776793     
  14424000   52859.185     -68.217573     -29399971       0.66988571     157405.63     -29242565       946.40976      946.40976      946.40976      2026.7951      2973.2049      2026.7951      2973.2049      2026.7951      2973.2049      8.476911e+08   0.5            7417000        0.77567814     9132.6311      18265.174      4.7648913    
  14424200   54030.445     -68.522879     -29392214       0.66988571     160893.44     -29231320       946.40976      946.40976      946.40976      2026.7951      2973.2049      2026.7951      2973.2049      2026.7951      2973.2049      8.476911e+08   0.5            7417100        0.78720516     8675.2518      17350.525      4.7565044    
  14424400   53346.291     -69.224515     -29391758       0.66988571     158856.15     -29232902       946.40976      946.40976      946.40976      2026.7951      2973.2049      2026.7951      2973.2049      2026.7951      2973.2049      8.476911e+08   0.5            7417200        0.79908649     8416.5456      16833.124      4.7501364    
  14424600   51921.941     -70.068062     -29400534       0.66988571     154614.67     -29245919       946.40976      946.40976      946.40976      2026.7951      2973.2049      2026.7951      2973.2049      2026.7951      2973.2049      8.476911e+08   0.5            7417300        0.8106251      8666.5784      17333.109      4.7416125    
  14424800   54454.128     -70.088546     -29407729       0.66988571     162155.09     -29245574       946.40976      946.40976      946.40976      2026.7951      2973.2049      2026.7951      2973.2049      2026.7951      2973.2049      8.476911e+08   0.5            7417400        0.82172471     9009.3564      18018.747      4.7304797    
  14425000   56506.142     -70.228419     -29412608       0.66988571     168265.64     -29244342       946.40976      946.40976      946.40976      2026.7951      2973.2049      2026.7951      2973.2049      2026.7951      2973.2049      8.476911e+08   0.5            7417500        0.83309468     8795.0562      17590.14       4.7208801    
  14425200   56323.727     -70.287499     -29402682       0.66988571     167722.44     -29234959       946.40976      946.40976      946.40976      2026.7951      2973.2049      2026.7951      2973.2049      2026.7951      2973.2049      8.476911e+08   0.5            7417600        0.84427964     8940.6149      17881.174      4.7102021    
  14425400   56494.257     -70.180565     -29407496       0.66988571     168230.25     -29239265       946.40976      946.40976      946.40976      2026.7951      2973.2049      2026.7951      2973.2049      2026.7951      2973.2049      8.476911e+08   0.5            7417700        0.85526709     9101.2771      18202.63       4.6984253    
  14425600   59553.064     -69.816205     -29417987       0.66988571     177338.85     -29240648       946.40976      946.40976      946.40976      2026.7951      2973.2049      2026.7951      2973.2049      2026.7951      2973.2049      8.476911e+08   0.5            7417800        0.8666084      8817.2839      17634.453      4.6885842    
  14425800   60342.039     -70.364224     -29417260       0.66988571     179688.29     -29237571       946.40976      946.40976      946.40976      2026.7951      2973.2049      2026.7951      2973.2049      2026.7951      2973.2049      8.476911e+08   0.5            7417900        0.87761232     9087.7077      18175.556      4.6769056    
  14426000   58137.684     -70.457042     -29425808       0.66988571     173124.1      -29252684       946.40976      946.40976      946.40976      2026.7951      2973.2049      2026.7951      2973.2049      2026.7951      2973.2049      8.476911e+08   0.5            7418000        0.88906737     8729.7841      17459.478      4.6676135    
  14426200   57931.798     -70.945508     -29434381       0.66988571     172511        -29261870       946.40976      946.40976      946.40976      2026.7951      2973.2049      2026.7951      2973.2049      2026.7951      2973.2049      8.476911e+08   0.5            7418100        0.900528       8725.4956      17450.9        4.6582971    
  14426400   62873.977     -70.017382     -29418932       0.66988571     187227.97     -29231704       946.40976      946.40976      946.40976      2026.7951      2973.2049      2026.7951      2973.2049      2026.7951      2973.2049      8.476911e+08   0.5            7418200        0.91155826     9065.9464      18132.082      4.6467334    
  14426600   62238.004     -70.48425      -29423740       0.66988571     185334.15     -29238405       946.40976      946.40976      946.40976      2026.7951      2973.2049      2026.7951      2973.2049      2026.7951      2973.2049      8.476911e+08   0.5            7418300        0.9225248      9118.7104      18237.296      4.6348628    
  14426800   60464.1       -70.97646      -29439744       0.66988571     180051.77     -29259692       946.40976      946.40976      946.40976      2026.7951      2973.2049      2026.7951      2973.2049      2026.7951      2973.2049      8.476911e+08   0.5            7418400        0.93378033     8884.5074      17769.138      4.6244447    
  14427000   62121.471     -70.686712     -29431780       0.66988571     184987.13     -29246793       946.40976      946.40976      946.40976      2026.7951      2973.2049      2026.7951      2973.2049      2026.7951      2973.2049      8.476911e+08   0.5            7418500        0.94479515     9078.7098      18157.429      4.6128318    
  14427200   65161.2       -70.79009      -29430836       0.66988571     194038.93     -29236797       946.40976      946.40976      946.40976      2026.7951      2973.2049      2026.7951      2973.2049      2026.7951      2973.2049      8.476911e+08   0.5            7418600        0.95601164     8915.414       17830.707      4.6022045    
  14427400   64816.864     -70.784558     -29421428       0.66988571     193013.55     -29228415       946.40976      946.40976      946.40976      2026.7951      2973.2049      2026.7951      2973.2049      2026.7951      2973.2049      8.476911e+08   0.5            7418700        0.96739103     8787.7902      17575.593      4.5923366    
  14427600   64258.587     -71.254936     -29426813       0.66988571     191351.1      -29235462       946.40976      946.40976      946.40976      2026.7951      2973.2049      2026.7951      2973.2049      2026.7951      2973.2049      8.476911e+08   0.5            7418800        0.97867796     8859.8192      17719.37       4.5820018    
  14427800   66959.44      -70.740044     -29426394       0.66988571     199393.78     -29227000       946.40976      946.40976      946.40976      2026.7951      2973.2049      2026.7951      2973.2049      2026.7951      2973.2049      8.476911e+08   0.5            7418900        0.99041611     8519.209       17038.681      4.5737279    
  14428000   69978.154     -70.493034     -29426370       0.66988571     208382.99     -29217987       946.40976      946.40976      946.40976      2026.7951      2973.2049      2026.7951      2973.2049      2026.7951      2973.2049      8.476911e+08   0.5            7419000        1.0015982      8942.9104      17885.667      4.5628453    
  14428200   67503.519     -71.069285     -29434901       0.66988571     201013.95     -29233887       946.40976      946.40976      946.40976      2026.7951      2973.2049      2026.7951      2973.2049      2026.7951      2973.2049      8.476911e+08   0.5            7419100        1.0126798      9023.9978      18047.595      4.5515045    
  14428400   66523.149     -71.626509     -29445731       0.66988571     198094.58     -29247636       946.40976      946.40976      946.40976      2026.7951      2973.2049      2026.7951      2973.2049      2026.7951      2973.2049      8.476911e+08   0.5            7419200        1.0239401      8880.7155      17761.988      4.54096      
  14428600   68294.931     -72.20888      -29460161       0.66988571     203370.64     -29256791       946.40976      946.40976      946.40976      2026.7951      2973.2049      2026.7951      2973.2049      2026.7951      2973.2049      8.476911e+08   0.5            7419300        1.0350169      9027.874       18055.314      4.5295994    
  14428800   69754.562     -71.909874     -29452460       0.66988571     207717.18     -29244743       946.40976      946.40976      946.40976      2026.7951      2973.2049      2026.7951      2973.2049      2026.7951      2973.2049      8.476911e+08   0.5            7419400        1.0463868      8795.1158      17590.611      4.5195086    
  14429000   70164.786     -71.928158     -29444738       0.66988571     208938.75     -29235799       946.40976      946.40976      946.40976      2026.7951      2973.2049      2026.7951      2973.2049      2026.7951      2973.2049      8.476911e+08   0.5            7419500        1.0574974      9000.5137      18001.04       4.5082859    
  14429200   70988.958     -71.332155     -29446248       0.66988571     211393        -29234855       946.40976      946.40976      946.40976      2026.7951      2973.2049      2026.7951      2973.2049      2026.7951      2973.2049      8.476911e+08   0.5            7419600        1.0688131      8837.2159      17674.465      4.4979296    
  14429400   73225.003     -70.487677     -29445814       0.66988571     218051.55     -29227763       946.40976      946.40976      946.40976      2026.7951      2973.2049      2026.7951      2973.2049      2026.7951      2973.2049      8.476911e+08   0.5            7419700        1.0799254      8999.1213      17998.17       4.4867079    
  14429600   77035.449     -69.837469     -29452654       0.66988571     229398.41     -29223256       946.40976      946.40976      946.40976      2026.7951      2973.2049      2026.7951      2973.2049      2026.7951      2973.2049      8.476911e+08   0.5            7419800        1.0914219      8698.2609      17396.593      4.4770645    
  14429800   74215.612     -69.783028     -29439137       0.66988571     221001.42     -29218135       946.40976      946.40976      946.40976      2026.7951      2973.2049      2026.7951      2973.2049      2026.7951      2973.2049      8.476911e+08   0.5            7419900        1.1027905      8796.0851      17592.132      4.4668665    
  14430000   70790.418     -69.681658     -29430648       0.66988571     210801.78     -29219847       946.40976      946.40976      946.40976      2026.7951      2973.2049      2026.7951      2973.2049      2026.7951      2973.2049      8.476911e+08   0.5            7420000        1.1138294      9058.9023      18117.892      4.4553249    
  14430200   73470.058     -68.763886     -29429834       0.66988571     218781.29     -29211053       946.40976      946.40976      946.40976      2026.7951      2973.2049      2026.7951      2973.2049      2026.7951      2973.2049      8.476911e+08   0.5            7420100        1.1252207      8778.6362      17557.128      4.4451864    
  14430400   76126.774     -67.309362     -29427004       0.66988571     226692.53     -29200312       946.40976      946.40976      946.40976      2026.7951      2973.2049      2026.7951      2973.2049      2026.7951      2973.2049      8.476911e+08   0.5            7420200        1.1362265      9086.1438      18172.433      4.4335184    
  14430600   76805.868     -67.188839     -29420853       0.66988571     228714.76     -29192139       946.40976      946.40976      946.40976      2026.7951      2973.2049      2026.7951      2973.2049      2026.7951      2973.2049      8.476911e+08   0.5            7420300        1.1475673      8817.696       17635.28       4.4231551    
  14430800   76956.028     -66.324924     -29406867       0.66988571     229161.91     -29177705       946.40976      946.40976      946.40976      2026.7951      2973.2049      2026.7951      2973.2049      2026.7951      2973.2049      8.476911e+08   0.5            7420400        1.1585418      9112.0549      18224.158      4.4113777    
  14431000   79445.025     -65.011479     -29401874       0.66988571     236573.72     -29165300       946.40976      946.40976      946.40976      2026.7951      2973.2049      2026.7951      2973.2049      2026.7951      2973.2049      8.476911e+08   0.5            7420500        1.1696668      8988.7745      17977.518      4.4001821    
  14431200   81556.069     -63.649754     -29400942       0.66988571     242860.05     -29158082       946.40976      946.40976      946.40976      2026.7951      2973.2049      2026.7951      2973.2049      2026.7951      2973.2049      8.476911e+08   0.5            7420600        1.1809771      8841.432       17682.861      4.3896767    
  14431400   78279.053     -63.487368     -29406945       0.66988571     233101.65     -29173844       946.40976      946.40976      946.40976      2026.7951      2973.2049      2026.7951      2973.2049      2026.7951      2973.2049      8.476911e+08   0.5            7420700        1.1923934      8759.4867      17518.954      4.3795452    
  14431600   75987.52      -62.99242      -29398166       0.66988571     226277.86     -29171888       946.40976      946.40976      946.40976      2026.7951      2973.2049      2026.7951      2973.2049      2026.7951      2973.2049      8.476911e+08   0.5            7420800        1.2037288      8821.9386      17643.865      4.3690963    
  14431800   81230.339     -61.215084     -29400540       0.66988571     241890.08     -29158650       946.40976      946.40976      946.40976      2026.7951      2973.2049      2026.7951      2973.2049      2026.7951      2973.2049      8.476911e+08   0.5            7420900        1.2148055      9027.9392      18055.994      4.3577033    
  14432000   82050.811     -60.287092     -29384304       0.66988571     244333.3      -29139970       946.40976      946.40976      946.40976      2026.7951      2973.2049      2026.7951      2973.2049      2026.7951      2973.2049      8.476911e+08   0.5            7421000        1.2260185      8918.2326      17836.395      4.3467993    
  14432200   81570.426     -58.972642     -29388294       0.66988571     242902.8      -29145391       946.40976      946.40976      946.40976      2026.7951      2973.2049      2026.7951      2973.2049      2026.7951      2973.2049      8.476911e+08   0.5            7421100        1.2371948      8947.4834      17894.917      4.3357612    
  14432400   82846.549     -57.653759     -29379442       0.66988571     246702.88     -29132739       946.40976      946.40976      946.40976      2026.7951      2973.2049      2026.7951      2973.2049      2026.7951      2973.2049      8.476911e+08   0.5            7421200        1.2484286      8901.6986      17803.454      4.3249197    
  14432600   85918.881     -56.761802     -29390802       0.66988571     255851.76     -29134950       946.40976      946.40976      946.40976      2026.7951      2973.2049      2026.7951      2973.2049      2026.7951      2973.2049      8.476911e+08   0.5            7421300        1.2595164      9018.9518      18037.921      4.313571     
  14432800   86123.901     -55.930068     -29400441       0.66988571     256462.27     -29143978       946.40976      946.40976      946.40976      2026.7951      2973.2049      2026.7951      2973.2049      2026.7951      2973.2049      8.476911e+08   0.5            7421400        1.270735       8913.7364      17827.471      4.3026703    
  14433000   81236.351     -55.43768      -29404807       0.66988571     241907.98     -29162899       946.40976      946.40976      946.40976      2026.7951      2973.2049      2026.7951      2973.2049      2026.7951      2973.2049      8.476911e+08   0.5            7421500        1.2817667      9064.8509      18129.704      4.2911378    
  14433200   80993.45      -54.566069     -29397911       0.66988571     241184.66     -29156726       946.40976      946.40976      946.40976      2026.7951      2973.2049      2026.7951      2973.2049      2026.7951      2973.2049      8.476911e+08   0.5            7421600        1.2934842      8534.2167      17068.387      4.2818848    
  14433400   85956.532     -52.324729     -29392936       0.66988571     255963.87     -29136972       946.40976      946.40976      946.40976      2026.7951      2973.2049      2026.7951      2973.2049      2026.7951      2973.2049      8.476911e+08   0.5            7421700        1.3045529      9034.4667      18068.976      4.2704654    
  14433600   87733.574     -51.333268     -29399308       0.66988571     261255.6      -29138053       946.40976      946.40976      946.40976      2026.7951      2973.2049      2026.7951      2973.2049      2026.7951      2973.2049      8.476911e+08   0.5            7421800        1.3154957      9138.449       18276.87       4.2586446    
  14433800   89050.924     -49.805457     -29405351       0.66988571     265178.45     -29140173       946.40976      946.40976      946.40976      2026.7951      2973.2049      2026.7951      2973.2049      2026.7951      2973.2049      8.476911e+08   0.5            7421900        1.3268562      8802.383       17604.707      4.2481759    
  14434000   89649.32      -48.669767     -29396675       0.66988571     266960.37     -29129715       946.40976      946.40976      946.40976      2026.7951      2973.2049      2026.7951      2973.2049      2026.7951      2973.2049      8.476911e+08   0.5            7422000        1.3378789      9072.1635      18144.421      4.2366226    
  14434200   89948.847     -47.796056     -29400906       0.66988571     267852.31     -29133054       946.40976      946.40976      946.40976      2026.7951      2973.2049      2026.7951      2973.2049      2026.7951      2973.2049      8.476911e+08   0.5            7422100        1.3491271      8890.3841      17780.798      4.2257836    
  14434400   91002.579     -46.616723     -29401981       0.66988571     270990.14     -29130991       946.40976      946.40976      946.40976      2026.7951      2973.2049      2026.7951      2973.2049      2026.7951      2973.2049      8.476911e+08   0.5            7422200        1.3602476      8992.3545      17984.618      4.2145435    
  14434600   92566.497     -45.964395     -29402752       0.66988571     275647.22     -29127104       946.40976      946.40976      946.40976      2026.7951      2973.2049      2026.7951      2973.2049      2026.7951      2973.2049      8.476911e+08   0.5            7422300        1.3715236      8868.4174      17736.932      4.2037811    
  14434800   92824.536     -45.323053     -29396578       0.66988571     276415.62     -29120163       946.40976      946.40976      946.40976      2026.7951      2973.2049      2026.7951      2973.2049      2026.7951      2973.2049      8.476911e+08   0.5            7422400        1.3825265      9088.5337      18177          4.1921834    
  14435000   91273.84      -44.786814     -29415855       0.66988571     271797.91     -29144057       946.40976      946.40976      946.40976      2026.7951      2973.2049      2026.7951      2973.2049      2026.7951      2973.2049      8.476911e+08   0.5            7422500        1.3943402      8464.7357      16929.438      4.1830262    
  14435200   91380.415     -43.738648     -29407216       0.66988571     272115.27     -29135101       946.40976      946.40976      946.40976      2026.7951      2973.2049      2026.7951      2973.2049      2026.7951      2973.2049      8.476911e+08   0.5            7422600        1.4053927      9047.7169      18095.55       4.1715678    
  14435400   96190.415     -42.739644     -29406411       0.66988571     286438.63     -29119972       946.40976      946.40976      946.40976      2026.7951      2973.2049      2026.7951      2973.2049      2026.7951      2973.2049      8.476911e+08   0.5            7422700        1.4168057      8761.8905      17523.644      4.1611752    
  14435600   97072.388     -42.282431     -29404124       0.66988571     289065        -29115059       946.40976      946.40976      946.40976      2026.7951      2973.2049      2026.7951      2973.2049      2026.7951      2973.2049      8.476911e+08   0.5            7422800        1.428073       8875.2069      17750.521      4.1503428    
  14435800   93742.389     -42.18333      -29410789       0.66988571     279148.83     -29131640       946.40976      946.40976      946.40976      2026.7951      2973.2049      2026.7951      2973.2049      2026.7951      2973.2049      8.476911e+08   0.5            7422900        1.4392132      8976.6438      17953.213      4.1391377    
  14436000   91446.282     -41.735672     -29425277       0.66988571     272311.41     -29152966       946.40976      946.40976      946.40976      2026.7951      2973.2049      2026.7951      2973.2049      2026.7951      2973.2049      8.476911e+08   0.5            7423000        1.4505766      8800.0754      17600.134      4.1285697    
  14436200   97929.643     -40.581972     -29415409       0.66988571     291617.75     -29123792       946.40976      946.40976      946.40976      2026.7951      2973.2049      2026.7951      2973.2049      2026.7951      2973.2049      8.476911e+08   0.5            7423100        1.4618702      8854.5803      17709.169      4.1177926    
  14436400   100391.07     -39.691577     -29416700       0.66988571     298947.46     -29117752       946.40976      946.40976      946.40976      2026.7951      2973.2049      2026.7951      2973.2049      2026.7951      2973.2049      8.476911e+08   0.5            7423200        1.4731578      8859.3098      17718.675      4.1069907    
  14436600   97820.672     -38.944378     -29425360       0.66988571     291293.26     -29134067       946.40976      946.40976      946.40976      2026.7951      2973.2049      2026.7951      2973.2049      2026.7951      2973.2049      8.476911e+08   0.5            7423300        1.4842951      8978.8603      17957.635      4.0957669    
  14436800   95954.945     -38.629177     -29415464       0.66988571     285737.44     -29129727       946.40976      946.40976      946.40976      2026.7951      2973.2049      2026.7951      2973.2049      2026.7951      2973.2049      8.476911e+08   0.5            7423400        1.4959802      8557.8492      17115.775      4.0860408    
  14437000   101058.51     -38.216101     -29416685       0.66988571     300935        -29115750       946.40976      946.40976      946.40976      2026.7951      2973.2049      2026.7951      2973.2049      2026.7951      2973.2049      8.476911e+08   0.5            7423500        1.5070405      9041.4017      18082.847      4.0745959    
  14437200   103673.54     -36.650673     -29408551       0.66988571     308722.11     -29099829       946.40976      946.40976      946.40976      2026.7951      2973.2049      2026.7951      2973.2049      2026.7951      2973.2049      8.476911e+08   0.5            7423600        1.518418       8789.2191      17578.367      4.0640063    
  14437400   101193.5      -36.522509     -29413193       0.66988571     301336.97     -29111856       946.40976      946.40976      946.40976      2026.7951      2973.2049      2026.7951      2973.2049      2026.7951      2973.2049      8.476911e+08   0.5            7423700        1.5294746      9044.4208      18088.771      4.0525545    
  14437600   100127.03     -35.694252     -29419668       0.66988571     298161.19     -29121506       946.40976      946.40976      946.40976      2026.7951      2973.2049      2026.7951      2973.2049      2026.7951      2973.2049      8.476911e+08   0.5            7423800        1.5406679      8933.9334      17867.892      4.0414672    
  14437800   104656.67     -34.218765     -29422259       0.66988571     311649.7      -29110609       946.40976      946.40976      946.40976      2026.7951      2973.2049      2026.7951      2973.2049      2026.7951      2973.2049      8.476911e+08   0.5            7423900        1.5517459      9026.8945      18053.91       4.0300788    
  14438000   109179.32     -32.990532     -29417549       0.66988571     325117.37     -29092432       946.40976      946.40976      946.40976      2026.7951      2973.2049      2026.7951      2973.2049      2026.7951      2973.2049      8.476911e+08   0.5            7424000        1.5629805      8901.0671      17802.144      4.0190974    
  14438200   105462.4      -33.09976      -29423701       0.66988571     314049.02     -29109652       946.40976      946.40976      946.40976      2026.7951      2973.2049      2026.7951      2973.2049      2026.7951      2973.2049      8.476911e+08   0.5            7424100        1.5743378      8804.8988      17609.667      4.0084253    
  14438400   103079.01     -32.533573     -29420136       0.66988571     306951.68     -29113185       946.40976      946.40976      946.40976      2026.7951      2973.2049      2026.7951      2973.2049      2026.7951      2973.2049      8.476911e+08   0.5            7424200        1.5858252      8705.1999      17410.441      3.998071     
  14438600   105014.24     -31.174311     -29413072       0.66988571     312714.46     -29100358       946.40976      946.40976      946.40976      2026.7951      2973.2049      2026.7951      2973.2049      2026.7951      2973.2049      8.476911e+08   0.5            7424300        1.5974518      8601.0008      17202.062      3.9880484    
  14438800   109947.89     -29.527957     -29411604       0.66988571     327406.05     -29084198       946.40976      946.40976      946.40976      2026.7951      2973.2049      2026.7951      2973.2049      2026.7951      2973.2049      8.476911e+08   0.5            7424400        1.6088512      8772.3885      17544.738      3.9774422    
  14439000   109126.51     -28.271752     -29409668       0.66988571     324960.1      -29084708       946.40976      946.40976      946.40976      2026.7951      2973.2049      2026.7951      2973.2049      2026.7951      2973.2049      8.476911e+08   0.5            7424500        1.6200426      8935.3663      17870.752      3.9663158    
  14439200   106874.72     -26.951698     -29400342       0.66988571     318254.65     -29082088       946.40976      946.40976      946.40976      2026.7951      2973.2049      2026.7951      2973.2049      2026.7951      2973.2049      8.476911e+08   0.5            7424600        1.6312486      8923.8187      17847.623      3.9552237    
  14439400   107388.29     -26.043837     -29398729       0.66988571     319783.98     -29078945       946.40976      946.40976      946.40976      2026.7951      2973.2049      2026.7951      2973.2049      2026.7951      2973.2049      8.476911e+08   0.5            7424700        1.6424384      8936.6982      17873.476      3.9440913    
  14439600   109970.03     -24.770589     -29406508       0.66988571     327471.97     -29079036       946.40976      946.40976      946.40976      2026.7951      2973.2049      2026.7951      2973.2049      2026.7951      2973.2049      8.476911e+08   0.5            7424800        1.653529       9016.6772      18033.363      3.9327218    
  14439800   112411.41     -23.577106     -29412566       0.66988571     334742        -29077824       946.40976      946.40976      946.40976      2026.7951      2973.2049      2026.7951      2973.2049      2026.7951      2973.2049      8.476911e+08   0.5            7424900        1.6647676      8897.8286      17795.567      3.9217054    
  14440000   112139.01     -23.101353     -29413108       0.66988571     333930.81     -29079177       946.40976      946.40976      946.40976      2026.7951      2973.2049      2026.7951      2973.2049      2026.7951      2973.2049      8.476911e+08   0.5            7425000        1.6757906      9072.0409      18144.06       3.9101823    
  14440200   108081.56     -21.717682     -29398559       0.66988571     321848.43     -29076711       946.40976      946.40976      946.40976      2026.7951      2973.2049      2026.7951      2973.2049      2026.7951      2973.2049      8.476911e+08   0.5            7425100        1.6873537      8648.1737      17296.187      3.8999149    
  14440400   108674.76     -20.660653     -29402419       0.66988571     323614.88     -29078805       946.40976      946.40976      946.40976      2026.7951      2973.2049      2026.7951      2973.2049      2026.7951      2973.2049      8.476911e+08   0.5            7425200        1.6988335      8710.9334      17422.069      3.8894388    
  14440600   114964.87     -19.422518     -29416676       0.66988571     342345.75     -29074331       946.40976      946.40976      946.40976      2026.7951      2973.2049      2026.7951      2973.2049      2026.7951      2973.2049      8.476911e+08   0.5            7425300        1.710119       8860.9262      17721.775      3.8785095    
  14440800   115451.92     -17.624144     -29398082       0.66988571     343796.1      -29054285       946.40976      946.40976      946.40976      2026.7951      2973.2049      2026.7951      2973.2049      2026.7951      2973.2049      8.476911e+08   0.5            7425400        1.7213094      8936.2071      17872.531      3.8673616    
  14441000   113344.71     -16.983251     -29405800       0.66988571     337521.21     -29068278       946.40976      946.40976      946.40976      2026.7951      2973.2049      2026.7951      2973.2049      2026.7951      2973.2049      8.476911e+08   0.5            7425500        1.7323677      9043.0181      18086.015      3.8559192    
  14441200   113215.59     -16.672102     -29402771       0.66988571     337136.7      -29065634       946.40976      946.40976      946.40976      2026.7951      2973.2049      2026.7951      2973.2049      2026.7951      2973.2049      8.476911e+08   0.5            7425600        1.7436729      8845.4557      17690.86       3.8450266    
  14441400   119765.32     -14.593038     -29401653       0.66988571     356640.68     -29045013       946.40976      946.40976      946.40976      2026.7951      2973.2049      2026.7951      2973.2049      2026.7951      2973.2049      8.476911e+08   0.5            7425700        1.7547447      9032.0032      18064.013      3.8336183    
  14441600   119913.56     -13.287642     -29392788       0.66988571     357082.11     -29035706       946.40976      946.40976      946.40976      2026.7951      2973.2049      2026.7951      2973.2049      2026.7951      2973.2049      8.476911e+08   0.5            7425800        1.7659628      8914.1703      17828.379      3.822531     
  14441800   114866.63     -13.361001     -29393588       0.66988571     342053.22     -29051535       946.40976      946.40976      946.40976      2026.7951      2973.2049      2026.7951      2973.2049      2026.7951      2973.2049      8.476911e+08   0.5            7425900        1.7770273      9037.941       18075.872      3.8111128    
  14442000   114757.71     -12.025022     -29392168       0.66988571     341728.86     -29050439       946.40976      946.40976      946.40976      2026.7951      2973.2049      2026.7951      2973.2049      2026.7951      2973.2049      8.476911e+08   0.5            7426000        1.7882715      8893.4289      17786.826      3.8000809    
  14442200   123769.85     -9.0670855     -29391090       0.66988571     368565.47     -29022525       946.40976      946.40976      946.40976      2026.7951      2973.2049      2026.7951      2973.2049      2026.7951      2973.2049      8.476911e+08   0.5            7426100        1.7998191      8659.7961      17319.525      3.7896853    
  14442400   121728.1      -7.7179856     -29391900       0.66988571     362485.48     -29029415       946.40976      946.40976      946.40976      2026.7951      2973.2049      2026.7951      2973.2049      2026.7951      2973.2049      8.476911e+08   0.5            7426200        1.8107991      9107.4681      18215.096      3.7780909    
  14442600   117706.09     -7.3627092     -29392339       0.66988571     350508.63     -29041830       946.40976      946.40976      946.40976      2026.7951      2973.2049      2026.7951      2973.2049      2026.7951      2973.2049      8.476911e+08   0.5            7426300        1.8219433      8973.2921      17946.537      3.7668436    
  14442800   119347.09     -6.2085199     -29391295       0.66988571     355395.26     -29035899       946.40976      946.40976      946.40976      2026.7951      2973.2049      2026.7951      2973.2049      2026.7951      2973.2049      8.476911e+08   0.5            7426400        1.8329977      9046.2224      18092.507      3.7554134    
  14443000   125899.3      -3.6592057     -29391059       0.66988571     374906.61     -29016152       946.40976      946.40976      946.40976      2026.7951      2973.2049      2026.7951      2973.2049      2026.7951      2973.2049      8.476911e+08   0.5            7426500        1.8442042      8923.3529      17846.601      3.7442972    
  14443200   124769.02     -2.9250651     -29396671       0.66988571     371540.83     -29025130       946.40976      946.40976      946.40976      2026.7951      2973.2049      2026.7951      2973.2049      2026.7951      2973.2049      8.476911e+08   0.5            7426600        1.8552488      9054.2493      18108.613      3.7328533    
  14443400   122355.13     -2.4285786     -29402695       0.66988571     364352.7      -29038342       946.40976      946.40976      946.40976      2026.7951      2973.2049      2026.7951      2973.2049      2026.7951      2973.2049      8.476911e+08   0.5            7426700        1.8664423      8933.6971      17867.292      3.721712     
  14443600   122936.18     -0.93260482    -29399483       0.66988571     366082.95     -29033400       946.40976      946.40976      946.40976      2026.7951      2973.2049      2026.7951      2973.2049      2026.7951      2973.2049      8.476911e+08   0.5            7426800        1.8774836      9056.9398      18113.93       3.7102688    
  14443800   126890.9       0.86043518    -29396332       0.66988571     377859.44     -29018472       946.40976      946.40976      946.40976      2026.7951      2973.2049      2026.7951      2973.2049      2026.7951      2973.2049      8.476911e+08   0.5            7426900        1.8884511      9117.8399      18235.67       3.6986859    
  14444000   134947.21      3.2566704     -29400575       0.66988571     401849.73     -28998725       946.40976      946.40976      946.40976      2026.7951      2973.2049      2026.7951      2973.2049      2026.7951      2973.2049      8.476911e+08   0.5            7427000        1.9001712      8532.3089      17064.612      3.6885713    
  14444200   133840.38      3.5743        -29415985       0.66988571     398553.79     -29017432       946.40976      946.40976      946.40976      2026.7951      2973.2049      2026.7951      2973.2049      2026.7951      2973.2049      8.476911e+08   0.5            7427100        1.9112179      9052.4928      18105.04       3.6771421    
  14444400   124632.01      2.6745173     -29412923       0.66988571     371132.84     -29041791       946.40976      946.40976      946.40976      2026.7951      2973.2049      2026.7951      2973.2049      2026.7951      2973.2049      8.476911e+08   0.5            7427200        1.9223985      8944.0982      17888.129      3.6659727    
  14444600   125940.54      3.8713791     -29412188       0.66988571     375029.42     -29037159       946.40976      946.40976      946.40976      2026.7951      2973.2049      2026.7951      2973.2049      2026.7951      2973.2049      8.476911e+08   0.5            7427300        1.9332957      9176.6777      18353.344      3.6542676    
  14444800   131150.53      6.0314585     -29408523       0.66988571     390543.88     -29017979       946.40976      946.40976      946.40976      2026.7951      2973.2049      2026.7951      2973.2049      2026.7951      2973.2049      8.476911e+08   0.5            7427400        1.9441905      9178.6646      18357.43       3.6425672    
  14445000   132231.42      7.0525737     -29405607       0.66988571     393762.57     -29011844       946.40976      946.40976      946.40976      2026.7951      2973.2049      2026.7951      2973.2049      2026.7951      2973.2049      8.476911e+08   0.5            7427500        1.9553722      8943.1432      17886.114      3.6314091    
  14445200   127460.87      7.4879848     -29397567       0.66988571     379556.71     -29018010       946.40976      946.40976      946.40976      2026.7951      2973.2049      2026.7951      2973.2049      2026.7951      2973.2049      8.476911e+08   0.5            7427600        1.966431       9042.5839      18085.289      3.6200241    
  14445400   123642.57      6.8315541     -29396583       0.66988571     368186.45     -29028397       946.40976      946.40976      946.40976      2026.7951      2973.2049      2026.7951      2973.2049      2026.7951      2973.2049      8.476911e+08   0.5            7427700        1.977607       8947.7596      17895.486      3.6088569    
  14445600   132996.67      8.9771248     -29405243       0.66988571     396041.37     -29009201       946.40976      946.40976      946.40976      2026.7951      2973.2049      2026.7951      2973.2049      2026.7951      2973.2049      8.476911e+08   0.5            7427800        1.9886376      9065.6637      18131.35       3.5974265    
  14445800   135081.76      9.5914697     -29411589       0.66988571     402250.41     -29009339       946.40976      946.40976      946.40976      2026.7951      2973.2049      2026.7951      2973.2049      2026.7951      2973.2049      8.476911e+08   0.5            7427900        2.000003       8798.6275      17597.269      3.5866009    
  14446000   132066.55      10.622547     -29412788       0.66988571     393271.63     -29019517       946.40976      946.40976      946.40976      2026.7951      2973.2049      2026.7951      2973.2049      2026.7951      2973.2049      8.476911e+08   0.5            7428000        2.0112058      8926.3845      17852.651      3.5754804    
  14446200   130465.99      10.875631     -29411688       0.66988571     388505.45     -29023182       946.40976      946.40976      946.40976      2026.7951      2973.2049      2026.7951      2973.2049      2026.7951      2973.2049      8.476911e+08   0.5            7428100        2.0222717      9036.7649      18073.626      3.5641174    
  14446400   137219.87      12.925549     -29410549       0.66988571     408617.33     -29001931       946.40976      946.40976      946.40976      2026.7951      2973.2049      2026.7951      2973.2049      2026.7951      2973.2049      8.476911e+08   0.5            7428200        2.0334471      8948.1775      17896.353      3.5529494    
  14446600   140144.63      14.46218      -29417057       0.66988571     417326.76     -28999730       946.40976      946.40976      946.40976      2026.7951      2973.2049      2026.7951      2973.2049      2026.7951      2973.2049      8.476911e+08   0.5            7428300        2.0444959      9050.8222      18101.675      3.5415616    
  14446800   135573.38      15.173387     -29411029       0.66988571     403714.38     -29007315       946.40976      946.40976      946.40976      2026.7951      2973.2049      2026.7951      2973.2049      2026.7951      2973.2049      8.476911e+08   0.5            7428400        2.0557136      8914.4365      17828.87       3.530468     
  14447000   134107.65      16.478884     -29400460       0.66988571     399349.67     -29001111       946.40976      946.40976      946.40976      2026.7951      2973.2049      2026.7951      2973.2049      2026.7951      2973.2049      8.476911e+08   0.5            7428500        2.0667698      9044.7431      18089.427      3.5190977    
  14447200   136198.7       17.664686     -29408421       0.66988571     405576.46     -29002844       946.40976      946.40976      946.40976      2026.7951      2973.2049      2026.7951      2973.2049      2026.7951      2973.2049      8.476911e+08   0.5            7428600        2.0778912      8991.6115      17983.225      3.5078411    
  14447400   138065.59      19.103223     -29406707       0.66988571     411135.74     -28995571       946.40976      946.40976      946.40976      2026.7951      2973.2049      2026.7951      2973.2049      2026.7951      2973.2049      8.476911e+08   0.5            7428700        2.0892487      8804.7902      17609.621      3.4969808    
  14447600   139657.51      20.333302     -29420091       0.66988571     415876.2      -29004215       946.40976      946.40976      946.40976      2026.7951      2973.2049      2026.7951      2973.2049      2026.7951      2973.2049      8.476911e+08   0.5            7428800        2.1005317      8862.8714      17725.663      3.485992     
  14447800   141358.77      22.381953     -29423450       0.66988571     420942.27     -29002507       946.40976      946.40976      946.40976      2026.7951      2973.2049      2026.7951      2973.2049      2026.7951      2973.2049      8.476911e+08   0.5            7428900        2.1117199      8937.9643      17875.968      3.4748439    
  14448000   145469.42      24.483921     -29422419       0.66988571     433183.1      -28989236       946.40976      946.40976      946.40976      2026.7951      2973.2049      2026.7951      2973.2049      2026.7951      2973.2049      8.476911e+08   0.5            7429000        2.122683       9121.5733      18228.103      3.4633427    
  14448200   144909.45      26.563672     -29406208       0.66988571     431515.59     -28974692       946.40976      946.40976      946.40976      2026.7951      2973.2049      2026.7951      2973.2049      2026.7951      2973.2049      8.476911e+08   0.5            7429100        2.133979       8852.6011      17719.486      3.4523565    
  14448400   137646.96      26.798485     -29406655       0.66988571     409889.14     -28996766       946.40976      946.40976      946.40976      2026.7951      2973.2049      2026.7951      2973.2049      2026.7951      2973.2049      8.476911e+08   0.5            7429200        2.1449515      9113.788       18227.378      3.4408628    
  14448600   138557.21      28.533646     -29401493       0.66988571     412599.72     -28988893       946.40976      946.40976      946.40976      2026.7951      2973.2049      2026.7951      2973.2049      2026.7951      2973.2049      8.476911e+08   0.5            7429300        2.1559068      9127.957       18255.949      3.4293471    
  14448800   145915.82      31.738925     -29387300       0.66988571     434512.4      -28952788       946.40976      946.40976      946.40976      2026.7951      2973.2049      2026.7951      2973.2049      2026.7951      2973.2049      8.476911e+08   0.5            7429400        2.1671861      8865.8236      17731.679      3.4183481    
  14449000   145685.67      33.57477      -29371616       0.66988571     433827.04     -28937789       946.40976      946.40976      946.40976      2026.7951      2973.2049      2026.7951      2973.2049      2026.7951      2973.2049      8.476911e+08   0.5            7429500        2.1782182      9064.496       18129.038      3.4069595    
  14449200   143706.16      34.014229     -29364859       0.66988571     427932.4      -28936926       946.40976      946.40976      946.40976      2026.7951      2973.2049      2026.7951      2973.2049      2026.7951      2973.2049      8.476911e+08   0.5            7429600        2.1897698      8656.7622      17313.453      3.3963807    
  14449400   144653.58      36.576824     -29361742       0.66988571     430753.65     -28930988       946.40976      946.40976      946.40976      2026.7951      2973.2049      2026.7951      2973.2049      2026.7951      2973.2049      8.476911e+08   0.5            7429700        2.2010564      8860.0312      17720.196      3.3853841    
  14449600   152965.5       38.7988       -29377224       0.66988571     455505.14     -28921718       946.40976      946.40976      946.40976      2026.7951      2973.2049      2026.7951      2973.2049      2026.7951      2973.2049      8.476911e+08   0.5            7429800        2.2124558      8772.4523      17544.815      3.3745567    
  14449800   152172.59      39.580063     -29385331       0.66988571     453143.98     -28932187       946.40976      946.40976      946.40976      2026.7951      2973.2049      2026.7951      2973.2049      2026.7951      2973.2049      8.476911e+08   0.5            7429900        2.2234626      9085.2572      18170.623      3.3631296    
  14450000   144436.19      39.763623     -29391977       0.66988571     430106.3      -28961870       946.40976      946.40976      946.40976      2026.7951      2973.2049      2026.7951      2973.2049      2026.7951      2973.2049      8.476911e+08   0.5            7430000        2.2370643      7352.046       14704          3.3555992    
  14450200   145408.19      41.005365     -29387353       0.66988571     433000.76     -28954352       946.40976      946.40976      946.40976      2026.7951      2973.2049      2026.7951      2973.2049      2026.7951      2973.2049      8.476911e+08   0.5            7430100        2.2483584      8854.168       17708.278      3.3445758    
  14450400   149619.94      43.629244     -29384484       0.66988571     445542.64     -28938942       946.40976      946.40976      946.40976      2026.7951      2973.2049      2026.7951      2973.2049      2026.7951      2973.2049      8.476911e+08   0.5            7430200        2.2594792      8992.1766      17984.423      3.3332939    
  14450600   152290.97      45.431341     -29377693       0.66988571     453496.5      -28924196       946.40976      946.40976      946.40976      2026.7951      2973.2049      2026.7951      2973.2049      2026.7951      2973.2049      8.476911e+08   0.5            7430300        2.2707236      8893.2731      17786.575      3.3221945    
  14450800   151394.09      47.585575     -29376749       0.66988571     450825.75     -28925924       946.40976      946.40976      946.40976      2026.7951      2973.2049      2026.7951      2973.2049      2026.7951      2973.2049      8.476911e+08   0.5            7430400        2.2818458      8991.0544      17982.041      3.3109163    
  14451000   145258.61      47.407755     -29374326       0.66988571     432555.34     -28941770       946.40976      946.40976      946.40976      2026.7951      2973.2049      2026.7951      2973.2049      2026.7951      2973.2049      8.476911e+08   0.5            7430500        2.2935526      8542.0133      17084.067      3.3004809    
  14451200   146385.53      48.446233     -29388253       0.66988571     435911.1      -28952342       946.40976      946.40976      946.40976      2026.7951      2973.2049      2026.7951      2973.2049      2026.7951      2973.2049      8.476911e+08   0.5            7430600        2.3046633      9000.4148      18001.022      3.289182     
  14451400   155459.34      50.206017     -29389357       0.66988571     462931.38     -28926426       946.40976      946.40976      946.40976      2026.7951      2973.2049      2026.7951      2973.2049      2026.7951      2973.2049      8.476911e+08   0.5            7430700        2.3156398      9110.3663      18220.671      3.2776955    
  14451600   156169.53      50.589663     -29392119       0.66988571     465046.2      -28927073       946.40976      946.40976      946.40976      2026.7951      2973.2049      2026.7951      2973.2049      2026.7951      2973.2049      8.476911e+08   0.5            7430800        2.3270339      8776.3904      17552.685      3.2668003    
  14451800   152675.67      51.517042     -29391667       0.66988571     454642.08     -28937025       946.40976      946.40976      946.40976      2026.7951      2973.2049      2026.7951      2973.2049      2026.7951      2973.2049      8.476911e+08   0.5            7430900        2.3380759      9056.3296      18112.739      3.2554097    
  14452000   150790.56      52.234701     -29366858       0.66988571     449028.53     -28917830       946.40976      946.40976      946.40976      2026.7951      2973.2049      2026.7951      2973.2049      2026.7951      2973.2049      8.476911e+08   0.5            7431000        2.3493117      8900.1529      17800.317      3.2442901    
  14452200   159454.31      54.046282     -29377284       0.66988571     474827.71     -28902456       946.40976      946.40976      946.40976      2026.7951      2973.2049      2026.7951      2973.2049      2026.7951      2973.2049      8.476911e+08   0.5            7431100        2.3606355      8831.0163      17661.962      3.23329      
  14452400   162241.24      55.499907     -29376484       0.66988571     483126.71     -28893357       946.40976      946.40976      946.40976      2026.7951      2973.2049      2026.7951      2973.2049      2026.7951      2973.2049      8.476911e+08   0.5            7431200        2.372025       8779.8694      17559.784      3.2223763    
  14452600   155779.12      54.438354     -29377927       0.66988571     463883.63     -28914043       946.40976      946.40976      946.40976      2026.7951      2973.2049      2026.7951      2973.2049      2026.7951      2973.2049      8.476911e+08   0.5            7431300        2.3830859      9040.9447      18081.925      3.2110149    
  14452800   153689.03      54.62829      -29377145       0.66988571     457659.7      -28919486       946.40976      946.40976      946.40976      2026.7951      2973.2049      2026.7951      2973.2049      2026.7951      2973.2049      8.476911e+08   0.5            7431400        2.3947439      8577.8279      17155.576      3.2004546    
  14453000   160424.51      56.105788     -29376368       0.66988571     477716.79     -28898651       946.40976      946.40976      946.40976      2026.7951      2973.2049      2026.7951      2973.2049      2026.7951      2973.2049      8.476911e+08   0.5            7431500        2.4059336      8936.8085      17873.579      3.1892633    
  14453200   164033.78      56.807695     -29373677       0.66988571     488464.59     -28885212       946.40976      946.40976      946.40976      2026.7951      2973.2049      2026.7951      2973.2049      2026.7951      2973.2049      8.476911e+08   0.5            7431600        2.4171379      8925.1225      17850.285      3.1780911    
  14453400   161285.17      57.275993     -29350749       0.66988571     480279.69     -28870469       946.40976      946.40976      946.40976      2026.7951      2973.2049      2026.7951      2973.2049      2026.7951      2973.2049      8.476911e+08   0.5            7431700        2.4284355      8851.4602      17702.96       3.1670403    
  14453600   158541.95      57.121435     -29361143       0.66988571     472110.87     -28889032       946.40976      946.40976      946.40976      2026.7951      2973.2049      2026.7951      2973.2049      2026.7951      2973.2049      8.476911e+08   0.5            7431800        2.4395764      8975.9331      17951.85       3.1557847    
  14453800   161072.49      57.900156     -29369662       0.66988571     479646.36     -28890016       946.40976      946.40976      946.40976      2026.7951      2973.2049      2026.7951      2973.2049      2026.7951      2973.2049      8.476911e+08   0.5            7431900        2.4508856      8842.3139      17684.629      3.144746     
  14454000   168123.95      59.377267     -29356019       0.66988571     500644.42     -28855375       946.40976      946.40976      946.40976      2026.7951      2973.2049      2026.7951      2973.2049      2026.7951      2973.2049      8.476911e+08   0.5            7432000        2.4621085      8910.368       17820.641      3.1335951    
  14454200   166842.1       59.308446     -29355578       0.66988571     496827.28     -28858751       946.40976      946.40976      946.40976      2026.7951      2973.2049      2026.7951      2973.2049      2026.7951      2973.2049      8.476911e+08   0.5            7432100        2.4735597      8732.6925      17465.499      3.1227315    
  14454400   155743.1       57.523337     -29356256       0.66988571     463776.36     -28892480       946.40976      946.40976      946.40976      2026.7951      2973.2049      2026.7951      2973.2049      2026.7951      2973.2049      8.476911e+08   0.5            7432200        2.4847998      8896.7457      17793.46       3.1115985    
  14454600   158465.69      58.054003     -29355435       0.66988571     471883.75     -28883551       946.40976      946.40976      946.40976      2026.7951      2973.2049      2026.7951      2973.2049      2026.7951      2973.2049      8.476911e+08   0.5            7432300        2.4966498      8438.773       16877.473      3.1012222    
  14454800   164438.98      59.508797     -29354564       0.66988571     489671.2      -28864893       946.40976      946.40976      946.40976      2026.7951      2973.2049      2026.7951      2973.2049      2026.7951      2973.2049      8.476911e+08   0.5            7432400        2.5077199      9033.3821      18066.882      3.0898715    
[...]
  15099400   309.39718     -0.26290908    -30052928       0.70933214     921.33198     -30052007       928.53062      928.53062      928.53062      2035.7347      2964.2653      2035.7347      2964.2653      2035.7347      2964.2653      8.0055043e+08  0.5            7754700        19.902025      7388.8226      14777.74       0.7289616    
  15099600   309.52766      0.60455402    -30053044       0.70937319     921.72053     -30052122       928.51272      928.51272      928.51272      2035.7436      2964.2564      2035.7436      2964.2564      2035.7436      2964.2564      8.0050411e+08  0.5            7754800        19.915843      7236.9829      14473.958      0.71520991   
  15099800   309.54257      2.2987512     -30053159       0.70943949     921.76493     -30052237       928.48379      928.48379      928.48379      2035.7581      2964.2419      2035.7581      2964.2419      2035.7581      2964.2419      8.0042931e+08  0.5            7754900        19.930015      7056.2702      14112.541      0.70147057   
  15100000   309.4331       3.0976934     -30053274       0.70947721     921.43893     -30052352       928.46733      928.46733      928.46733      2035.7663      2964.2337      2035.7663      2964.2337      2035.7663      2964.2337      8.0038674e+08  0.5            7755000        19.946021      6247.6298      12495.182      0.6877939    
  15100200   309.39849      1.7990499     -30053391       0.70944948     921.33586     -30052470       928.47943      928.47943      928.47943      2035.7603      2964.2397      2035.7603      2964.2397      2035.7603      2964.2397      8.0041804e+08  0.5            7755100        19.959907      7201.4144      14402.863      0.67404242   
  15100400   309.50356      1.3892233     -30053139       0.7094479      921.64876     -30052217       928.48012      928.48012      928.48012      2035.7599      2964.2401      2035.7599      2964.2401      2035.7599      2964.2401      8.0041981e+08  0.5            7755200        19.973452      7382.7103      14765.472      0.66027948   
  15100600   309.59899     -1.0820923     -30053256       0.70938292     921.93292     -30052334       928.50847      928.50847      928.50847      2035.7458      2964.2542      2035.7458      2964.2542      2035.7458      2964.2542      8.0049313e+08  0.5            7755300        19.987283      7230.072       14460.047      0.6465261    
  15100800   309.54596     -0.64837874    -30053373       0.70940742     921.77501     -30052451       928.49778      928.49778      928.49778      2035.7511      2964.2489      2035.7511      2964.2489      2035.7511      2964.2489      8.0046548e+08  0.5            7755400        20.00082       7387.2855      14774.644      0.63276329   
  15101000   309.3828       3.0080194     -30053487       0.70953102     921.28915     -30052566       928.44386      928.44386      928.44386      2035.7781      2964.2219      2035.7781      2964.2219      2035.7781      2964.2219      8.0032604e+08  0.5            7755500        20.014699      7205.3704      14410.686      0.61901137   
  15101200   309.26801      2.0693592     -30053604       0.7095116      920.94734     -30052683       928.45234      928.45234      928.45234      2035.7738      2964.2262      2035.7738      2964.2262      2035.7738      2964.2262      8.0034796e+08  0.5            7755600        20.028698      7143.1388      14286.343      0.60526292   
  15101400   309.23616     -1.2671783     -30053719       0.70941779     920.85247     -30052799       928.49326      928.49326      928.49326      2035.7534      2964.2466      2035.7534      2964.2466      2035.7534      2964.2466      8.0045378e+08  0.5            7755700        20.04245       7271.5966      14543.167      0.59150683   
  15101600   309.26767      0.62849022    -30053834       0.70948694     920.94632     -30052913       928.46309      928.46309      928.46309      2035.7685      2964.2315      2035.7685      2964.2315      2035.7685      2964.2315      8.0037576e+08  0.5            7755800        20.055984      7388.9662      14777.988      0.57774445   
  15101800   309.28037      3.1352252     -30053946       0.70957579     920.98412     -30053025       928.42433      928.42433      928.42433      2035.7878      2964.2122      2035.7878      2964.2122      2035.7878      2964.2122      8.0027554e+08  0.5            7755900        20.06968       7301.6172      14603.147      0.56398694   
  15102000   309.28619      1.5131918     -30054062       0.7095371      921.00145     -30053141       928.44121      928.44121      928.44121      2035.7794      2964.2206      2035.7794      2964.2206      2035.7794      2964.2206      8.0031919e+08  0.5            7756000        20.083269      7358.4508      14716.934      0.55022662   
  15102200   309.3974      -0.86800081    -30054177       0.70947508     921.33263     -30053256       928.46826      928.46826      928.46826      2035.7659      2964.2341      2035.7659      2964.2341      2035.7659      2964.2341      8.0038914e+08  0.5            7756100        20.096874      7350.2464      14700.539      0.53646693   
  15102400   309.43207      0.784429      -30054292       0.70953755     921.43587     -30053370       928.44102      928.44102      928.44102      2035.7795      2964.2205      2035.7795      2964.2205      2035.7795      2964.2205      8.0031868e+08  0.5            7756200        20.110697      7234.7912      14469.533      0.5227131    
  15102600   309.26757      2.7092112     -30054404       0.70960749     920.94602     -30053483       928.41051      928.41051      928.41051      2035.7947      2964.2053      2035.7947      2964.2053      2035.7947      2964.2053      8.002398e+08   0.5            7756300        20.124581      7202.3039      14404.638      0.50896075   
  15102800   309.0502       0.57039543    -30054519       0.70955129     920.29872     -30053599       928.43502      928.43502      928.43502      2035.7825      2964.2175      2035.7825      2964.2175      2035.7825      2964.2175      8.0030318e+08  0.5            7756400        20.138272      7304.245       14608.455      0.49520345   
  15103000   308.98351     -0.47168927    -30054632       0.70953004     920.10014     -30053712       928.44429      928.44429      928.44429      2035.7779      2964.2221      2035.7779      2964.2221      2035.7779      2964.2221      8.0032715e+08  0.5            7756500        20.152028      7269.2534      14538.517      0.48144782   
  15103200   309.1216       0.90840259    -30054744       0.70958534     920.51135     -30053823       928.42017      928.42017      928.42017      2035.7899      2964.2101      2035.7899      2964.2101      2035.7899      2964.2101      8.0026478e+08  0.5            7756600        20.165729      7298.6318      14597.329      0.46769091   
  15103400   309.24385      2.1449311     -30054856       0.70963663     920.87539     -30053935       928.3978       928.3978       928.3978       2035.8011      2964.1989      2035.8011      2964.1989      2035.8011      2964.1989      8.0020694e+08  0.5            7756700        20.179127      7464.0518      14928.05       0.45392724   
  15103600   309.23644      1.8922923     -30054969       0.70964122     920.8533      -30054048       928.3958       928.3958       928.3958       2035.8021      2964.1979      2035.8021      2964.1979      2035.8021      2964.1979      8.0020176e+08  0.5            7756800        20.192894      7263.7482      14527.513      0.44017212   
  15103800   309.16221      0.68941452    -30055082       0.70961574     920.63227     -30054161       928.40692      928.40692      928.40692      2035.7965      2964.2035      2035.7965      2964.2035      2035.7965      2964.2035      8.002305e+08   0.5            7756900        20.206437      7384.0568      14768.109      0.42641225   
  15104000   309.07585      0.12696484    -30055194       0.70960944     920.37511     -30054274       928.40966      928.40966      928.40966      2035.7952      2964.2048      2035.7952      2964.2048      2035.7952      2964.2048      8.0023761e+08  0.5            7757000        20.220723      6999.9178      13999.766      0.41266785   
  15104200   309.02746      0.7607966     -30055306       0.70963938     920.231       -30054385       928.3966       928.3966       928.3966       2035.8017      2964.1983      2035.8017      2964.1983      2035.8017      2964.1983      8.0020384e+08  0.5            7757100        20.234312      7358.5396      14717.163      0.39890898   
  15104400   308.96228      0.44157609    -30057311       0.70964135     920.0369      -30056391       928.39574      928.39574      928.39574      2035.8021      2964.1979      2035.8021      2964.1979      2035.8021      2964.1979      8.0020162e+08  0.5            7757200        20.247858      7382.3479      14764.688      0.38514951   
  15104600   308.93076      0.67238097    -30057422       0.70965894     919.94304     -30056502       928.38807      928.38807      928.38807      2035.806       2964.194       2035.806       2964.194       2035.806       2964.194       8.0018178e+08  0.5            7757300        20.261862      7140.9424      14281.827      0.37139873   
  15104800   308.98764      0.69197352    -30057532       0.70967136     920.11242     -30056612       928.38266      928.38266      928.38266      2035.8087      2964.1913      2035.8087      2964.1913      2035.8087      2964.1913      8.0016777e+08  0.5            7757400        20.275475      7345.9355      14691.942      0.3576407    
  15105000   309.09555      0.64261962    -30057642       0.7096824      920.43378     -30056722       928.37784      928.37784      928.37784      2035.8111      2964.1889      2035.8111      2964.1889      2035.8111      2964.1889      8.0015533e+08  0.5            7757500        20.289228      7270.9965      14541.972      0.34388526   
  15105200   309.17311      0.81328134    -30057753       0.70970009     920.66474     -30056833       928.37013      928.37013      928.37013      2035.8149      2964.1851      2035.8149      2964.1851      2035.8149      2964.1851      8.0013538e+08  0.5            7757600        20.303112      7202.7724      14405.549      0.33013193   
  15105400   309.13066      1.153749      -30057864       0.70972235     920.53832     -30056944       928.36042      928.36042      928.36042      2035.8198      2964.1802      2035.8198      2964.1802      2035.8198      2964.1802      8.0011029e+08  0.5            7757700        20.316837      7285.5164      14571.042      0.31637597   
  15105600   309.0256       1.2965509     -30057976       0.70973764     920.22547     -30057055       928.35376      928.35376      928.35376      2035.8231      2964.1769      2035.8231      2964.1769      2035.8231      2964.1769      8.0009305e+08  0.5            7757800        20.330886      7118.2691      14236.538      0.30262485   
  15105800   308.93549      1.0170817     -30058086       0.70973947     919.95713     -30057166       928.35296      928.35296      928.35296      2035.8235      2964.1765      2035.8235      2964.1765      2035.8235      2964.1765      8.0009099e+08  0.5            7757900        20.344337      7434.2588      14868.539      0.28886485   
  15106000   308.90204      0.69986461    -30058197       0.70974079     919.85751     -30057277       928.35238      928.35238      928.35238      2035.8238      2964.1762      2035.8238      2964.1762      2035.8238      2964.1762      8.000895e+08   0.5            7758000        20.358152      7238.3491      14476.634      0.27511019   
  15106200   308.95883      1.1370446     -30058306       0.70976683     920.02664     -30057386       928.34103      928.34103      928.34103      2035.8295      2964.1705      2035.8295      2964.1705      2035.8295      2964.1705      8.0006014e+08  0.5            7758100        20.371683      7390.5313      14781.127      0.2613518    
  15106400   309.00406      1.1209493     -30058416       0.70977913     920.16133     -30057496       928.33567      928.33567      928.33567      2035.8322      2964.1678      2035.8322      2964.1678      2035.8322      2964.1678      8.0004628e+08  0.5            7758200        20.385453      7262.238       14524.417      0.24759662   
  15106600   309.07872      0.72858663    -30058527       0.70978054     920.38366     -30057607       928.33506      928.33506      928.33506      2035.8325      2964.1675      2035.8325      2964.1675      2035.8325      2964.1675      8.000447e+08   0.5            7758300        20.399076      7340.3535      14680.773      0.23383974   
  15106800   309.21624      1.357335      -30058638       0.70981528     920.79316     -30057717       928.31991      928.31991      928.31991      2035.84        2964.16        2035.84        2964.16        2035.84        2964.16        8.0000553e+08  0.5            7758400        20.412808      7282.4524      14564.832      0.22008421   
  15107000   309.32276      1.1655042     -30060645       0.70982542     921.11037     -30059724       928.31549      928.31549      928.31549      2035.8423      2964.1577      2035.8423      2964.1577      2035.8423      2964.1577      7.9999412e+08  0.5            7758500        20.426853      7119.7409      14239.522      0.20633187   
  15107200   309.33263      1.0696459     -30060758       0.709835       921.13974     -30059837       928.31131      928.31131      928.31131      2035.8443      2964.1557      2035.8443      2964.1557      2035.8443      2964.1557      7.9998331e+08  0.5            7758600        20.440621      7263.4691      14526.969      0.19257653   
  15107400   309.22848      0.96590345    -30062766       0.70984504     920.8296      -30061845       928.30694      928.30694      928.30694      2035.8465      2964.1535      2035.8465      2964.1535      2035.8465      2964.1535      7.99972e+08    0.5            7758700        20.454266      7328.8132      14657.608      0.17882009   
  15107600   309.0658       1.3767034     -30062878       0.70986855     920.34518     -30061958       928.29669      928.29669      928.29669      2035.8517      2964.1483      2035.8517      2964.1483      2035.8517      2964.1483      7.999455e+08   0.5            7758800        20.468136      7209.5392      14419.098      0.16506563   
  15107800   308.95709      0.99537107    -30062990       0.70986742     920.02146     -30062070       928.29718      928.29718      928.29718      2035.8514      2964.1486      2035.8514      2964.1486      2035.8514      2964.1486      7.9994678e+08  0.5            7758900        20.481683      7381.7016      14763.427      0.15130862   
  15108000   308.96815      0.54097375    -30063102       0.70986535     920.05438     -30062182       928.29808      928.29808      928.29808      2035.851       2964.149       2035.851       2964.149       2035.851       2964.149       7.9994912e+08  0.5            7759000        20.495296      7346.2151      14692.398      0.13755233   
  15108200   309.1766       1.1252514     -30063213       0.7098977      920.67512     -30062292       928.28398      928.28398      928.28398      2035.858       2964.142       2035.858       2964.142       2035.858       2964.142       7.9991266e+08  0.5            7759100        20.50907       7259.935       14519.925      0.12379721   
  15108400   309.34287      1.5135175     -30063325       0.70992321     921.17023     -30062404       928.27286      928.27286      928.27286      2035.8636      2964.1364      2035.8636      2964.1364      2035.8636      2964.1364      7.9988391e+08  0.5            7759200        20.523124      7115.1437      14230.211      0.11004357   
  15108600   309.27755      1.1207126     -30063439       0.70992197     920.97574     -30062518       928.2734       928.2734       928.2734       2035.8633      2964.1367      2035.8633      2964.1367      2035.8633      2964.1367      7.9988531e+08  0.5            7759300        20.536919      7249.0238      14498.02       0.096288312  
  15108800   309.07561      0.63085274    -30063551       0.70991651     920.37439     -30062631       928.27578      928.27578      928.27578      2035.8621      2964.1379      2035.8621      2964.1379      2035.8621      2964.1379      7.9989146e+08  0.5            7759400        20.550556      7332.9503      14665.945      0.082532364  
  15109000   308.89965      0.37888402    -30063663       0.70991848     919.85042     -30062743       928.27493      928.27493      928.27493      2035.8625      2964.1375      2035.8625      2964.1375      2035.8625      2964.1375      7.9988925e+08  0.5            7759500        20.564445      7200.3841      14400.73       0.068777414  
  15109200   308.91249      0.58389665    -30063773       0.70993561     919.88866     -30062854       928.26746      928.26746      928.26746      2035.8663      2964.1337      2035.8663      2964.1337      2035.8663      2964.1337      7.9986995e+08  0.5            7759600        20.578059      7345.1947      14690.433      0.055021553  
  15109400   309.02678      1.2483066     -30063884       0.70996828     920.22898     -30062964       928.25322      928.25322      928.25322      2035.8734      2964.1266      2035.8734      2964.1266      2035.8734      2964.1266      7.9983314e+08  0.5            7759700        20.591701      7330.2583      14660.506      0.041265938  
  15109600   309.13557      1.7718288     -30063994       0.70999685     920.55295     -30063074       928.24077      928.24077      928.24077      2035.8796      2964.1204      2035.8796      2964.1204      2035.8796      2964.1204      7.9980095e+08  0.5            7759800        20.605283      7362.5021      14725.011      0.027510394  
  15109800   309.17417      1.7686451     -30064106       0.71000879     920.66788     -30063185       928.23557      928.23557      928.23557      2035.8822      2964.1178      2035.8822      2964.1178      2035.8822      2964.1178      7.997875e+08   0.5            7759900        20.619432      7067.6563      14135.308      0.01375546   
  15110000   309.13211      1.4048776     -30064218       0.71000961     920.54264     -30063297       928.23521      928.23521      928.23521      2035.8824      2964.1176      2035.8824      2964.1176      2035.8824      2964.1176      7.9978658e+08  0.5            7760000        20.63303       7354.392       14708.718      0            
Loop time of 20.6331 on 4 procs for 300000 steps with 1000 atoms

Performance: 628.118 ns/day, 0.038 hours/ns, 14539.775 timesteps/s
99.5% CPU use with 4 MPI tasks x no OpenMP threads

MPI task timing breakdown:
Section |  min time  |  avg time  |  max time  |%varavg| %total
---------------------------------------------------------------
Pair    | 3.429      | 7.1751     | 11.686     | 125.8 | 34.77
Neigh   | 0.0073413  | 0.014123   | 0.022862   |   5.2 |  0.07
Comm    | 3.6311     | 7.8936     | 11.363     | 112.4 | 38.26
Output  | 0.04674    | 0.053235   | 0.070399   |   4.3 |  0.26
Modify  | 3.9875     | 4.2614     | 4.6037     |  11.7 | 20.65
Other   |            | 1.236      |            |       |  5.99

Nlocal:            250 ave         375 max         135 min
Histogram: 1 0 1 0 0 0 0 1 0 1
Nghost:            506 ave         539 max         473 min
Histogram: 2 0 0 0 0 0 0 0 0 2
Neighs:         1145.5 ave        1932 max         496 min
Histogram: 1 1 0 0 0 0 1 0 0 1

Total # of neighbors = 4582
Ave neighs/atom = 4.582
Neighbor list builds = 102
Dangerous builds = 26

# run_style
run_style verlet

# write restart
write_restart ${write_res}
write_restart ./pgnpmf/46/equpmf21.res
System init for write_restart ...
Generated 0 of 1 mixed pair_coeff terms from geometric mixing rule

Total wall time: 0:00:43
