LAMMPS (23 Jun 2022 - Update 1)
# Read restart
read_restart ${read_res}
read_restart ./pgnpmf/46/equpmf69.res
Reading restart file ...
  restart file = 23 Jun 2022, LAMMPS = 23 Jun 2022
  restoring atom style atomic from restart
  orthogonal box = (2162.7721 2162.7721 2162.7721) to (2837.2279 2837.2279 2837.2279)
  1 by 2 by 2 MPI processor grid
  restoring pair style table from restart
  1000 atoms
  read_restart CPU = 0.006 seconds

# Settings

pair_style table spline 9941

pair_coeff 1 1 ./pgnpmf/N20.txt DE_GNP 75.6
pair_coeff 2 2 ./pgnpmf/N100.txt DE_GNP 115.92
WARNING: 3 of 9941 force values in table DE_GNP are inconsistent with -dE/dr.
WARNING:  Should only be flagged at inflection points (../pair_table.cpp:463)
pair_coeff 1 2 ./pgnpmf/mixed_potential.txt DE_GNP 95.66
WARNING: 1562 of 9941 force values in table DE_GNP are inconsistent with -dE/dr.
WARNING:  Should only be flagged at inflection points (../pair_table.cpp:463)

#Neigh_list Calc Frequency

neigh_modify delay 0 every 1 check yes

# Saving Frequency (50 frames)

variable ts_save equal ${steps_equ}
variable ts_save equal 5000

# Dump
#dump 1 all custom ${ts_save} ./pgnpmf/${folder}/equilibration/trajectory/trajectory_${usic}_${trial}.equ.custom type x y z ix iy iz
#dump_modify 1 first no sort id
dump 2 all cfg 50000 ./pgnpmf/${folder}/equilibration/trajectory/dumpgen.tens_*.cfg mass type xs ys zs fx fy fz
dump 2 all cfg 50000 ./pgnpmf/46/equilibration/trajectory/dumpgen.tens_*.cfg mass type xs ys zs fx fy fz
dump_modify 2 element N20 N100

# thermo_style
thermo_style custom step temp press pe density ke etotal lx ly lz xlo xhi ylo yhi zlo zhi vol dt time cpu tpcpu spcpu cpuremain

# run info
timestep ${ts}
timestep 0.5
thermo 200

# fix

fix 1 all momentum 1000 linear 1 1 1 angular
variable T equal ${temp}
variable T equal 300
fix 2 all nvt temp ${T} 370000 100.0
fix 2 all nvt temp 300 370000 100.0

run 100000
Generated 0 of 1 mixed pair_coeff terms from geometric mixing rule
Unused restart file global fix info:
  fix style: npt, fix ID: 5
Neighbor list info ...
  update every 1 steps, delay 0 steps, check yes
  max neighbors/atom: 2000, page size: 100000
  master list distance cutoff = 117.92
  ghost atom cutoff = 117.92
  binsize = 58.96, bins = 12 12 12
  1 neighbor lists, perpetual/occasional/extra = 1 0 0
  (1) pair table, perpetual
      attributes: half, newton on
      pair build: half/bin/atomonly/newton
      stencil: half/bin/3d
      bin: standard
Per MPI rank memory allocation (min/avg/max) = 3.086 | 3.086 | 3.087 Mbytes
   Step          Temp          Press          PotEng        Density         KinEng         TotEng           Lx             Ly             Lz            Xlo            Xhi            Ylo            Yhi            Zlo            Zhi           Volume           Dt            Time           CPU           T/CPU          S/CPU         CPULeft    
  48710000   288.73808      0.94286393    -39200881       1.8508778      859.81269     -39200021       674.45585      674.45585      674.45585      2162.7721      2837.2279      2162.7721      2837.2279      2162.7721      2837.2279      3.0680369e+08  0.5            24560000       0              0              0              0            
  48710200   347.36921      0.79624345    -39200891       1.8508778      1034.4062     -39199857       674.45585      674.45585      674.45585      2162.7721      2837.2279      2162.7721      2837.2279      2162.7721      2837.2279      3.0680369e+08  0.5            24560100       0.012734441    7852.2884      15703.646      6.3555579    
  48710400   491.07587      0.67047226    -39200903       1.8508778      1462.3401     -39199441       674.45585      674.45585      674.45585      2162.7721      2837.2279      2162.7721      2837.2279      2162.7721      2837.2279      3.0680369e+08  0.5            24560200       0.024671614    8377.296       16754.534      6.1437458    
  48710600   738.48961      0.13437778    -39201285       1.8508778      2199.096      -39199086       674.45585      674.45585      674.45585      2162.7721      2837.2279      2162.7721      2837.2279      2162.7721      2837.2279      3.0680369e+08  0.5            24560300       0.036603976    8380.5824      16761.238      6.0643842    
  48710800   1139.3136      0.10852064    -39201292       1.8508778      3392.6813     -39197900       674.45585      674.45585      674.45585      2162.7721      2837.2279      2162.7721      2837.2279      2162.7721      2837.2279      3.0680369e+08  0.5            24560400       0.048488352    8414.467       16829.012      6.0127837    
  48711000   1766.7409     -0.10271848    -39201291       1.8508778      5261.0527     -39196030       674.45585      674.45585      674.45585      2162.7721      2837.2279      2162.7721      2837.2279      2162.7721      2837.2279      3.0680369e+08  0.5            24560500       0.060390621    8401.7467      16803.45       5.978863     
  48711200   2702.7754      0.13451801    -39201272       1.8508778      8048.4037     -39193223       674.45585      674.45585      674.45585      2162.7721      2837.2279      2162.7721      2837.2279      2162.7721      2837.2279      3.0680369e+08  0.5            24560600       0.072240881    8438.6519      16877.351      5.9479813    
  48711400   3990.5526      0.66496402    -39201222       1.8508778      11883.184     -39189339       674.45585      674.45585      674.45585      2162.7721      2837.2279      2162.7721      2837.2279      2162.7721      2837.2279      3.0680369e+08  0.5            24560700       0.084221165    8347.058       16694.091      5.9316997    
  48711600   5541.0544      2.0679049     -39201122       1.8508778      16500.314     -39184622       674.45585      674.45585      674.45585      2162.7721      2837.2279      2162.7721      2837.2279      2162.7721      2837.2279      3.0680369e+08  0.5            24560800       0.096830311    7930.6286      15861.238      5.9551894    
  48711800   7038.6728      2.9888126     -39200962       1.8508778      20959.966     -39180002       674.45585      674.45585      674.45585      2162.7721      2837.2279      2162.7721      2837.2279      2162.7721      2837.2279      3.0680369e+08  0.5            24560900       0.10878794     8362.9311      16725.826      5.9350955    
  48712000   8014.5193      4.3796793     -39200361       1.8508778      23865.87      -39176495       674.45585      674.45585      674.45585      2162.7721      2837.2279      2162.7721      2837.2279      2162.7721      2837.2279      3.0680369e+08  0.5            24561000       0.12081333     8315.7082      16631.409      5.9199533    
  48712200   8385.4308      5.1659444     -39200051       1.8508778      24970.381     -39175080       674.45585      674.45585      674.45585      2162.7721      2837.2279      2162.7721      2837.2279      2162.7721      2837.2279      3.0680369e+08  0.5            24561100       0.1329148      8263.5449      16527.187      5.9087475    
  48712400   8821.6683      6.0592179     -39207051       1.8508778      26269.422     -39180782       674.45585      674.45585      674.45585      2162.7721      2837.2279      2162.7721      2837.2279      2162.7721      2837.2279      3.0680369e+08  0.5            24561200       0.14490605     8339.3912      16678.732      5.8929241    
  48712600   9792.9355      7.6063887     -39206599       1.8508778      29161.69      -39177437       674.45585      674.45585      674.45585      2162.7721      2837.2279      2162.7721      2837.2279      2162.7721      2837.2279      3.0680369e+08  0.5            24561300       0.1570888      8208.3314      16416.702      5.8848573    
  48712800   10849.635      9.4211752     -39204140       1.8508778      32308.359     -39171832       674.45585      674.45585      674.45585      2162.7721      2837.2279      2162.7721      2837.2279      2162.7721      2837.2279      3.0680369e+08  0.5            24561400       0.16893823     8439.2209      16878.383      5.8646357    
  48713000   11501.914      10.659992     -39203471       1.8508778      34250.735     -39169220       674.45585      674.45585      674.45585      2162.7721      2837.2279      2162.7721      2837.2279      2162.7721      2837.2279      3.0680369e+08  0.5            24561500       0.18091344     8350.5675      16701.174      5.8495957    
  48713200   11938.373      11.249585     -39206481       1.8508778      35550.437     -39170931       674.45585      674.45585      674.45585      2162.7721      2837.2279      2162.7721      2837.2279      2162.7721      2837.2279      3.0680369e+08  0.5            24561600       0.19424905     7498.7573      14997.474      5.8760897    
  48713400   12665.62       12.027412     -39212977       1.8508778      37716.054     -39175261       674.45585      674.45585      674.45585      2162.7721      2837.2279      2162.7721      2837.2279      2162.7721      2837.2279      3.0680369e+08  0.5            24561700       0.20642524     8212.7348      16425.484      5.8649579    
  48713600   13660.435      14.512417     -39211960       1.8508778      40678.442     -39171282       674.45585      674.45585      674.45585      2162.7721      2837.2279      2162.7721      2837.2279      2162.7721      2837.2279      3.0680369e+08  0.5            24561800       0.21866297     8171.4468      16342.971      5.8553564    
  48713800   14483.973      17.169025     -39208901       1.8508778      43130.799     -39165770       674.45585      674.45585      674.45585      2162.7721      2837.2279      2162.7721      2837.2279      2162.7721      2837.2279      3.0680369e+08  0.5            24561900       0.23058239     8389.6566      16779.298      5.8374218    
  48714000   15025.892      19.478608     -39207605       1.8508778      44744.54      -39162860       674.45585      674.45585      674.45585      2162.7721      2837.2279      2162.7721      2837.2279      2162.7721      2837.2279      3.0680369e+08  0.5            24562000       0.24267131     8272.0457      16544.013      5.824157     
  48714200   15630.436      23.434881     -39206180       1.8508778      46544.77      -39159635       674.45585      674.45585      674.45585      2162.7721      2837.2279      2162.7721      2837.2279      2162.7721      2837.2279      3.0680369e+08  0.5            24562100       0.25480361     8242.4894      16485.039      5.8119892    
  48714400   16503.355      27.661288     -39202733       1.8508778      49144.173     -39153589       674.45585      674.45585      674.45585      2162.7721      2837.2279      2162.7721      2837.2279      2162.7721      2837.2279      3.0680369e+08  0.5            24562200       0.26712125     8118.4257      16236.859      5.8038556    
  48714600   17398.09       31.364366     -39208430       1.8508778      51808.542     -39156621       674.45585      674.45585      674.45585      2162.7721      2837.2279      2162.7721      2837.2279      2162.7721      2837.2279      3.0680369e+08  0.5            24562300       0.27904393     8387.364       16774.704      5.7871671    
  48714800   18077.578      35.222479     -39206658       1.8508778      53831.941     -39152826       674.45585      674.45585      674.45585      2162.7721      2837.2279      2162.7721      2837.2279      2162.7721      2837.2279      3.0680369e+08  0.5            24562400       0.29144995     8060.5918      16121.224      5.78046      
  48715000   18668.948      37.225959     -39204826       1.8508778      55592.939     -39149233       674.45585      674.45585      674.45585      2162.7721      2837.2279      2162.7721      2837.2279      2162.7721      2837.2279      3.0680369e+08  0.5            24562500       0.30347032     8319.1997      16638.305      5.7659731    
  48715200   19426.099      39.485282     -39212225       1.8508778      57847.605     -39154377       674.45585      674.45585      674.45585      2162.7721      2837.2279      2162.7721      2837.2279      2162.7721      2837.2279      3.0680369e+08  0.5            24562600       0.31570268     8175.0387      16350.135      5.7555368    
  48715400   20319.519      43.508726     -39210363       1.8508778      60508.058     -39149854       674.45585      674.45585      674.45585      2162.7721      2837.2279      2162.7721      2837.2279      2162.7721      2837.2279      3.0680369e+08  0.5            24562700       0.32746243     8503.6299      17007.235      5.7366881    
  48715600   21100.555      46.146295     -39217803       1.8508778      62833.848     -39154969       674.45585      674.45585      674.45585      2162.7721      2837.2279      2162.7721      2837.2279      2162.7721      2837.2279      3.0680369e+08  0.5            24562800       0.33933544     8422.4492      16844.893      5.7202574    
  48715800   21732.717      49.051454     -39216052       1.8508778      64716.319     -39151336       674.45585      674.45585      674.45585      2162.7721      2837.2279      2162.7721      2837.2279      2162.7721      2837.2279      3.0680369e+08  0.5            24562900       0.35133559     8333.2667      16666.543      5.7062038    
  48716000   22412.206      51.181283     -39214783       1.8508778      66739.722     -39148043       674.45585      674.45585      674.45585      2162.7721      2837.2279      2162.7721      2837.2279      2162.7721      2837.2279      3.0680369e+08  0.5            24563000       0.36352076     8206.6487      16413.278      5.6951879    
  48716200   23250.201      53.910065     -39213281       1.8508778      69235.129     -39144046       674.45585      674.45585      674.45585      2162.7721      2837.2279      2162.7721      2837.2279      2162.7721      2837.2279      3.0680369e+08  0.5            24563100       0.37566395     8235.0921      16470.221      5.6834591    
  48716400   24087.078      57.263115     -39211933       1.8508778      71727.205     -39140205       674.45585      674.45585      674.45585      2162.7721      2837.2279      2162.7721      2837.2279      2162.7721      2837.2279      3.0680369e+08  0.5            24563200       0.38762058     8363.5404      16727.008      5.6689781    
  48716600   24769.326      60.373749     -39214533       1.8508778      73758.822     -39140774       674.45585      674.45585      674.45585      2162.7721      2837.2279      2162.7721      2837.2279      2162.7721      2837.2279      3.0680369e+08  0.5            24563300       0.39984616     8179.5844      16359.292      5.6584541    
  48716800   25404.381      62.046687     -39206510       1.8508778      75649.908     -39130860       674.45585      674.45585      674.45585      2162.7721      2837.2279      2162.7721      2837.2279      2162.7721      2837.2279      3.0680369e+08  0.5            24563400       0.41205688     8189.5206      16378.969      5.6476284    
  48717000   26160.616      66.173105     -39201492       1.8508778      77901.849     -39123590       674.45585      674.45585      674.45585      2162.7721      2837.2279      2162.7721      2837.2279      2162.7721      2837.2279      3.0680369e+08  0.5            24563500       0.42427604     8183.8539      16367.773      5.6368343    
  48717200   27009.254      68.284199     -39207772       1.8508778      80428.946     -39127344       674.45585      674.45585      674.45585      2162.7721      2837.2279      2162.7721      2837.2279      2162.7721      2837.2279      3.0680369e+08  0.5            24563600       0.43632655     8298.4336      16596.808      5.6237879    
  48717400   27748.957      71.325267     -39207103       1.8508778      82631.657     -39124472       674.45585      674.45585      674.45585      2162.7721      2837.2279      2162.7721      2837.2279      2162.7721      2837.2279      3.0680369e+08  0.5            24563700       0.44818879     8430.121       16860.194      5.6084389    
  48717600   28372.259      73.42203      -39198730       1.8508778      84487.743     -39114242       674.45585      674.45585      674.45585      2162.7721      2837.2279      2162.7721      2837.2279      2162.7721      2837.2279      3.0680369e+08  0.5            24563800       0.46029668     8259.0617      16518.162      5.596261     
  48717800   29060.09       77.203288     -39198093       1.8508778      86535.985     -39111557       674.45585      674.45585      674.45585      2162.7721      2837.2279      2162.7721      2837.2279      2162.7721      2837.2279      3.0680369e+08  0.5            24563900       0.47222172     8385.7323      16771.45       5.5819245    
  48718000   29880.502      80.115546     -39199275       1.8508778      88979.034     -39110296       674.45585      674.45585      674.45585      2162.7721      2837.2279      2162.7721      2837.2279      2162.7721      2837.2279      3.0680369e+08  0.5            24564000       0.48436797     8232.9531      16465.87       5.570255     
  48718200   30688.769      84.228874     -39188800       1.8508778      91385.912     -39097414       674.45585      674.45585      674.45585      2162.7721      2837.2279      2162.7721      2837.2279      2162.7721      2837.2279      3.0680369e+08  0.5            24564100       0.496813       8035.353       16070.721      5.5619031    
  48718400   31359.913      87.565784     -39189717       1.8508778      93384.465     -39096333       674.45585      674.45585      674.45585      2162.7721      2837.2279      2162.7721      2837.2279      2162.7721      2837.2279      3.0680369e+08  0.5            24564200       0.50907181     8157.3654      16314.815      5.5513271    
  48718600   31989.781      91.394101     -39178882       1.8508778      95260.105     -39083622       674.45585      674.45585      674.45585      2162.7721      2837.2279      2162.7721      2837.2279      2162.7721      2837.2279      3.0680369e+08  0.5            24564300       0.5208602      8482.9161      16965.785      5.535674     
  48718800   32761.031      94.751322     -39170098       1.8508778      97556.757     -39072541       674.45585      674.45585      674.45585      2162.7721      2837.2279      2162.7721      2837.2279      2162.7721      2837.2279      3.0680369e+08  0.5            24564400       0.53291426     8295.9779      16591.982      5.5229494    
  48719000   33599.326      99.678902     -39166902       1.8508778      100053.06     -39066849       674.45585      674.45585      674.45585      2162.7721      2837.2279      2162.7721      2837.2279      2162.7721      2837.2279      3.0680369e+08  0.5            24564500       0.54488664     8352.5819      16705.14       5.5094279    
  48719200   34336.876      103.5124      -39163074       1.8508778      102249.35     -39060825       674.45585      674.45585      674.45585      2162.7721      2837.2279      2162.7721      2837.2279      2162.7721      2837.2279      3.0680369e+08  0.5            24564600       0.55732227     8041.3738      16082.833      5.5005464    
  48719400   34977.569      107.75999     -39166363       1.8508778      104157.23     -39062205       674.45585      674.45585      674.45585      2162.7721      2837.2279      2162.7721      2837.2279      2162.7721      2837.2279      3.0680369e+08  0.5            24564700       0.56923801     8392.3047      16784.49       5.486504     
  48719600   35699.381      113.05576     -39171347       1.8508778      106306.66     -39065041       674.45585      674.45585      674.45585      2162.7721      2837.2279      2162.7721      2837.2279      2162.7721      2837.2279      3.0680369e+08  0.5            24564800       0.58108032     8444.2799      16888.627      5.4718566    
  48719800   36525.777      118.64573     -39168770       1.8508778      108767.53     -39060002       674.45585      674.45585      674.45585      2162.7721      2837.2279      2162.7721      2837.2279      2162.7721      2837.2279      3.0680369e+08  0.5            24564900       0.5934015      8116.1262      16232.264      5.461732     
  48720000   37309.322      124.10972     -39165665       1.8508778      111100.79     -39054564       674.45585      674.45585      674.45585      2162.7721      2837.2279      2162.7721      2837.2279      2162.7721      2837.2279      3.0680369e+08  0.5            24565000       0.60541593     8323.2885      16646.476      5.4487605    
  48720200   38006.777      130.98112     -39162862       1.8508778      113177.69     -39049684       674.45585      674.45585      674.45585      2162.7721      2837.2279      2162.7721      2837.2279      2162.7721      2837.2279      3.0680369e+08  0.5            24565100       0.61742833     8324.7498      16649.584      5.4358063    
  48720400   38709.292      138.87925     -39159684       1.8508778      115269.66     -39044415       674.45585      674.45585      674.45585      2162.7721      2837.2279      2162.7721      2837.2279      2162.7721      2837.2279      3.0680369e+08  0.5            24565200       0.62925542     8455.2045      16910.35       5.4212927    
  48720600   39505.195      144.85906     -39149956       1.8508778      117639.73     -39032316       674.45585      674.45585      674.45585      2162.7721      2837.2279      2162.7721      2837.2279      2162.7721      2837.2279      3.0680369e+08  0.5            24565300       0.6414292      8214.3647      16428.759      5.4098047    
  48720800   40319.942      148.3788      -39154775       1.8508778      120065.9      -39034709       674.45585      674.45585      674.45585      2162.7721      2837.2279      2162.7721      2837.2279      2162.7721      2837.2279      3.0680369e+08  0.5            24565400       0.65340021     8353.4917      16706.978      5.396617     
  48721000   41046.223      154.23281     -39152417       1.8508778      122228.64     -39030188       674.45585      674.45585      674.45585      2162.7721      2837.2279      2162.7721      2837.2279      2162.7721      2837.2279      3.0680369e+08  0.5            24565500       0.66534978     8368.4845      16736.946      5.3832997    
  48721200   41732.566      160.34281     -39148767       1.8508778      124272.46     -39024495       674.45585      674.45585      674.45585      2162.7721      2837.2279      2162.7721      2837.2279      2162.7721      2837.2279      3.0680369e+08  0.5            24565600       0.67745685     8259.6504      16519.309      5.3712797    
  48721400   42479.548      167.06394     -39143099       1.8508778      126496.84     -39016602       674.45585      674.45585      674.45585      2162.7721      2837.2279      2162.7721      2837.2279      2162.7721      2837.2279      3.0680369e+08  0.5            24565700       0.68964875     8202.1764      16404.352      5.3599159    
  48721600   43274.174      172.2589      -39140123       1.8508778      128863.1      -39011260       674.45585      674.45585      674.45585      2162.7721      2837.2279      2162.7721      2837.2279      2162.7721      2837.2279      3.0680369e+08  0.5            24565800       0.70163408     8343.5305      16687.083      5.3469495    
  48721800   44009.663      177.03976     -39146371       1.8508778      131053.26     -39015318       674.45585      674.45585      674.45585      2162.7721      2837.2279      2162.7721      2837.2279      2162.7721      2837.2279      3.0680369e+08  0.5            24565900       0.71352512     8409.704       16819.316      5.333312     
  48722000   44678.655      179.81941     -39146864       1.8508778      133045.41     -39013818       674.45585      674.45585      674.45585      2162.7721      2837.2279      2162.7721      2837.2279      2162.7721      2837.2279      3.0680369e+08  0.5            24566000       0.72551222     8342.2867      16684.629      5.3204365    
  48722200   45381.159      182.90872     -39146194       1.8508778      135137.34     -39011057       674.45585      674.45585      674.45585      2162.7721      2837.2279      2162.7721      2837.2279      2162.7721      2837.2279      3.0680369e+08  0.5            24566100       0.73739719     8414.0097      16828.033      5.3068551    
  48722400   46169.801      189.00235     -39128457       1.8508778      137485.78     -38990971       674.45585      674.45585      674.45585      2162.7721      2837.2279      2162.7721      2837.2279      2162.7721      2837.2279      3.0680369e+08  0.5            24566200       0.7493335      8377.7915      16755.615      5.2936912    
  48722600   46944.393      193.496       -39136153       1.8508778      139792.38     -38996361       674.45585      674.45585      674.45585      2162.7721      2837.2279      2162.7721      2837.2279      2162.7721      2837.2279      3.0680369e+08  0.5            24566300       0.7610784      8514.3107      17028.604      5.279239     
  48722800   47636.464      198.93021     -39141778       1.8508778      141853.26     -38999925       674.45585      674.45585      674.45585      2162.7721      2837.2279      2162.7721      2837.2279      2162.7721      2837.2279      3.0680369e+08  0.5            24566400       0.773112       8310.0389      16620.122      5.2668379    
  48723000   48327.056      203.84944     -39134737       1.8508778      143909.72     -38990828       674.45585      674.45585      674.45585      2162.7721      2837.2279      2162.7721      2837.2279      2162.7721      2837.2279      3.0680369e+08  0.5            24566500       0.78498835     8420.1117      16840.124      5.2533961    
  48723200   49106.407      210.90618     -39115982       1.8508778      146230.5      -38969751       674.45585      674.45585      674.45585      2162.7721      2837.2279      2162.7721      2837.2279      2162.7721      2837.2279      3.0680369e+08  0.5            24566600       0.79808311     7636.629       15273.321      5.2480132    
  48723400   49905.123      216.62019     -39121073       1.8508778      148608.94     -38972464       674.45585      674.45585      674.45585      2162.7721      2837.2279      2162.7721      2837.2279      2162.7721      2837.2279      3.0680369e+08  0.5            24566700       0.81115981     7647.1852      15294.361      5.2422839    
  48723600   50637.559      221.8572      -39116738       1.8508778      150790        -38965948       674.45585      674.45585      674.45585      2162.7721      2837.2279      2162.7721      2837.2279      2162.7721      2837.2279      3.0680369e+08  0.5            24566800       0.82332774     8218.3423      16436.62       5.2305651    
  48723800   51341.013      226.31299     -39114152       1.8508778      152884.77     -38961268       674.45585      674.45585      674.45585      2162.7721      2837.2279      2162.7721      2837.2279      2162.7721      2837.2279      3.0680369e+08  0.5            24566900       0.83515076     8458.1059      16916.305      5.2166777    
  48724000   52106.275      232.9787      -39111467       1.8508778      155163.59     -38956304       674.45585      674.45585      674.45585      2162.7721      2837.2279      2162.7721      2837.2279      2162.7721      2837.2279      3.0680369e+08  0.5            24567000       0.84722817     8279.9223      16559.831      5.2044127    
  48724200   52925.37       239.47931     -39113840       1.8508778      157602.72     -38956237       674.45585      674.45585      674.45585      2162.7721      2837.2279      2162.7721      2837.2279      2162.7721      2837.2279      3.0680369e+08  0.5            24567100       0.85901266     8485.7098      16971.352      5.1903838    
  48724400   53731.022      246.21179     -39116579       1.8508778      160001.81     -38956577       674.45585      674.45585      674.45585      2162.7721      2837.2279      2162.7721      2837.2279      2162.7721      2837.2279      3.0680369e+08  0.5            24567200       0.87103112     8320.5287      16641.132      5.1778069    
  48724600   54613.025      253.17334     -39111964       1.8508778      162628.26     -38949336       674.45585      674.45585      674.45585      2162.7721      2837.2279      2162.7721      2837.2279      2162.7721      2837.2279      3.0680369e+08  0.5            24567300       0.88307839     8300.6351      16601.245      5.1654146    
  48724800   55958.872      260.62612     -39111191       1.8508778      166635.97     -38944555       674.45585      674.45585      674.45585      2162.7721      2837.2279      2162.7721      2837.2279      2162.7721      2837.2279      3.0680369e+08  0.5            24567400       0.89531409     8172.8078      16345.66       5.1541161    
  48725000   58039.025      266.84072     -39108565       1.8508778      172830.31     -38935734       674.45585      674.45585      674.45585      2162.7721      2837.2279      2162.7721      2837.2279      2162.7721      2837.2279      3.0680369e+08  0.5            24567500       0.90752891     8186.7905      16373.617      5.1426735    
  48725200   58506.661      274.1827      -39107557       1.8508778      174222.85     -38933334       674.45585      674.45585      674.45585      2162.7721      2837.2279      2162.7721      2837.2279      2162.7721      2837.2279      3.0680369e+08  0.5            24567600       0.91952143     8338.5011      16676.898      5.1299722    
  48725400   54904.832      277.93741     -39095910       1.8508778      163497.21     -38932413       674.45585      674.45585      674.45585      2162.7721      2837.2279      2162.7721      2837.2279      2162.7721      2837.2279      3.0680369e+08  0.5            24567700       0.93143696     8392.4624      16784.966      5.1168647    
  48725600   54581.862      283.60335     -39099229       1.8508778      162535.46     -38936694       674.45585      674.45585      674.45585      2162.7721      2837.2279      2162.7721      2837.2279      2162.7721      2837.2279      3.0680369e+08  0.5            24567800       0.94350812     8284.1943      16568.364      5.1046307    
  48725800   57648.458      290.14292     -39097171       1.8508778      171667.26     -38925504       674.45585      674.45585      674.45585      2162.7721      2837.2279      2162.7721      2837.2279      2162.7721      2837.2279      3.0680369e+08  0.5            24567900       0.95540395     8406.2795      16812.559      5.0914664    
  48726000   59190.67       295.5509      -39093327       1.8508778      176259.71     -38917067       674.45585      674.45585      674.45585      2162.7721      2837.2279      2162.7721      2837.2279      2162.7721      2837.2279      3.0680369e+08  0.5            24568000       0.96736361     8361.4704      16722.921      5.0786687    
  48726200   60586.872      300.83232     -39082129       1.8508778      180417.36     -38901711       674.45585      674.45585      674.45585      2162.7721      2837.2279      2162.7721      2837.2279      2162.7721      2837.2279      3.0680369e+08  0.5            24568100       0.97949197     8245.1106      16490.253      5.0667645    
  48726400   61363.373      306.94788     -39078317       1.8508778      182729.65     -38895587       674.45585      674.45585      674.45585      2162.7721      2837.2279      2162.7721      2837.2279      2162.7721      2837.2279      3.0680369e+08  0.5            24568200       0.99159244     8264.1719      16528.285      5.0547124    
  48726600   62211.115      313.18622     -39080121       1.8508778      185254.08     -38894867       674.45585      674.45585      674.45585      2162.7721      2837.2279      2162.7721      2837.2279      2162.7721      2837.2279      3.0680369e+08  0.5            24568300       1.0038031      8189.5494      16379.187      5.0432127    
  48726800   64599.424      318.99253     -39072131       1.8508778      192366.05     -38879765       674.45585      674.45585      674.45585      2162.7721      2837.2279      2162.7721      2837.2279      2162.7721      2837.2279      3.0680369e+08  0.5            24568400       1.015765       8359.8724      16719.737      5.0304644    
  48727000   64464.343      324.89436     -39079008       1.8508778      191963.8      -38887044       674.45585      674.45585      674.45585      2162.7721      2837.2279      2162.7721      2837.2279      2162.7721      2837.2279      3.0680369e+08  0.5            24568500       1.0278203      8295.1239      16590.171      5.0181905    
  48727200   60668.579      328.79685     -39080507       1.8508778      180660.67     -38899846       674.45585      674.45585      674.45585      2162.7721      2837.2279      2162.7721      2837.2279      2162.7721      2837.2279      3.0680369e+08  0.5            24568600       1.0397417      8388.3012      16776.598      5.005277     
  48727400   60956.023      335.94412     -39070263       1.8508778      181516.63     -38888747       674.45585      674.45585      674.45585      2162.7721      2837.2279      2162.7721      2837.2279      2162.7721      2837.2279      3.0680369e+08  0.5            24568700       1.0517425      8332.7639      16665.542      4.9927633    
  48727600   64246.659      346.67538     -39070978       1.8508778      191315.58     -38879663       674.45585      674.45585      674.45585      2162.7721      2837.2279      2162.7721      2837.2279      2162.7721      2837.2279      3.0680369e+08  0.5            24568800       1.0638073      8288.6018      16577.227      4.9805607    
  48727800   65697.328      354.43171     -39059995       1.8508778      195635.43     -38864359       674.45585      674.45585      674.45585      2162.7721      2837.2279      2162.7721      2837.2279      2162.7721      2837.2279      3.0680369e+08  0.5            24568900       1.0756923      8413.9495      16827.886      4.9675312    
  48728000   67124.344      362.3684      -39040932       1.8508778      199884.83     -38841047       674.45585      674.45585      674.45585      2162.7721      2837.2279      2162.7721      2837.2279      2162.7721      2837.2279      3.0680369e+08  0.5            24569000       1.0880758      8075.251       16150.525      4.9567978    
  48728200   67705.756      369.8631      -39042171       1.8508778      201616.18     -38840555       674.45585      674.45585      674.45585      2162.7721      2837.2279      2162.7721      2837.2279      2162.7721      2837.2279      3.0680369e+08  0.5            24569100       1.1005832      7995.2706      15990.585      4.9465849    
  48728400   68397.997      377.23572     -39041367       1.8508778      203677.56     -38837689       674.45585      674.45585      674.45585      2162.7721      2837.2279      2162.7721      2837.2279      2162.7721      2837.2279      3.0680369e+08  0.5            24569200       1.1125379      8364.962       16729.773      4.9338717    
  48728600   70310.787      385.09329     -39035017       1.8508778      209373.52     -38825644       674.45585      674.45585      674.45585      2162.7721      2837.2279      2162.7721      2837.2279      2162.7721      2837.2279      3.0680369e+08  0.5            24569300       1.124721       8208.0612      16416.187      4.9221739    
  48728800   71500.408      395.17845     -39032854       1.8508778      212916.01     -38819938       674.45585      674.45585      674.45585      2162.7721      2837.2279      2162.7721      2837.2279      2162.7721      2837.2279      3.0680369e+08  0.5            24569400       1.1368782      8225.5769      16451.17       4.910354     
  48729000   72386.995      401.41084     -39039657       1.8508778      215556.11     -38824100       674.45585      674.45585      674.45585      2162.7721      2837.2279      2162.7721      2837.2279      2162.7721      2837.2279      3.0680369e+08  0.5            24569500       1.148945       8287.1765      16574.397      4.8981417    
  48729200   73324.349      407.99597     -39036187       1.8508778      218347.39     -38817839       674.45585      674.45585      674.45585      2162.7721      2837.2279      2162.7721      2837.2279      2162.7721      2837.2279      3.0680369e+08  0.5            24569600       1.1612465      8129.1091      16258.268      4.8869196    
  48729400   70992.336      413.44657     -39023951       1.8508778      211403.05     -38812548       674.45585      674.45585      674.45585      2162.7721      2837.2279      2162.7721      2837.2279      2162.7721      2837.2279      3.0680369e+08  0.5            24569700       1.1732041      8362.885       16725.636      4.8742474    
  48729600   70045.834      421.9985      -39011887       1.8508778      208584.53     -38803303       674.45585      674.45585      674.45585      2162.7721      2837.2279      2162.7721      2837.2279      2162.7721      2837.2279      3.0680369e+08  0.5            24569800       1.1853402      8239.8828      16479.837      4.862321     
  48729800   74080.92       426.90591     -39024707       1.8508778      220600.33     -38804106       674.45585      674.45585      674.45585      2162.7721      2837.2279      2162.7721      2837.2279      2162.7721      2837.2279      3.0680369e+08  0.5            24569900       1.1976573      8118.7902      16237.587      4.8511239    
  48730000   74743.814      433.5597      -39022763       1.8508778      222574.31     -38800189       674.45585      674.45585      674.45585      2162.7721      2837.2279      2162.7721      2837.2279      2162.7721      2837.2279      3.0680369e+08  0.5            24570000       1.2098384      8209.4176      16418.825      4.8393609    
  48730200   74247.454      437.9365      -39019596       1.8508778      221096.24     -38798500       674.45585      674.45585      674.45585      2162.7721      2837.2279      2162.7721      2837.2279      2162.7721      2837.2279      3.0680369e+08  0.5            24570100       1.221919       8277.7476      16555.446      4.8271921    
  48730400   75876.852      441.36713     -39036325       1.8508778      225948.31     -38810377       674.45585      674.45585      674.45585      2162.7721      2837.2279      2162.7721      2837.2279      2162.7721      2837.2279      3.0680369e+08  0.5            24570200       1.2339273      8327.5928      16655.237      4.8147427    
  48730600   79723.242      448.3112      -39030607       1.8508778      237402.2      -38793205       674.45585      674.45585      674.45585      2162.7721      2837.2279      2162.7721      2837.2279      2162.7721      2837.2279      3.0680369e+08  0.5            24570300       1.2460418      8254.5512      16509.131      4.8027115    
  48730800   77813.347      453.26155     -39036864       1.8508778      231714.86     -38805149       674.45585      674.45585      674.45585      2162.7721      2837.2279      2162.7721      2837.2279      2162.7721      2837.2279      3.0680369e+08  0.5            24570400       1.2577457      8544.2152      17088.409      4.789115     
  48731000   74907.843      458.16955     -39042677       1.8508778      223062.77     -38819615       674.45585      674.45585      674.45585      2162.7721      2837.2279      2162.7721      2837.2279      2162.7721      2837.2279      3.0680369e+08  0.5            24570500       1.2698668      8250.0457      16500.015      4.7771246    
  48731200   77661.148      464.11282     -39048280       1.8508778      231261.64     -38817019       674.45585      674.45585      674.45585      2162.7721      2837.2279      2162.7721      2837.2279      2162.7721      2837.2279      3.0680369e+08  0.5            24570600       1.2819661      8264.945       16529.945      4.7650504    
  48731400   80554.083      470.8613      -39051682       1.8508778      239876.3      -38811806       674.45585      674.45585      674.45585      2162.7721      2837.2279      2162.7721      2837.2279      2162.7721      2837.2279      3.0680369e+08  0.5            24570700       1.2943266      8090.3007      16180.671      4.7539347    
  48731600   79229.548      476.54897     -39062167       1.8508778      235932.06     -38826235       674.45585      674.45585      674.45585      2162.7721      2837.2279      2162.7721      2837.2279      2162.7721      2837.2279      3.0680369e+08  0.5            24570800       1.3067459      8051.9253      16103.797      4.7430101    
  48731800   79480.193      483.27383     -39059889       1.8508778      236678.44     -38823211       674.45585      674.45585      674.45585      2162.7721      2837.2279      2162.7721      2837.2279      2162.7721      2837.2279      3.0680369e+08  0.5            24570900       1.3188026      8294.1586      16588.28       4.7307572    
  48732000   82312.944      491.42465     -39049615       1.8508778      245113.89     -38804501       674.45585      674.45585      674.45585      2162.7721      2837.2279      2162.7721      2837.2279      2162.7721      2837.2279      3.0680369e+08  0.5            24571000       1.3310308      8177.8452      16355.756      4.7191153    
  48732200   83359.723      500.10626     -39044506       1.8508778      248231.02     -38796275       674.45585      674.45585      674.45585      2162.7721      2837.2279      2162.7721      2837.2279      2162.7721      2837.2279      3.0680369e+08  0.5            24571100       1.3430546      8316.8722      16633.69       4.7067469    
  48732400   82659.964      507.33841     -39041134       1.8508778      246147.26     -38794987       674.45585      674.45585      674.45585      2162.7721      2837.2279      2162.7721      2837.2279      2162.7721      2837.2279      3.0680369e+08  0.5            24571200       1.355361       8125.8327      16251.71       4.6953637    
  48732600   84214.865      513.86064     -39032136       1.8508778      250777.49     -38781358       674.45585      674.45585      674.45585      2162.7721      2837.2279      2162.7721      2837.2279      2162.7721      2837.2279      3.0680369e+08  0.5            24571300       1.3673784      8321.2751      16642.495      4.6829746    
  48732800   87157.621      520.88897     -39030024       1.8508778      259540.51     -38770484       674.45585      674.45585      674.45585      2162.7721      2837.2279      2162.7721      2837.2279      2162.7721      2837.2279      3.0680369e+08  0.5            24571400       1.3793189      8374.8776      16749.764      4.6703313    
  48733000   85206.058      528.1191      -39036023       1.8508778      253729.09     -38782294       674.45585      674.45585      674.45585      2162.7721      2837.2279      2162.7721      2837.2279      2162.7721      2837.2279      3.0680369e+08  0.5            24571500       1.3918744      7964.5939      15929.208      4.6597593    
  48733200   82378.522      534.84123     -39026624       1.8508778      245309.17     -38781314       674.45585      674.45585      674.45585      2162.7721      2837.2279      2162.7721      2837.2279      2162.7721      2837.2279      3.0680369e+08  0.5            24571600       1.4040595      8206.7456      16413.413      4.6479271    
  48733400   86454.916      545.63389     -39022849       1.8508778      257447.98     -38765401       674.45585      674.45585      674.45585      2162.7721      2837.2279      2162.7721      2837.2279      2162.7721      2837.2279      3.0680369e+08  0.5            24571700       1.4162297      8216.7689      16433.603      4.63604      
  48733600   88760.022      554.04169     -39023114       1.8508778      264312.19     -38758802       674.45585      674.45585      674.45585      2162.7721      2837.2279      2162.7721      2837.2279      2162.7721      2837.2279      3.0680369e+08  0.5            24571800       1.4283159      8273.9142      16547.831      4.6238761    
  48733800   87868.234      560.93522     -39018038       1.8508778      261656.6      -38756381       674.45585      674.45585      674.45585      2162.7721      2837.2279      2162.7721      2837.2279      2162.7721      2837.2279      3.0680369e+08  0.5            24571900       1.4405431      8178.5027      16357.042      4.6121644    
  48734000   87965.376      569.85933     -39018238       1.8508778      261945.87     -38756292       674.45585      674.45585      674.45585      2162.7721      2837.2279      2162.7721      2837.2279      2162.7721      2837.2279      3.0680369e+08  0.5            24572000       1.4525008      8362.7885      16725.528      4.5995915    
  48734200   91885.515      580.88301     -39006077       1.8508778      273619.37     -38732457       674.45585      674.45585      674.45585      2162.7721      2837.2279      2162.7721      2837.2279      2162.7721      2837.2279      3.0680369e+08  0.5            24572100       1.4645232      8317.8261      16635.641      4.5872311    
  48734400   92367.558      591.60139     -38971852       1.8508778      275054.81     -38696797       674.45585      674.45585      674.45585      2162.7721      2837.2279      2162.7721      2837.2279      2162.7721      2837.2279      3.0680369e+08  0.5            24572200       1.4767618      8170.8492      16341.716      4.5755462    
  48734600   89046.366      599.49904     -38961582       1.8508778      265164.87     -38696417       674.45585      674.45585      674.45585      2162.7721      2837.2279      2162.7721      2837.2279      2162.7721      2837.2279      3.0680369e+08  0.5            24572300       1.4886771      8392.6279      16785.276      4.5628611    
  48734800   85630.793      603.62057     -38966104       1.8508778      254993.88     -38711110       674.45585      674.45585      674.45585      2162.7721      2837.2279      2162.7721      2837.2279      2162.7721      2837.2279      3.0680369e+08  0.5            24572400       1.500964       8138.6812      16277.377      4.5513157    
  48735000   90761.97       612.24897     -38967297       1.8508778      270273.65     -38697024       674.45585      674.45585      674.45585      2162.7721      2837.2279      2162.7721      2837.2279      2162.7721      2837.2279      3.0680369e+08  0.5            24572500       1.512678       8536.7856      17073.501      4.5380396    
  48735200   94368.96       623.62584     -38966767       1.8508778      281014.65     -38685753       674.45585      674.45585      674.45585      2162.7721      2837.2279      2162.7721      2837.2279      2162.7721      2837.2279      3.0680369e+08  0.5            24572600       1.5249434      8153.0497      16306.175      4.5264244    
  48735400   95070.115      631.1267      -38962398       1.8508778      283102.57     -38679295       674.45585      674.45585      674.45585      2162.7721      2837.2279      2162.7721      2837.2279      2162.7721      2837.2279      3.0680369e+08  0.5            24572700       1.5369758      8310.9202      16621.753      4.5141153    
  48735600   94401.64       638.21655     -38965725       1.8508778      281111.96     -38684613       674.45585      674.45585      674.45585      2162.7721      2837.2279      2162.7721      2837.2279      2162.7721      2837.2279      3.0680369e+08  0.5            24572800       1.5488471      8423.6922      16847.424      4.5013419    
  48735800   95160.495      644.94446     -38964674       1.8508778      283371.7      -38681302       674.45585      674.45585      674.45585      2162.7721      2837.2279      2162.7721      2837.2279      2162.7721      2837.2279      3.0680369e+08  0.5            24572900       1.5610501      8194.6673      16389.313      4.4895367    
  48736000   98855.374      655.52616     -38952921       1.8508778      294374.42     -38658546       674.45585      674.45585      674.45585      2162.7721      2837.2279      2162.7721      2837.2279      2162.7721      2837.2279      3.0680369e+08  0.5            24573000       1.5729897      8375.4991      16751.008      4.4769757    
  48736200   99051.539      663.99041     -38957088       1.8508778      294958.57     -38662130       674.45585      674.45585      674.45585      2162.7721      2837.2279      2162.7721      2837.2279      2162.7721      2837.2279      3.0680369e+08  0.5            24573100       1.5852613      8148.9132      16297.889      4.4653591    
  48736400   93876.847      668.61617     -38950053       1.8508778      279549.22     -38670504       674.45585      674.45585      674.45585      2162.7721      2837.2279      2162.7721      2837.2279      2162.7721      2837.2279      3.0680369e+08  0.5            24573200       1.5975148      8160.917       16321.735      4.4536826    
  48736600   91677.61       672.72659     -38969358       1.8508778      273000.27     -38696358       674.45585      674.45585      674.45585      2162.7721      2837.2279      2162.7721      2837.2279      2162.7721      2837.2279      3.0680369e+08  0.5            24573300       1.6098509      8106.2555      16212.52       4.4422252    
  48736800   98215.936      684.96458     -38965344       1.8508778      292470.29     -38672873       674.45585      674.45585      674.45585      2162.7721      2837.2279      2162.7721      2837.2279      2162.7721      2837.2279      3.0680369e+08  0.5            24573400       1.621771       8388.19        16776.263      4.4296226    
  48737000   100212         693.3644      -38964117       1.8508778      298414.23     -38665703       674.45585      674.45585      674.45585      2162.7721      2837.2279      2162.7721      2837.2279      2162.7721      2837.2279      3.0680369e+08  0.5            24573500       1.6339876      8186.5385      16373.247      4.4178233    
  48737200   101734.56      701.57638     -38961101       1.8508778      302948.16     -38658153       674.45585      674.45585      674.45585      2162.7721      2837.2279      2162.7721      2837.2279      2162.7721      2837.2279      3.0680369e+08  0.5            24573600       1.6460471      8292.2631      16584.484      4.4056015    
  48737400   102288.42      711.2182      -38952545       1.8508778      304597.46     -38647947       674.45585      674.45585      674.45585      2162.7721      2837.2279      2162.7721      2837.2279      2162.7721      2837.2279      3.0680369e+08  0.5            24573700       1.658178       8243.3897      16486.786      4.3935713    
  48737600   102575.36      718.90139     -38950252       1.8508778      305451.9      -38644800       674.45585      674.45585      674.45585      2162.7721      2837.2279      2162.7721      2837.2279      2162.7721      2837.2279      3.0680369e+08  0.5            24573800       1.6701566      8348.2384      16696.489      4.3811402    
  48737800   104475.8       726.81461     -38930994       1.8508778      311111.1      -38619883       674.45585      674.45585      674.45585      2162.7721      2837.2279      2162.7721      2837.2279      2162.7721      2837.2279      3.0680369e+08  0.5            24573900       1.6822441      8273.0127      16546.009      4.3689981    
  48738000   106381.36      735.01015     -38939240       1.8508778      316785.52     -38622454       674.45585      674.45585      674.45585      2162.7721      2837.2279      2162.7721      2837.2279      2162.7721      2837.2279      3.0680369e+08  0.5            24574000       1.6943908      8232.7043      16465.426      4.3570095    
  48738200   104461.95      743.65696     -38923642       1.8508778      311069.86     -38612572       674.45585      674.45585      674.45585      2162.7721      2837.2279      2162.7721      2837.2279      2162.7721      2837.2279      3.0680369e+08  0.5            24574100       1.7068059      8054.6446      16109.358      4.3457017    
  48738400   100451.66      748.87113     -38911747       1.8508778      299127.9      -38612619       674.45585      674.45585      674.45585      2162.7721      2837.2279      2162.7721      2837.2279      2162.7721      2837.2279      3.0680369e+08  0.5            24574200       1.7188543      8299.9248      16599.76       4.3334541    
  48738600   104232.75      757.18462     -38907818       1.8508778      310387.33     -38597430       674.45585      674.45585      674.45585      2162.7721      2837.2279      2162.7721      2837.2279      2162.7721      2837.2279      3.0680369e+08  0.5            24574300       1.7308611      8328.6068      16657.225      4.3211052    
  48738800   108346.86      765.94196     -38903652       1.8508778      322638.43     -38581013       674.45585      674.45585      674.45585      2162.7721      2837.2279      2162.7721      2837.2279      2162.7721      2837.2279      3.0680369e+08  0.5            24574400       1.7431025      8168.9903      16338.011      4.309341     
  48739000   107534.25      774.98658     -38898078       1.8508778      320218.62     -38577859       674.45585      674.45585      674.45585      2162.7721      2837.2279      2162.7721      2837.2279      2162.7721      2837.2279      3.0680369e+08  0.5            24574500       1.7549769      8421.4455      16842.833      4.2966722    
  48739200   106541.82      779.64316     -38903485       1.8508778      317263.36     -38586222       674.45585      674.45585      674.45585      2162.7721      2837.2279      2162.7721      2837.2279      2162.7721      2837.2279      3.0680369e+08  0.5            24574600       1.7671925      8186.2543      16372.641      4.2848409    
  48739400   110332.6       788.71864     -38890487       1.8508778      328551.65     -38561935       674.45585      674.45585      674.45585      2162.7721      2837.2279      2162.7721      2837.2279      2162.7721      2837.2279      3.0680369e+08  0.5            24574700       1.7792117      8320.0511      16640.063      4.2725329    
  48739600   113881.46      796.75411     -38900218       1.8508778      339119.54     -38561099       674.45585      674.45585      674.45585      2162.7721      2837.2279      2162.7721      2837.2279      2162.7721      2837.2279      3.0680369e+08  0.5            24574800       1.7915937      8076.2384      16152.487      4.2610917    
  48739800   109679.94      801.3532      -38894838       1.8508778      326608.14     -38568230       674.45585      674.45585      674.45585      2162.7721      2837.2279      2162.7721      2837.2279      2162.7721      2837.2279      3.0680369e+08  0.5            24574900       1.8038032      8190.3188      16380.585      4.2492319    
  48740000   106147.16      806.27585     -38885530       1.8508778      316088.13     -38569442       674.45585      674.45585      674.45585      2162.7721      2837.2279      2162.7721      2837.2279      2162.7721      2837.2279      3.0680369e+08  0.5            24575000       1.8156145      8466.4542      16932.867      4.2364381    
  48740200   114399.67      815.62493     -38881564       1.8508778      340662.68     -38540902       674.45585      674.45585      674.45585      2162.7721      2837.2279      2162.7721      2837.2279      2162.7721      2837.2279      3.0680369e+08  0.5            24575100       1.8277805      8219.6413      16439.325      4.2244771    
  48740400   115245.4       823.42641     -38879344       1.8508778      343181.11     -38536163       674.45585      674.45585      674.45585      2162.7721      2837.2279      2162.7721      2837.2279      2162.7721      2837.2279      3.0680369e+08  0.5            24575200       1.8399753      8200.234       16400.407      4.2125791    
  48740600   111112.47      826.51181     -38881163       1.8508778      330873.98     -38550289       674.45585      674.45585      674.45585      2162.7721      2837.2279      2162.7721      2837.2279      2162.7721      2837.2279      3.0680369e+08  0.5            24575300       1.8519143      8375.9453      16751.921      4.2000972    
  48740800   110831.34      832.23093     -38886479       1.8508778      330036.79     -38556442       674.45585      674.45585      674.45585      2162.7721      2837.2279      2162.7721      2837.2279      2162.7721      2837.2279      3.0680369e+08  0.5            24575400       1.8641408      8178.9636      16357.991      4.1882682    
  48741000   116562.22      842.6359      -38869486       1.8508778      347102.39     -38522384       674.45585      674.45585      674.45585      2162.7721      2837.2279      2162.7721      2837.2279      2162.7721      2837.2279      3.0680369e+08  0.5            24575500       1.8764091      8151.0228      16302.028      4.1765274    
  48741200   117232.19      850.60374     -38860025       1.8508778      349097.43     -38510928       674.45585      674.45585      674.45585      2162.7721      2837.2279      2162.7721      2837.2279      2162.7721      2837.2279      3.0680369e+08  0.5            24575600       1.888477       8286.439       16572.815      4.164338     
  48741400   115005.83      857.09175     -38840291       1.8508778      342467.71     -38497823       674.45585      674.45585      674.45585      2162.7721      2837.2279      2162.7721      2837.2279      2162.7721      2837.2279      3.0680369e+08  0.5            24575700       1.9011529      7889.0105      15778.015      4.1534781    
  48741600   115694.87      863.29355     -38850121       1.8508778      344519.58     -38505602       674.45585      674.45585      674.45585      2162.7721      2837.2279      2162.7721      2837.2279      2162.7721      2837.2279      3.0680369e+08  0.5            24575800       1.9133592      8192.5297      16385.061      4.1415787    
  48741800   123725.52      876.71253     -38848483       1.8508778      368433.46     -38480050       674.45585      674.45585      674.45585      2162.7721      2837.2279      2162.7721      2837.2279      2162.7721      2837.2279      3.0680369e+08  0.5            24575900       1.9254027      8303.2114      16606.405      4.1293266    
  48742000   120208.82      881.57276     -38852353       1.8508778      357961.34     -38494391       674.45585      674.45585      674.45585      2162.7721      2837.2279      2162.7721      2837.2279      2162.7721      2837.2279      3.0680369e+08  0.5            24576000       1.937574       8215.9703      16431.888      4.1173489    
  48742200   115611.48      888.79932     -38850219       1.8508778      344271.25     -38505948       674.45585      674.45585      674.45585      2162.7721      2837.2279      2162.7721      2837.2279      2162.7721      2837.2279      3.0680369e+08  0.5            24576100       1.9494805      8398.8309      16797.755      4.1048105    
  48742400   117851.46      896.08595     -38839515       1.8508778      350941.52     -38488573       674.45585      674.45585      674.45585      2162.7721      2837.2279      2162.7721      2837.2279      2162.7721      2837.2279      3.0680369e+08  0.5            24576200       1.9614499      8354.6558      16709.3        4.0924115    
  48742600   121535.05      907.77525     -38822488       1.8508778      361910.62     -38460578       674.45585      674.45585      674.45585      2162.7721      2837.2279      2162.7721      2837.2279      2162.7721      2837.2279      3.0680369e+08  0.5            24576300       1.9736843      8173.6789      16347.401      4.0805656    
  48742800   120830.82      914.69664     -38833413       1.8508778      359813.56     -38473600       674.45585      674.45585      674.45585      2162.7721      2837.2279      2162.7721      2837.2279      2162.7721      2837.2279      3.0680369e+08  0.5            24576400       1.9855205      8448.6268      16897.178      4.0678995    
  48743000   121259.99      925.60766     -38840463       1.8508778      361091.53     -38479371       674.45585      674.45585      674.45585      2162.7721      2837.2279      2162.7721      2837.2279      2162.7721      2837.2279      3.0680369e+08  0.5            24576500       1.9980136      8004.4383      16008.942      4.0565766    
  48743200   124978.19      932.63634     -38827105       1.8508778      372163.72     -38454941       674.45585      674.45585      674.45585      2162.7721      2837.2279      2162.7721      2837.2279      2162.7721      2837.2279      3.0680369e+08  0.5            24576600       2.010176       8222.0445      16444.024      4.0445747    
  48743400   127790.8       943.59859     -38810620       1.8508778      380539.18     -38430081       674.45585      674.45585      674.45585      2162.7721      2837.2279      2162.7721      2837.2279      2162.7721      2837.2279      3.0680369e+08  0.5            24576700       2.0221088      8380.2698      16760.555      4.0321128    
  48743600   123042.84      948.58056     -38812620       1.8508778      366400.56     -38446220       674.45585      674.45585      674.45585      2162.7721      2837.2279      2162.7721      2837.2279      2162.7721      2837.2279      3.0680369e+08  0.5            24576800       2.0343036      8200.2367      16400.448      4.020175     
  48743800   117178         953.30974     -38803238       1.8508778      348936.06     -38454302       674.45585      674.45585      674.45585      2162.7721      2837.2279      2162.7721      2837.2279      2162.7721      2837.2279      3.0680369e+08  0.5            24576900       2.0463153      8325.2072      16650.416      4.0078756    
  48744000   123563.81      964.56264     -38798816       1.8508778      367951.93     -38430865       674.45585      674.45585      674.45585      2162.7721      2837.2279      2162.7721      2837.2279      2162.7721      2837.2279      3.0680369e+08  0.5            24577000       2.0585384      8181.2313      16362.464      3.9959899    
  48744200   127072.28      974.56048     -38801532       1.8508778      378399.54     -38423132       674.45585      674.45585      674.45585      2162.7721      2837.2279      2162.7721      2837.2279      2162.7721      2837.2279      3.0680369e+08  0.5            24577100       2.0704621      8386.6669      16773.356      3.9835241    
  48744400   128210.26      979.03357     -38808070       1.8508778      381788.27     -38426281       674.45585      674.45585      674.45585      2162.7721      2837.2279      2162.7721      2837.2279      2162.7721      2837.2279      3.0680369e+08  0.5            24577200       2.0824377      8350.2998      16700.569      3.9711636    
  48744600   128597.51      985.36925     -38805368       1.8508778      382941.44     -38422426       674.45585      674.45585      674.45585      2162.7721      2837.2279      2162.7721      2837.2279      2162.7721      2837.2279      3.0680369e+08  0.5            24577300       2.0948463      8058.9477      16117.93       3.9596261    
  48744800   130004.68      996.18685     -38794461       1.8508778      387131.74     -38407330       674.45585      674.45585      674.45585      2162.7721      2837.2279      2162.7721      2837.2279      2162.7721      2837.2279      3.0680369e+08  0.5            24577400       2.1067454      8403.9652      16807.916      3.9471241    
  48745000   132682.77      1003.7251     -38783782       1.8508778      395106.62     -38388675       674.45585      674.45585      674.45585      2162.7721      2837.2279      2162.7721      2837.2279      2162.7721      2837.2279      3.0680369e+08  0.5            24577500       2.1188842      8238.0724      16476.085      3.9350741    
  48745200   131709.3       1009.1491     -38806177       1.8508778      392207.82     -38413969       674.45585      674.45585      674.45585      2162.7721      2837.2279      2162.7721      2837.2279      2162.7721      2837.2279      3.0680369e+08  0.5            24577600       2.1308667      8345.4788      16691.063      3.9227351    
  48745400   126698.59      1017.4594     -38795555       1.8508778      377286.75     -38418269       674.45585      674.45585      674.45585      2162.7721      2837.2279      2162.7721      2837.2279      2162.7721      2837.2279      3.0680369e+08  0.5            24577700       2.1430626      8199.5172      16399.013      3.9107897    
  48745600   127820.94      1020.8472     -38808506       1.8508778      380628.94     -38427877       674.45585      674.45585      674.45585      2162.7721      2837.2279      2162.7721      2837.2279      2162.7721      2837.2279      3.0680369e+08  0.5            24577800       2.1550496      8342.3681      16684.729      3.8984638    
  48745800   134898.55      1028.5379     -38803293       1.8508778      401704.84     -38401588       674.45585      674.45585      674.45585      2162.7721      2837.2279      2162.7721      2837.2279      2162.7721      2837.2279      3.0680369e+08  0.5            24577900       2.1672161      8219.2562      16438.499      3.8864635    
  48746000   134049.19      1037.6595     -38801113       1.8508778      399175.59     -38401937       674.45585      674.45585      674.45585      2162.7721      2837.2279      2162.7721      2837.2279      2162.7721      2837.2279      3.0680369e+08  0.5            24578000       2.1792761      8291.8953      16583.756      3.8742719    
  48746200   131805.62      1048.3934     -38797686       1.8508778      392494.63     -38405192       674.45585      674.45585      674.45585      2162.7721      2837.2279      2162.7721      2837.2279      2162.7721      2837.2279      3.0680369e+08  0.5            24578100       2.1913016      8315.6211      16631.244      3.8620211    
  48746400   135177.31      1058.7974     -38784620       1.8508778      402534.96     -38382085       674.45585      674.45585      674.45585      2162.7721      2837.2279      2162.7721      2837.2279      2162.7721      2837.2279      3.0680369e+08  0.5            24578200       2.2035959      8133.8659      16267.794      3.8502422    
  48746600   140685.85      1071.761      -38764476       1.8508778      418938.44     -38345538       674.45585      674.45585      674.45585      2162.7721      2837.2279      2162.7721      2837.2279      2162.7721      2837.2279      3.0680369e+08  0.5            24578300       2.2155733      8349.0581      16698.104      3.8379088    
  48746800   136487.94      1077.8356     -38753600       1.8508778      406437.76     -38347162       674.45585      674.45585      674.45585      2162.7721      2837.2279      2162.7721      2837.2279      2162.7721      2837.2279      3.0680369e+08  0.5            24578400       2.227689       8253.7541      16507.529      3.8258168    
  48747000   132627.14      1082.438      -38756917       1.8508778      394940.97     -38361976       674.45585      674.45585      674.45585      2162.7721      2837.2279      2162.7721      2837.2279      2162.7721      2837.2279      3.0680369e+08  0.5            24578500       2.2397854      8266.9436      16533.835      3.8136918    
  48747200   139706.31      1094.2196     -38747929       1.8508778      416021.53     -38331908       674.45585      674.45585      674.45585      2162.7721      2837.2279      2162.7721      2837.2279      2162.7721      2837.2279      3.0680369e+08  0.5            24578600       2.2517542      8355.0656      16710.139      3.8013515    
  48747400   143381.86      1107.1044     -38744472       1.8508778      426966.7      -38317505       674.45585      674.45585      674.45585      2162.7721      2837.2279      2162.7721      2837.2279      2162.7721      2837.2279      3.0680369e+08  0.5            24578700       2.263887       8242.0818      16484.196      3.7892898    
  48747600   137662.99      1111.715      -38742687       1.8508778      409936.89     -38332750       674.45585      674.45585      674.45585      2162.7721      2837.2279      2162.7721      2837.2279      2162.7721      2837.2279      3.0680369e+08  0.5            24578800       2.2757794      8408.733       16817.496      3.7768284    
  48747800   135492.76      1115.289      -38754829       1.8508778      403474.31     -38351355       674.45585      674.45585      674.45585      2162.7721      2837.2279      2162.7721      2837.2279      2162.7721      2837.2279      3.0680369e+08  0.5            24578900       2.2879051      8246.9479      16493.881      3.7647568    
  48748000   142018.08      1124.4727     -38761338       1.8508778      422905.6      -38338432       674.45585      674.45585      674.45585      2162.7721      2837.2279      2162.7721      2837.2279      2162.7721      2837.2279      3.0680369e+08  0.5            24579000       2.3004786      7947.4173      15894.868      3.7534304    
  48748200   144257.91      1130.6176     -38771557       1.8508778      429575.43     -38341981       674.45585      674.45585      674.45585      2162.7721      2837.2279      2162.7721      2837.2279      2162.7721      2837.2279      3.0680369e+08  0.5            24579100       2.3123862      8404.5041      16808.967      3.7409837    
  48748400   141575.63      1135.9114     -38769110       1.8508778      421588.05     -38347522       674.45585      674.45585      674.45585      2162.7721      2837.2279      2162.7721      2837.2279      2162.7721      2837.2279      3.0680369e+08  0.5            24579200       2.3245349      8231.3219      16462.588      3.7289443    
  48748600   140770.8       1141.098      -38776138       1.8508778      419191.4      -38356947       674.45585      674.45585      674.45585      2162.7721      2837.2279      2162.7721      2837.2279      2162.7721      2837.2279      3.0680369e+08  0.5            24579300       2.3364665      8381.1197      16762.273      3.7165584    
  48748800   146932.46      1146.6174     -38781282       1.8508778      437539.79     -38343742       674.45585      674.45585      674.45585      2162.7721      2837.2279      2162.7721      2837.2279      2162.7721      2837.2279      3.0680369e+08  0.5            24579400       2.3485449      8279.2389      16558.428      3.7044088    
  48749000   153465.3       1154.1213     -38801410       1.8508778      456993.45     -38344417       674.45585      674.45585      674.45585      2162.7721      2837.2279      2162.7721      2837.2279      2162.7721      2837.2279      3.0680369e+08  0.5            24579500       2.3604853      8368.6007      16737.194      3.6920582    
  48749200   146889.84      1157.9472     -38793960       1.8508778      437412.86     -38356547       674.45585      674.45585      674.45585      2162.7721      2837.2279      2162.7721      2837.2279      2162.7721      2837.2279      3.0680369e+08  0.5            24579600       2.3727131      8184.1419      16368.396      3.6801292    
  48749400   143267.25      1161.4937     -38787338       1.8508778      426625.39     -38360713       674.45585      674.45585      674.45585      2162.7721      2837.2279      2162.7721      2837.2279      2162.7721      2837.2279      3.0680369e+08  0.5            24579700       2.3846058      8408.5329      16816.971      3.6676959    
  48749600   145169.36      1168.6368     -38795243       1.8508778      432289.58     -38362953       674.45585      674.45585      674.45585      2162.7721      2837.2279      2162.7721      2837.2279      2162.7721      2837.2279      3.0680369e+08  0.5            24579800       2.3970721      8021.6115      16043.3        3.6561429    
  48749800   151567.91      1177.7103     -38790154       1.8508778      451343.36     -38338811       674.45585      674.45585      674.45585      2162.7721      2837.2279      2162.7721      2837.2279      2162.7721      2837.2279      3.0680369e+08  0.5            24579900       2.409143       8284.3617      16568.697      3.6439829    
  48750000   151639.37      1183.0793     -38777238       1.8508778      451556.16     -38325681       674.45585      674.45585      674.45585      2162.7721      2837.2279      2162.7721      2837.2279      2162.7721      2837.2279      3.0680369e+08  0.5            24580000       2.4237605      6841.1067      13682.128      3.6356437    
  48750200   139567.38      1183.3284     -38780940       1.8508778      415607.81     -38365332       674.45585      674.45585      674.45585      2162.7721      2837.2279      2162.7721      2837.2279      2162.7721      2837.2279      3.0680369e+08  0.5            24580100       2.4358464      8274.1353      16548.325      3.6234758    
  48750400   142320.93      1190.4243     -38783007       1.8508778      423807.42     -38359200       674.45585      674.45585      674.45585      2162.7721      2837.2279      2162.7721      2837.2279      2162.7721      2837.2279      3.0680369e+08  0.5            24580200       2.4479976      8229.6453      16459.343      3.6114051    
  48750600   149463.63      1199.9814     -38757188       1.8508778      445077.16     -38312110       674.45585      674.45585      674.45585      2162.7721      2837.2279      2162.7721      2837.2279      2162.7721      2837.2279      3.0680369e+08  0.5            24580300       2.4598832      8413.5686      16827.132      3.598945     
  48750800   152879.5       1208.6875     -38753452       1.8508778      455249.05     -38298203       674.45585      674.45585      674.45585      2162.7721      2837.2279      2162.7721      2837.2279      2162.7721      2837.2279      3.0680369e+08  0.5            24580400       2.4720877      8193.6427      16387.276      3.5869535    
  48751000   152831.66      1211.3195     -38763897       1.8508778      455106.57     -38308790       674.45585      674.45585      674.45585      2162.7721      2837.2279      2162.7721      2837.2279      2162.7721      2837.2279      3.0680369e+08  0.5            24580500       2.4839122      8457.0215      16914.092      3.5744128    
  48751200   150324.96      1216.9708     -38778165       1.8508778      447642.06     -38330523       674.45585      674.45585      674.45585      2162.7721      2837.2279      2162.7721      2837.2279      2162.7721      2837.2279      3.0680369e+08  0.5            24580600       2.4963131      8063.9263      16127.849      3.5627019    
  48751400   150474.48      1224.7039     -38769652       1.8508778      448087.3      -38321564       674.45585      674.45585      674.45585      2162.7721      2837.2279      2162.7721      2837.2279      2162.7721      2837.2279      3.0680369e+08  0.5            24580700       2.5084354      8249.2875      16498.542      3.5505899    
  48751600   157396.3       1234.0964     -38779059       1.8508778      468699.3      -38310360       674.45585      674.45585      674.45585      2162.7721      2837.2279      2162.7721      2837.2279      2162.7721      2837.2279      3.0680369e+08  0.5            24580800       2.520638       8194.9661      16389.905      3.5385906    
  48751800   157915.43      1242.4647     -38784848       1.8508778      470245.2      -38314603       674.45585      674.45585      674.45585      2162.7721      2837.2279      2162.7721      2837.2279      2162.7721      2837.2279      3.0680369e+08  0.5            24580900       2.5326327      8337.0239      16674.059      3.5262997    
  48752000   151637.15      1246.48       -38764038       1.8508778      451549.54     -38312489       674.45585      674.45585      674.45585      2162.7721      2837.2279      2162.7721      2837.2279      2162.7721      2837.2279      3.0680369e+08  0.5            24581000       2.5448355      8194.8123      16389.649      3.5142992    
  48752200   147558.89      1252.1949     -38759348       1.8508778      439405.18     -38319943       674.45585      674.45585      674.45585      2162.7721      2837.2279      2162.7721      2837.2279      2162.7721      2837.2279      3.0680369e+08  0.5            24581100       2.5568575      8318.1008      16636.134      3.5020491    
  48752400   158092.97      1267.3044     -38752064       1.8508778      470773.87     -38281290       674.45585      674.45585      674.45585      2162.7721      2837.2279      2162.7721      2837.2279      2162.7721      2837.2279      3.0680369e+08  0.5            24581200       2.5690711      8187.6143      16375.368      3.4900612    
  48752600   160088.71      1274.6624     -38740037       1.8508778      476716.84     -38263320       674.45585      674.45585      674.45585      2162.7721      2837.2279      2162.7721      2837.2279      2162.7721      2837.2279      3.0680369e+08  0.5            24581300       2.5810358      8357.9014      16715.688      3.4777362    
  48752800   157286.41      1280.5231     -38757117       1.8508778      468372.07     -38288744       674.45585      674.45585      674.45585      2162.7721      2837.2279      2162.7721      2837.2279      2162.7721      2837.2279      3.0680369e+08  0.5            24581400       2.593517       8012.0604      16024.194      3.4661045    
  48753000   156169.12      1288.0411     -38748782       1.8508778      465044.98     -38283737       674.45585      674.45585      674.45585      2162.7721      2837.2279      2162.7721      2837.2279      2162.7721      2837.2279      3.0680369e+08  0.5            24581500       2.6056514      8241.0643      16482          3.4540056    
  48753200   163188.35      1299.8911     -38733175       1.8508778      485947.03     -38247228       674.45585      674.45585      674.45585      2162.7721      2837.2279      2162.7721      2837.2279      2162.7721      2837.2279      3.0680369e+08  0.5            24581600       2.6180853      8042.5198      16085.174      3.4422996    
  48753400   164920.37      1307.3808     -38739845       1.8508778      491104.7      -38248740       674.45585      674.45585      674.45585      2162.7721      2837.2279      2162.7721      2837.2279      2162.7721      2837.2279      3.0680369e+08  0.5            24581700       2.6301565      8284.219       16568.264      3.4301143    
  48753600   158943.63      1311.2155     -38722995       1.8508778      473306.98     -38249688       674.45585      674.45585      674.45585      2162.7721      2837.2279      2162.7721      2837.2279      2162.7721      2837.2279      3.0680369e+08  0.5            24581800       2.6423806      8180.4831      16361.152      3.4181276    
  48753800   154771.97      1315.2351     -38723392       1.8508778      460884.51     -38262507       674.45585      674.45585      674.45585      2162.7721      2837.2279      2162.7721      2837.2279      2162.7721      2837.2279      3.0680369e+08  0.5            24581900       2.6543214      8374.6903      16749.275      3.4057754    
  48754000   164599.73      1325.92       -38712901       1.8508778      490149.9      -38222751       674.45585      674.45585      674.45585      2162.7721      2837.2279      2162.7721      2837.2279      2162.7721      2837.2279      3.0680369e+08  0.5            24582000       2.66651        8204.3211      16408.677      3.3937423    
  48754200   168239.21      1334.3853     -38695294       1.8508778      500987.63     -38194307       674.45585      674.45585      674.45585      2162.7721      2837.2279      2162.7721      2837.2279      2162.7721      2837.2279      3.0680369e+08  0.5            24582100       2.6782814      8495.2471      16990.51       3.381181     
  48754400   163017.52      1337.232      -38707540       1.8508778      485438.35     -38222102       674.45585      674.45585      674.45585      2162.7721      2837.2279      2162.7721      2837.2279      2162.7721      2837.2279      3.0680369e+08  0.5            24582200       2.6901952      8393.5804      16787.014      3.3688054    
  48754600   159387.85      1339.9694     -38712855       1.8508778      474629.79     -38238225       674.45585      674.45585      674.45585      2162.7721      2837.2279      2162.7721      2837.2279      2162.7721      2837.2279      3.0680369e+08  0.5            24582300       2.7025568      8089.5723      16179.245      3.3569899    
  48754800   167468.13      1344.7216     -38727842       1.8508778      498691.49     -38229151       674.45585      674.45585      674.45585      2162.7721      2837.2279      2162.7721      2837.2279      2162.7721      2837.2279      3.0680369e+08  0.5            24582400       2.7148179      8155.8698      16311.758      3.3450457    
[...]
  49399400   300.14118      5.2872096     -39272031       1.8519476      893.76919     -39271137       674.32597      674.32597      674.32597      2162.837       2837.163       2162.837       2837.163       2162.837       2837.163       3.0662647e+08  0.5            24904700       20.554786      7198.9244      14397.8        0.7528706    
  49399600   295.49936      2.865413      -39272409       1.8518962      879.94663     -39271529       674.3322       674.3322       674.3322       2162.8339      2837.1661      2162.8339      2837.1661      2162.8339      2837.1661      3.0663498e+08  0.5            24904800       20.568792      7139.6137      14279.191      0.73865836   
  49399800   309.72003     -1.9129139     -39272419       1.8517818      922.29338     -39271497       674.34609      674.34609      674.34609      2162.827       2837.173       2162.827       2837.173       2162.827       2837.173       3.0665392e+08  0.5            24904900       20.58285       7113.3545      14226.747      0.72444822   
  49400000   294.89747     -7.616516      -39272427       1.8516507      878.15432     -39271549       674.362        674.362        674.362        2162.819       2837.181       2162.819       2837.181       2162.819       2837.181       3.0667564e+08  0.5            24905000       20.598539      6373.8543      12747.604      0.71029454   
  49400200   305.58604     -6.4841012     -39272438       1.8516828      909.98306     -39271528       674.35811      674.35811      674.35811      2162.8209      2837.1791      2162.8209      2837.1791      2162.8209      2837.1791      3.0667032e+08  0.5            24905100       20.613007      6911.8699      13823.852      0.69609749   
  49400400   288.25989      0.9731013     -39272448       1.8518635      858.38872     -39271589       674.33618      674.33618      674.33618      2162.8319      2837.1681      2162.8319      2837.1681      2162.8319      2837.1681      3.066404e+08   0.5            24905200       20.627201      7045.1862      14090.368      0.68189102   
  49400600   304.12992      7.9885357     -39272455       1.8520345      905.64695     -39271549       674.31542      674.31542      674.31542      2162.8423      2837.1577      2162.8423      2837.1577      2162.8423      2837.1577      3.0661209e+08  0.5            24905300       20.641385      7050.5657      14101.14       0.66768422   
  49400800   289.57342      9.2191222     -39272465       1.8520683      862.30019     -39271602       674.31132      674.31132      674.31132      2162.8443      2837.1557      2162.8443      2837.1557      2162.8443      2837.1557      3.0660649e+08  0.5            24905400       20.655443      7113.0939      14226.199      0.65347351   
  49401000   306.94519      4.6652996     -39272475       1.8519632      914.03037     -39271561       674.32406      674.32406      674.32406      2162.838       2837.162       2162.838       2837.162       2162.838       2837.162       3.0662388e+08  0.5            24905500       20.669321      7205.6534      14411.233      0.63925742   
  49401200   297.13144     -2.8710605     -39272483       1.8517889      884.80669     -39271598       674.34522      674.34522      674.34522      2162.8274      2837.1726      2162.8274      2837.1726      2162.8274      2837.1726      3.0665275e+08  0.5            24905600       20.683684      6962.4584      13924.958      0.62505645   
  49401400   301.6207      -6.8723476     -39272488       1.8516979      898.17495     -39271590       674.35627      674.35627      674.35627      2162.8219      2837.1781      2162.8219      2837.1781      2162.8219      2837.1781      3.0666781e+08  0.5            24905700       20.6981        6936.71        13873.428      0.61085682   
  49401600   314.8219      -1.8110543     -39272496       1.8518223      937.48587     -39271558       674.34117      674.34117      674.34117      2162.8294      2837.1706      2162.8294      2837.1706      2162.8294      2837.1706      3.0664721e+08  0.5            24905800       20.712343      7021.219       14042.444      0.5966519    
  49401800   292.09609      5.9586533     -39272500       1.8520117      869.81228     -39271630       674.31818      674.31818      674.31818      2162.8409      2837.1591      2162.8409      2837.1591      2162.8409      2837.1591      3.0661585e+08  0.5            24905900       20.726533      7047.0296      14094.066      0.58244546   
  49402000   309.8346       0.6436635     -39272504       1.8518882      922.63454     -39271581       674.33318      674.33318      674.33318      2162.8334      2837.1666      2162.8334      2837.1666      2162.8334      2837.1666      3.0663631e+08  0.5            24906000       20.740719      7049.193       14098.363      0.56823893   
  49402200   286.3636      -2.1149213     -39272506       1.8518239      852.74189     -39271653       674.34097      674.34097      674.34097      2162.8295      2837.1705      2162.8295      2837.1705      2162.8295      2837.1705      3.0664694e+08  0.5            24906100       20.754833      7085.0708      14170.178      0.55403051   
  49402400   303.57338      3.8657385     -39272507       1.8519667      903.9897      -39271603       674.32365      674.32365      674.32365      2162.8382      2837.1618      2162.8382      2837.1618      2162.8382      2837.1618      3.0662331e+08  0.5            24906200       20.768983      7067.1698      14134.335      0.53982314   
  49402600   291.46557      1.0343641     -39272508       1.8519007      867.93468     -39271640       674.33165      674.33165      674.33165      2162.8342      2837.1658      2162.8342      2837.1658      2162.8342      2837.1658      3.0663423e+08  0.5            24906300       20.783171      7048.4055      14096.788      0.52561681   
  49402800   303.51668     -1.9386143     -39272507       1.8518261      903.82085     -39271603       674.34071      674.34071      674.34071      2162.8296      2837.1704      2162.8296      2837.1704      2162.8296      2837.1704      3.0664658e+08  0.5            24906400       20.797339      7058.0342      14116.101      0.51141002   
  49403000   297.43218      2.9734498     -39272506       1.8519372      885.70223     -39271620       674.32722      674.32722      674.32722      2162.8364      2837.1636      2162.8364      2837.1636      2162.8364      2837.1636      3.0662819e+08  0.5            24906500       20.812008      6817.1368      13634.212      0.49721525   
  49403200   304.57025      2.9496094     -39272504       1.8519314      906.9582      -39271597       674.32793      674.32793      674.32793      2162.836       2837.164       2162.836       2837.164       2162.836       2837.164       3.0662915e+08  0.5            24906600       20.82615       7071.0626      14142.17       0.48300762   
  49403400   303.06152     -1.8890378     -39272501       1.8518119      902.46546     -39271599       674.34243      674.34243      674.34243      2162.8288      2837.1712      2162.8288      2837.1712      2162.8288      2837.1712      3.0664894e+08  0.5            24906700       20.840316      7059.2649      14118.513      0.46880061   
  49403600   298.34455     -1.0663842     -39272498       1.8518285      888.41911     -39271610       674.34042      674.34042      674.34042      2162.8298      2837.1702      2162.8298      2837.1702      2162.8298      2837.1702      3.0664619e+08  0.5            24906800       20.854479      7060.652       14121.301      0.45459359   
  49403800   313.23029      4.1062865     -39272495       1.851948       932.74632     -39271562       674.32591      674.32591      674.32591      2162.837       2837.163       2162.837       2837.163       2162.837       2837.163       3.066264e+08   0.5            24906900       20.868675      7044.2195      14088.48       0.44038733   
  49404000   288.64038      3.1171907     -39272492       1.8519241      859.52175     -39271632       674.32881      674.32881      674.32881      2162.8356      2837.1644      2162.8356      2837.1644      2162.8356      2837.1644      3.0663036e+08  0.5            24907000       20.882826      7066.3193      14132.601      0.42618017   
  49404200   306.24694     -2.4462291     -39272488       1.8517937      911.9511      -39271576       674.34465      674.34465      674.34465      2162.8277      2837.1723      2162.8277      2837.1723      2162.8277      2837.1723      3.0665196e+08  0.5            24907100       20.897329      6895.1632      13790.343      0.41198002   
  49404400   297.94048     -3.5682052     -39272482       1.8517677      887.21586     -39271595       674.34779      674.34779      674.34779      2162.8261      2837.1739      2162.8261      2837.1739      2162.8261      2837.1739      3.0665625e+08  0.5            24907200       20.91185       6886.6416      13773.336      0.3977798    
  49404600   299.91647     -2.3239946     -39272477       1.8517963      893.10003     -39271584       674.34433      674.34433      674.34433      2162.8278      2837.1722      2162.8278      2837.1722      2162.8278      2837.1722      3.0665152e+08  0.5            24907300       20.926035      7049.9007      14099.749      0.38357298   
  49404800   299.59114     -2.2954991     -39272471       1.8517956      892.13126     -39271579       674.34441      674.34441      674.34441      2162.8278      2837.1722      2162.8278      2837.1722      2162.8278      2837.1722      3.0665163e+08  0.5            24907400       20.940194      7062.5554      14125.107      0.36936574   
  49405000   299.80768     -4.6735018     -39272465       1.8517396      892.77608     -39271573       674.35121      674.35121      674.35121      2162.8244      2837.1756      2162.8244      2837.1756      2162.8244      2837.1756      3.0666091e+08  0.5            24907500       20.954404      7037.5151      14075.06       0.35515942   
  49405200   310.56416     -6.3540977     -39272460       1.8517019      924.80704     -39271535       674.35579      674.35579      674.35579      2162.8221      2837.1779      2162.8221      2837.1779      2162.8221      2837.1779      3.0666716e+08  0.5            24907600       20.968507      7090.3998      14180.793      0.34095137   
  49405400   289.62162      0.71577659    -39272456       1.8518785      862.44372     -39271593       674.33435      674.33435      674.33435      2162.8328      2837.1672      2162.8328      2837.1672      2162.8328      2837.1672      3.0663791e+08  0.5            24907700       20.982618      7086.9778      14173.982      0.32674357   
  49405600   308.39594      9.9676332     -39272448       1.852112       918.35046     -39271529       674.30601      674.30601      674.30601      2162.847       2837.153       2162.847       2837.153       2162.847       2837.153       3.0659925e+08  0.5            24907800       20.99689       7006.508       14012.986      0.31253831   
  49405800   298.5129      -4.1798462     -39272445       1.8517802      888.92045     -39271556       674.34628      674.34628      674.34628      2162.8269      2837.1731      2162.8269      2837.1731      2162.8269      2837.1731      3.0665418e+08  0.5            24907900       21.011522      6834.5786      13669.152      0.29833806   
  49406000   304.06671     -1.4617854     -39272441       1.8518524      905.45873     -39271535       674.33752      674.33752      674.33752      2162.8312      2837.1688      2162.8312      2837.1688      2162.8312      2837.1688      3.0664224e+08  0.5            24908000       21.025657      7074.4432      14148.877      0.28413053   
  49406200   302.67649      9.6585123     -39272433       1.8521261      901.31891     -39271532       674.3043       674.3043       674.3043       2162.8478      2837.1522      2162.8478      2837.1522      2162.8478      2837.1522      3.0659693e+08  0.5            24908100       21.039982      6980.5587      13961.102      0.26992553   
  49406400   298.61971     -6.6632841     -39272430       1.8517386      889.23851     -39271541       674.35134      674.35134      674.35134      2162.8243      2837.1757      2162.8243      2837.1757      2162.8243      2837.1757      3.0666108e+08  0.5            24908200       21.054119      7073.7336      14147.503      0.25571807   
  49406600   302.94107     -2.5618114     -39272428       1.8518431      902.10677     -39271526       674.33864      674.33864      674.33864      2162.8307      2837.1693      2162.8307      2837.1693      2162.8307      2837.1693      3.0664377e+08  0.5            24908300       21.068272      7065.7356      14131.489      0.2415109    
  49406800   290.17829      5.7645945     -39272424       1.8520488      864.1014      -39271560       674.31368      674.31368      674.31368      2162.8432      2837.1568      2162.8432      2837.1568      2162.8432      2837.1568      3.0660971e+08  0.5            24908400       21.082521      7017.8886      14035.778      0.22730483   
  49407000   302.31465      7.0229598     -39272421       1.8520862      900.2414      -39271521       674.30914      674.30914      674.30914      2162.8454      2837.1546      2162.8454      2837.1546      2162.8454      2837.1546      3.0660352e+08  0.5            24908500       21.09669       7057.8813      14115.709      0.2130979    
  49407200   292.94059      5.8710626     -39272419       1.852065       872.32707     -39271546       674.31172      674.31172      674.31172      2162.8441      2837.1559      2162.8441      2837.1559      2162.8441      2837.1559      3.0660704e+08  0.5            24908600       21.111232      6876.8389      13753.71       0.19889453   
  49407400   310.42642      3.2805156     -39272417       1.8520071      924.39686     -39271492       674.31874      674.31874      674.31874      2162.8406      2837.1594      2162.8406      2837.1594      2162.8406      2837.1594      3.0661662e+08  0.5            24908700       21.125122      7198.9695      14397.952      0.18468501   
  49407600   289.84326     -0.65877398    -39272414       1.8519176      863.10375     -39271551       674.32961      674.32961      674.32961      2162.8352      2837.1648      2162.8352      2837.1648      2162.8352      2837.1648      3.0663144e+08  0.5            24908800       21.139356      7025.5752      14051.15       0.17047869   
  49407800   299.34436     -2.1943904     -39265033       1.8518733      891.39639     -39264141       674.33498      674.33498      674.33498      2162.8325      2837.1675      2162.8325      2837.1675      2162.8325      2837.1675      3.0663877e+08  0.5            24908900       21.15353       7055.392       14110.719      0.15627189   
  49408000   300.4375       1.0111517     -39265030       1.8519494      894.65156     -39264135       674.32574      674.32574      674.32574      2162.8371      2837.1629      2162.8371      2837.1629      2162.8371      2837.1629      3.0662616e+08  0.5            24909000       21.167671      7071.4816      14143.025      0.14206492   
  49408200   293.44862      3.6743026     -39265026       1.8520127      873.83988     -39264152       674.31806      674.31806      674.31806      2162.841       2837.159       2162.841       2837.159       2162.841       2837.159       3.0661569e+08  0.5            24909100       21.181926      7014.859       14029.697      0.12785872   
  49408400   310.05834     -0.46427179    -39265023       1.8519164      923.30078     -39264099       674.32975      674.32975      674.32975      2162.8351      2837.1649      2162.8351      2837.1649      2162.8351      2837.1649      3.0663164e+08  0.5            24909200       21.195999      7106.0372      14212.08       0.11365148   
  49408600   286.99225     -0.76861599    -39265019       1.8519106      854.61391     -39264165       674.33045      674.33045      674.33045      2162.8348      2837.1652      2162.8348      2837.1652      2162.8348      2837.1652      3.066326e+08   0.5            24909300       21.210475      6908.1145      13816.232      0.099446307  
  49408800   300.60715      3.3655571     -39265016       1.8520083      895.15676     -39264121       674.3186       674.3186       674.3186       2162.8407      2837.1593      2162.8407      2837.1593      2162.8407      2837.1593      3.0661642e+08  0.5            24909400       21.224525      7117.1743      14234.34       0.085239065  
  49409000   299.22782      2.2458979     -39265014       1.8519818      891.04934     -39264122       674.32181      674.32181      674.32181      2162.8391      2837.1609      2162.8391      2837.1609      2162.8391      2837.1609      3.0662081e+08  0.5            24909500       21.238452      7180.1591      14360.329      0.07103162   
  49409200   297.13214     -1.4288463     -39265011       1.8518946      884.80877     -39264126       674.33239      674.33239      674.33239      2162.8338      2837.1662      2162.8338      2837.1662      2162.8338      2837.1662      3.0663524e+08  0.5            24909600       21.252637      7049.7312      14099.467      0.056825239  
  49409400   307.20273     -1.0352609     -39265010       1.8519029      914.79727     -39264095       674.33138      674.33138      674.33138      2162.8343      2837.1657      2162.8343      2837.1657      2162.8343      2837.1657      3.0663387e+08  0.5            24909700       21.266838      7041.9113      14083.795      0.042618918  
  49409600   290.84857      3.1778023     -39265009       1.8520004      866.09738     -39264143       674.31956      674.31956      674.31956      2162.8402      2837.1598      2162.8402      2837.1598      2162.8402      2837.1598      3.0661773e+08  0.5            24909800       21.281005      7058.8567      14117.745      0.028412559  
  49409800   302.06403      3.6214581     -39265009       1.852009       899.49509     -39264109       674.31852      674.31852      674.31852      2162.8407      2837.1593      2162.8407      2837.1593      2162.8407      2837.1593      3.0661631e+08  0.5            24909900       21.295094      7097.3147      14194.616      0.014206202  
  49410000   295.25766      1.293302      -39264640       1.8519513      879.22688     -39263761       674.32551      674.32551      674.32551      2162.8372      2837.1628      2162.8372      2837.1628      2162.8372      2837.1628      3.0662585e+08  0.5            24910000       21.30952       6932.125       13864.205      0            
Loop time of 21.3095 on 4 procs for 300000 steps with 1000 atoms

Performance: 608.178 ns/day, 0.039 hours/ns, 14078.196 timesteps/s
99.5% CPU use with 4 MPI tasks x no OpenMP threads

MPI task timing breakdown:
Section |  min time  |  avg time  |  max time  |%varavg| %total
---------------------------------------------------------------
Pair    | 9.542      | 10.743     | 12.698     |  37.0 | 50.41
Neigh   | 0.0096893  | 0.01078    | 0.012156   |   0.9 |  0.05
Comm    | 3.998      | 5.8234     | 6.9026     |  46.4 | 27.33
Output  | 0.043854   | 0.048003   | 0.058127   |   2.7 |  0.23
Modify  | 3.7914     | 3.8748     | 3.9573     |   3.0 | 18.18
Other   |            | 0.8093     |            |       |  3.80

Nlocal:            250 ave         286 max         228 min
Histogram: 2 0 0 0 1 0 0 0 0 1
Nghost:            736 ave         749 max         726 min
Histogram: 1 1 0 0 0 1 0 0 0 1
Neighs:           1711 ave        1989 max        1538 min
Histogram: 2 0 0 0 0 1 0 0 0 1

Total # of neighbors = 6844
Ave neighs/atom = 6.844
Neighbor list builds = 64
Dangerous builds = 0

# run_style
run_style verlet

# write restart
write_restart ${write_res}
write_restart ./pgnpmf/46/equpmf70.res
System init for write_restart ...
Generated 0 of 1 mixed pair_coeff terms from geometric mixing rule

Total wall time: 0:00:45
