LAMMPS (23 Jun 2022 - Update 1)
OMP_NUM_THREADS environment is not set. Defaulting to 1 thread. (src/comm.cpp:98)
  using 1 OpenMP thread(s) per MPI task
# Read restart
read_restart ${read_res}
read_restart ./pgnpmf/trial2/46/equpmf71.res
Reading restart file ...
  restart file = 23 Jun 2022, LAMMPS = 23 Jun 2022
  restoring atom style atomic from restart
  orthogonal box = (2162.7034 2162.7034 2162.7034) to (2837.2966 2837.2966 2837.2966)
  1 by 2 by 2 MPI processor grid
  restoring pair style table from restart
  1000 atoms
  read_restart CPU = 0.028 seconds

# Settings

pair_style table spline 9941

pair_coeff 1 1 ./pgnpmf/N20.txt DE_GNP 75.6
pair_coeff 2 2 ./pgnpmf/N100.txt DE_GNP 115.92
WARNING: 3 of 9941 force values in table DE_GNP are inconsistent with -dE/dr.
WARNING:  Should only be flagged at inflection points (src/pair_table.cpp:463)
pair_coeff 1 2 ./pgnpmf/mixed_potential.txt DE_GNP 95.66
WARNING: 1562 of 9941 force values in table DE_GNP are inconsistent with -dE/dr.
WARNING:  Should only be flagged at inflection points (src/pair_table.cpp:463)

#Neigh_list Calc Frequency

neigh_modify delay 0 every 1 check yes

# computes
compute vor all voronoi/atom

# Saving Frequency (50 frames)
variable ts_save equal ${steps_equ}
variable ts_save equal 5000

# Dump
dump 1 all custom 100000 ./pgnpmf/${folder}/voronoi/voronoi_${usic}_${trial}.custom type x y z ix iy iz c_vor[1] c_vor[2]
dump 1 all custom 100000 ./pgnpmf/trial2/46/voronoi/voronoi_${usic}_${trial}.custom type x y z ix iy iz c_vor[1] c_vor[2]
dump 1 all custom 100000 ./pgnpmf/trial2/46/voronoi/voronoi_1_${trial}.custom type x y z ix iy iz c_vor[1] c_vor[2]
dump 1 all custom 100000 ./pgnpmf/trial2/46/voronoi/voronoi_1_1.custom type x y z ix iy iz c_vor[1] c_vor[2]
dump_modify 1 first no sort id
#dump 2 all cfg 50000 ./pgnpmf/${folder}/equilibration/trajectory/dumpgen.tens_*.cfg mass type xs ys zs fx fy fz
#dump_modify 2 element N20 N100

# thermo_style
thermo_style custom step temp press pe density ke etotal lx ly lz xlo xhi ylo yhi zlo zhi vol dt time cpu tpcpu spcpu cpuremain

# run info
timestep ${ts}
timestep 0.5
thermo 200

# fix

fix 1 all momentum 1000 linear 1 1 1 angular
variable T equal ${temp}
variable T equal 300
fix 2 all nvt temp ${T} ${T} 100.0
fix 2 all nvt temp 300 ${T} 100.0
fix 2 all nvt temp 300 300 100.0

run 100000
Generated 0 of 1 mixed pair_coeff terms from geometric mixing rule
Unused restart file global fix info:
  fix style: npt, fix ID: 5
Neighbor list info ...
  update every 1 steps, delay 0 steps, check yes
  max neighbors/atom: 2000, page size: 100000
  master list distance cutoff = 117.92
  ghost atom cutoff = 117.92
  binsize = 58.96, bins = 12 12 12
  1 neighbor lists, perpetual/occasional/extra = 1 0 0
  (1) pair table, perpetual
      attributes: half, newton on
      pair build: half/bin/atomonly/newton
      stencil: half/bin/3d
      bin: standard
Per MPI rank memory allocation (min/avg/max) = 3.102 | 3.102 | 3.102 Mbytes
   Step          Temp          Press          PotEng        Density         KinEng         TotEng           Lx             Ly             Lz            Xlo            Xhi            Ylo            Yhi            Zlo            Zhi           Volume           Dt            Time           CPU           T/CPU          S/CPU         CPULeft    
  50110000   296.18884      3.3173239     -39202501       1.8497483      881.99979     -39201619       674.59311      674.59311      674.59311      2162.7034      2837.2966      2162.7034      2837.2966      2162.7034      2837.2966      3.0699105e+08  0.5            25260000       0              0              0              0            
  50110200   301.20359      3.0003273     -39209884       1.8497483      896.93285     -39208987       674.59311      674.59311      674.59311      2162.7034      2837.2966      2162.7034      2837.2966      2162.7034      2837.2966      3.0699105e+08  0.5            25260100       0.015493947    6453.8301      12906.942      7.7326836    
  50110400   310.32546      3.0467584     -39209890       1.8497483      924.09624     -39208965       674.59311      674.59311      674.59311      2162.7034      2837.2966      2162.7034      2837.2966      2162.7034      2837.2966      3.0699105e+08  0.5            25260200       0.030683685    6583.4471      13166.913      7.6407948    
  50110600   306.66898      3.0392584     -39209894       1.8497483      913.20785     -39208981       674.59311      674.59311      674.59311      2162.7034      2837.2966      2162.7034      2837.2966      2162.7034      2837.2966      3.0699105e+08  0.5            25260300       0.045803559    6613.8165      13227.689      7.588476     
  50110800   291.52271      2.9330059     -39209899       1.8497483      868.10485     -39209031       674.59311      674.59311      674.59311      2162.7034      2837.2966      2162.7034      2837.2966      2162.7034      2837.2966      3.0699105e+08  0.5            25260400       0.060993633    6583.2451      13166.5        7.5634835    
  50111000   294.92324      2.6867455     -39209903       1.8497483      878.23106     -39209024       674.59311      674.59311      674.59311      2162.7034      2837.2966      2162.7034      2837.2966      2162.7034      2837.2966      3.0699105e+08  0.5            25260500       0.07616898     6589.6473      13179.299      7.5409373    
  50111200   308.05451      2.3617523     -39209906       1.8497483      917.33374     -39208989       674.59311      674.59311      674.59311      2162.7034      2837.2966      2162.7034      2837.2966      2162.7034      2837.2966      3.0699105e+08  0.5            25260600       0.091315577    6602.1269      13204.21       7.5184919    
  50111400   307.49047      2.2435773     -39209542       1.8497483      915.65412     -39208626       674.59311      674.59311      674.59311      2162.7034      2837.2966      2162.7034      2837.2966      2162.7034      2837.2966      3.0699105e+08  0.5            25260700       0.10645289     6606.2006      13212.446      7.4974731    
  50111600   285.62579      2.2029137     -39209546       1.8497483      850.54482     -39208695       674.59311      674.59311      674.59311      2162.7034      2837.2966      2162.7034      2837.2966      2162.7034      2837.2966      3.0699105e+08  0.5            25260800       0.12159346     6604.7882      13209.529      7.4781255    
  50111800   293.27996      2.3519668     -39209550       1.8497483      873.33763     -39208677       674.59311      674.59311      674.59311      2162.7034      2837.2966      2162.7034      2837.2966      2162.7034      2837.2966      3.0699105e+08  0.5            25260900       0.13671848     6611.5969      13223.225      7.4588631    
  50112000   306.01167      2.5111789     -39209554       1.8497483      911.25051     -39208643       674.59311      674.59311      674.59311      2162.7034      2837.2966      2162.7034      2837.2966      2162.7034      2837.2966      3.0699105e+08  0.5            25261000       0.15187836     6596.3578      13192.724      7.4421384    
  50112200   305.69116      2.5039719     -39209558       1.8497483      910.29608     -39208648       674.59311      674.59311      674.59311      2162.7034      2837.2966      2162.7034      2837.2966      2162.7034      2837.2966      3.0699105e+08  0.5            25261100       0.16707041     6582.3667      13164.733      7.4271308    
  50112400   292.8277       2.4203915     -39209563       1.8497483      871.9909      -39208691       674.59311      674.59311      674.59311      2162.7034      2837.2966      2162.7034      2837.2966      2162.7034      2837.2966      3.0699105e+08  0.5            25261200       0.18220628     6606.8443      13213.705      7.4098013    
  50112600   290.53834      2.4157757     -39209569       1.8497483      865.17355     -39208704       674.59311      674.59311      674.59311      2162.7034      2837.2966      2162.7034      2837.2966      2162.7034      2837.2966      3.0699105e+08  0.5            25261300       0.19731755     6617.5867      13235.123      7.3918947    
  50112800   316.76317      2.52743       -39209575       1.8497483      943.26663     -39208631       674.59311      674.59311      674.59311      2162.7034      2837.2966      2162.7034      2837.2966      2162.7034      2837.2966      3.0699105e+08  0.5            25261400       0.21244718     6609.5439      13219.142      7.3750201    
  50113000   316.62185      2.6380539     -39209580       1.8497483      942.8458      -39208637       674.59311      674.59311      674.59311      2162.7034      2837.2966      2162.7034      2837.2966      2162.7034      2837.2966      3.0699105e+08  0.5            25261500       0.22774541     6536.677       13073.279      7.363837     
  50113200   300.69502      2.8079503     -39209586       1.8497483      895.41841     -39208691       674.59311      674.59311      674.59311      2162.7034      2837.2966      2162.7034      2837.2966      2162.7034      2837.2966      3.0699105e+08  0.5            25261600       0.24290369     6597.0654      13194.192      7.3478976    
  50113400   294.56131      3.060081      -39209592       1.8497483      877.15327     -39208715       674.59311      674.59311      674.59311      2162.7034      2837.2966      2162.7034      2837.2966      2162.7034      2837.2966      3.0699105e+08  0.5            25261700       0.25805833     6598.6487      13197.244      7.331951     
  50113600   298.86624      3.3163749     -39209599       1.8497483      889.97263     -39208709       674.59311      674.59311      674.59311      2162.7034      2837.2966      2162.7034      2837.2966      2162.7034      2837.2966      3.0699105e+08  0.5            25261800       0.27320475     6602.2211      13204.477      7.3158693    
  50113800   309.39388      3.4628742     -39209605       1.8497483      921.32213     -39208684       674.59311      674.59311      674.59311      2162.7034      2837.2966      2162.7034      2837.2966      2162.7034      2837.2966      3.0699105e+08  0.5            25261900       0.28829852     6625.2527      13250.521      7.2985539    
  50114000   306.76599      3.5139887     -39209612       1.8497483      913.49675     -39208698       674.59311      674.59311      674.59311      2162.7034      2837.2966      2162.7034      2837.2966      2162.7034      2837.2966      3.0699105e+08  0.5            25262000       0.3034235      6611.5886      13223.192      7.2822094    
  50114200   290.45087      3.553002      -39209618       1.8497483      864.91308     -39208753       674.59311      674.59311      674.59311      2162.7034      2837.2966      2162.7034      2837.2966      2162.7034      2837.2966      3.0699105e+08  0.5            25262100       0.31854655     6612.4114      13224.773      7.2659412    
  50114400   295.63724      3.6089158     -39209624       1.8497483      880.35723     -39208743       674.59311      674.59311      674.59311      2162.7034      2837.2966      2162.7034      2837.2966      2162.7034      2837.2966      3.0699105e+08  0.5            25262200       0.33366394     6614.9138      13229.842      7.2496502    
  50114600   307.52399      3.6109752     -39209631       1.8497483      915.75393     -39208715       674.59311      674.59311      674.59311      2162.7034      2837.2966      2162.7034      2837.2966      2162.7034      2837.2966      3.0699105e+08  0.5            25262300       0.34876066     6623.9409      13247.913      7.2330342    
  50114800   305.12085      3.5215219     -39209638       1.8497483      908.5978      -39208730       674.59311      674.59311      674.59311      2162.7034      2837.2966      2162.7034      2837.2966      2162.7034      2837.2966      3.0699105e+08  0.5            25262400       0.36389569     6607.2145      13214.413      7.217303     
  50115000   285.37498      3.3783357     -39209646       1.8497483      849.79796     -39208796       674.59311      674.59311      674.59311      2162.7034      2837.2966      2162.7034      2837.2966      2162.7034      2837.2966      3.0699105e+08  0.5            25262500       0.37902213     6610.9155      13221.816      7.2014577    
  50115200   293.99881      3.1861941     -39209654       1.8497483      875.47825     -39208778       674.59311      674.59311      674.59311      2162.7034      2837.2966      2162.7034      2837.2966      2162.7034      2837.2966      3.0699105e+08  0.5            25262600       0.39414587     6612.1373      13224.3        7.185619     
  50115400   306.49195      2.7883254     -39211557       1.8497483      912.6807      -39210644       674.59311      674.59311      674.59311      2162.7034      2837.2966      2162.7034      2837.2966      2162.7034      2837.2966      3.0699105e+08  0.5            25262700       0.40927163     6611.228       13222.391      7.1698679    
  50115600   305.52105      2.5452994     -39211564       1.8497483      909.78953     -39210654       674.59311      674.59311      674.59311      2162.7034      2837.2966      2162.7034      2837.2966      2162.7034      2837.2966      3.0699105e+08  0.5            25262800       0.42442771     6598.0095      13196.089      7.1546716    
  50115800   291.74919      2.2638006     -39211570       1.8497483      868.77926     -39210702       674.59311      674.59311      674.59311      2162.7034      2837.2966      2162.7034      2837.2966      2162.7034      2837.2966      3.0699105e+08  0.5            25262900       0.43956291     6607.0984      13214.191      7.1391401    
  50116000   292.60065      1.9832653     -39211576       1.8497483      871.31478     -39210705       674.59311      674.59311      674.59311      2162.7034      2837.2966      2162.7034      2837.2966      2162.7034      2837.2966      3.0699105e+08  0.5            25263000       0.4547526      6583.4271      13166.837      7.124489     
  50116200   300.34626      1.7149155     -39211582       1.8497483      894.37987     -39210688       674.59311      674.59311      674.59311      2162.7034      2837.2966      2162.7034      2837.2966      2162.7034      2837.2966      3.0699105e+08  0.5            25263100       0.46987399     6613.1399      13226.29       7.1087696    
  50116400   302.774        1.4296303     -39211589       1.8497483      901.60928     -39210687       674.59311      674.59311      674.59311      2162.7034      2837.2966      2162.7034      2837.2966      2162.7034      2837.2966      3.0699105e+08  0.5            25263200       0.48502802     6598.9051      13197.813      7.0935639    
  50116600   299.61838      1.117493      -39211594       1.8497483      892.21238     -39210702       674.59311      674.59311      674.59311      2162.7034      2837.2966      2162.7034      2837.2966      2162.7034      2837.2966      3.0699105e+08  0.5            25263300       0.50014807     6613.7347      13227.471      7.0778808    
  50116800   292.12565      0.80049502    -39211599       1.8497483      869.90031     -39210729       674.59311      674.59311      674.59311      2162.7034      2837.2966      2162.7034      2837.2966      2162.7034      2837.2966      3.0699105e+08  0.5            25263400       0.51527235     6611.8907      13223.763      7.0622894    
  50117000   289.95058      0.5658892     -39211603       1.8497483      863.42331     -39210740       674.59311      674.59311      674.59311      2162.7034      2837.2966      2162.7034      2837.2966      2162.7034      2837.2966      3.0699105e+08  0.5            25263500       0.53039603     6612.1512      13224.318      7.046716     
  50117200   308.05621      0.40002664    -39211608       1.8497483      917.3388      -39210690       674.59311      674.59311      674.59311      2162.7034      2837.2966      2162.7034      2837.2966      2162.7034      2837.2966      3.0699105e+08  0.5            25263600       0.54551671     6613.4741      13226.959      7.031129     
  50117400   311.89479      0.18323567    -39211613       1.8497483      928.76944     -39210684       674.59311      674.59311      674.59311      2162.7034      2837.2966      2162.7034      2837.2966      2162.7034      2837.2966      3.0699105e+08  0.5            25263700       0.5606686      6599.8197      13199.636      7.0159588    
  50117600   297.71545     -0.14501534    -39211617       1.8497483      886.54577     -39210731       674.59311      674.59311      674.59311      2162.7034      2837.2966      2162.7034      2837.2966      2162.7034      2837.2966      3.0699105e+08  0.5            25263800       0.57578065     6617.2364      13234.457      7.0003047    
  50117800   296.11156     -0.4614682     -39211622       1.8497483      881.76966     -39210740       674.59311      674.59311      674.59311      2162.7034      2837.2966      2162.7034      2837.2966      2162.7034      2837.2966      3.0699105e+08  0.5            25263900       0.59112705     6516.1514      13032.255      6.9874502    
  50118000   301.29149     -0.65843939    -39211627       1.8497483      897.19462     -39210730       674.59311      674.59311      674.59311      2162.7034      2837.2966      2162.7034      2837.2966      2162.7034      2837.2966      3.0699105e+08  0.5            25264000       0.60624569     6614.3774      13228.799      6.9718488    
  50118200   304.42505     -0.7911343     -39211633       1.8497483      906.52583     -39210726       674.59311      674.59311      674.59311      2162.7034      2837.2966      2162.7034      2837.2966      2162.7034      2837.2966      3.0699105e+08  0.5            25264100       0.62136442     6614.3292      13228.645      6.9562729    
  50118400   291.66368     -0.93547231    -39211638       1.8497483      868.52464     -39210770       674.59311      674.59311      674.59311      2162.7034      2837.2966      2162.7034      2837.2966      2162.7034      2837.2966      3.0699105e+08  0.5            25264200       0.63645248     6627.7529      13255.509      6.9403847    
  50118600   286.43163     -1.0445165     -39211643       1.8497483      852.94448     -39210790       674.59311      674.59311      674.59311      2162.7034      2837.2966      2162.7034      2837.2966      2162.7034      2837.2966      3.0699105e+08  0.5            25264300       0.6515501      6623.5561      13247.097      6.9246357    
  50118800   303.14051     -1.1342885     -39211648       1.8497483      902.70069     -39210745       674.59311      674.59311      674.59311      2162.7034      2837.2966      2162.7034      2837.2966      2162.7034      2837.2966      3.0699105e+08  0.5            25264400       0.66668458     6607.4367      13214.909      6.909297     
  50119000   307.66845     -1.1352828     -39211651       1.8497483      916.18412     -39210735       674.59311      674.59311      674.59311      2162.7034      2837.2966      2162.7034      2837.2966      2162.7034      2837.2966      3.0699105e+08  0.5            25264500       0.68182169     6606.3031      13212.641      6.8939936    
  50119200   300.57679     -1.0183449     -39211654       1.8497483      895.06636     -39210759       674.59311      674.59311      674.59311      2162.7034      2837.2966      2162.7034      2837.2966      2162.7034      2837.2966      3.0699105e+08  0.5            25264600       0.69693982     6614.5454      13229.031      6.8785124    
  50119400   296.84274     -0.92665586    -39213553       1.8497483      883.947       -39212669       674.59311      674.59311      674.59311      2162.7034      2837.2966      2162.7034      2837.2966      2162.7034      2837.2966      3.0699105e+08  0.5            25264700       0.71203141     6626.2022      13252.458      6.8627901    
  50119600   299.492       -0.62325145    -39213557       1.8497483      891.83603     -39212665       674.59311      674.59311      674.59311      2162.7034      2837.2966      2162.7034      2837.2966      2162.7034      2837.2966      3.0699105e+08  0.5            25264800       0.72711636     6629.1519      13258.293      6.84703      
  50119800   301.66479     -0.45081588    -39213560       1.8497483      898.30624     -39212662       674.59311      674.59311      674.59311      2162.7034      2837.2966      2162.7034      2837.2966      2162.7034      2837.2966      3.0699105e+08  0.5            25264900       0.74221201     6624.4056      13248.779      6.8313983    
  50120000   301.16818     -0.35462368    -39213563       1.8497483      896.82742     -39212666       674.59311      674.59311      674.59311      2162.7034      2837.2966      2162.7034      2837.2966      2162.7034      2837.2966      3.0699105e+08  0.5            25265000       0.75734767     6606.9247      13213.845      6.8161467    
  50120200   299.88066     -0.18212146    -39213566       1.8497483      892.99339     -39212673       674.59311      674.59311      674.59311      2162.7034      2837.2966      2162.7034      2837.2966      2162.7034      2837.2966      3.0699105e+08  0.5            25265100       0.77248248     6607.2782      13214.546      6.8008927    
  50120400   297.89907     -0.1797875     -39213571       1.8497483      887.09255     -39212684       674.59311      674.59311      674.59311      2162.7034      2837.2966      2162.7034      2837.2966      2162.7034      2837.2966      3.0699105e+08  0.5            25265200       0.78756946     6628.2375      13256.474      6.7852307    
  50120600   292.17524     -0.51106487    -39215471       1.8497483      870.04797     -39214601       674.59311      674.59311      674.59311      2162.7034      2837.2966      2162.7034      2837.2966      2162.7034      2837.2966      3.0699105e+08  0.5            25265300       0.80268346     6616.3752      13232.786      6.7698186    
  50120800   293.73941     -0.63556708    -39215475       1.8497483      874.70582     -39214601       674.59311      674.59311      674.59311      2162.7034      2837.2966      2162.7034      2837.2966      2162.7034      2837.2966      3.0699105e+08  0.5            25265400       0.8178029      6613.9854      13227.94       6.7544632    
  50121000   308.85598     -0.68004569    -39215481       1.8497483      919.72036     -39214562       674.59311      674.59311      674.59311      2162.7034      2837.2966      2162.7034      2837.2966      2162.7034      2837.2966      3.0699105e+08  0.5            25265500       0.83294011     6606.2468      13212.536      6.7392585    
  50121200   309.76386     -0.77382444    -39215488       1.8497483      922.42389     -39214566       674.59311      674.59311      674.59311      2162.7034      2837.2966      2162.7034      2837.2966      2162.7034      2837.2966      3.0699105e+08  0.5            25265600       0.84845982     6443.4231      12886.84       6.7270899    
  50121400   293.69174     -0.89299585    -39215494       1.8497483      874.56386     -39214620       674.59311      674.59311      674.59311      2162.7034      2837.2966      2162.7034      2837.2966      2162.7034      2837.2966      3.0699105e+08  0.5            25265700       0.86405048     6414.0909      12828.148      6.7153552    
  50121600   295.64046     -0.86262982    -39215500       1.8497483      880.36681     -39214620       674.59311      674.59311      674.59311      2162.7034      2837.2966      2162.7034      2837.2966      2162.7034      2837.2966      3.0699105e+08  0.5            25265800       0.87916066     6618.0579      13236.147      6.6998254    
  50121800   303.30083     -0.73483435    -39215507       1.8497483      903.17807     -39214604       674.59311      674.59311      674.59311      2162.7034      2837.2966      2162.7034      2837.2966      2162.7034      2837.2966      3.0699105e+08  0.5            25265900       0.89428666     6611.1227      13222.233      6.6844288    
  50122000   304.71432     -0.58775767    -39215514       1.8497483      907.38721     -39214607       674.59311      674.59311      674.59311      2162.7034      2837.2966      2162.7034      2837.2966      2162.7034      2837.2966      3.0699105e+08  0.5            25266000       0.90977839     6455.057       12910.058      6.671723     
  50122200   288.1862      -0.46596834    -39215522       1.8497483      858.16931     -39214664       674.59311      674.59311      674.59311      2162.7034      2837.2966      2162.7034      2837.2966      2162.7034      2837.2966      3.0699105e+08  0.5            25266100       0.92488484     6619.7021      13239.446      6.6561529    
  50122400   288.39936     -0.37145072    -39215529       1.8497483      858.80404     -39214670       674.59311      674.59311      674.59311      2162.7034      2837.2966      2162.7034      2837.2966      2162.7034      2837.2966      3.0699105e+08  0.5            25266200       0.94000421     6614.0138      13228.044      6.6406891    
  50122600   302.14675     -0.26371635    -39215536       1.8497483      899.74143     -39214636       674.59311      674.59311      674.59311      2162.7034      2837.2966      2162.7034      2837.2966      2162.7034      2837.2966      3.0699105e+08  0.5            25266300       0.9551558      6599.9792      13199.972      6.6254593    
  50122800   305.09549     -0.12049735    -39215543       1.8497483      908.52228     -39214635       674.59311      674.59311      674.59311      2162.7034      2837.2966      2162.7034      2837.2966      2162.7034      2837.2966      3.0699105e+08  0.5            25266400       0.97027568     6613.8065      13227.584      6.6100167    
  50123000   300.21588     -0.0709019     -39215551       1.8497483      893.99164     -39214657       674.59311      674.59311      674.59311      2162.7034      2837.2966      2162.7034      2837.2966      2162.7034      2837.2966      3.0699105e+08  0.5            25266500       0.98539988     6611.9305      13223.883      6.5946124    
  50123200   295.05343     -0.13017933    -39215557       1.8497483      878.61873     -39214679       674.59311      674.59311      674.59311      2162.7034      2837.2966      2162.7034      2837.2966      2162.7034      2837.2966      3.0699105e+08  0.5            25266600       1.0007659      6507.8538      13015.63       6.5808077    
  50123400   294.60631     -0.20104599    -39215564       1.8497483      877.2873      -39214686       674.59311      674.59311      674.59311      2162.7034      2837.2966      2162.7034      2837.2966      2162.7034      2837.2966      3.0699105e+08  0.5            25266700       1.0158834      6614.8923      13229.866      6.5653485    
  50123600   304.09374     -0.27506442    -39215569       1.8497483      905.53922     -39214664       674.59311      674.59311      674.59311      2162.7034      2837.2966      2162.7034      2837.2966      2162.7034      2837.2966      3.0699105e+08  0.5            25266800       1.0310045      6613.2475      13226.491      6.5499236    
  50123800   309.49765     -0.42041579    -39215575       1.8497483      921.63114     -39214653       674.59311      674.59311      674.59311      2162.7034      2837.2966      2162.7034      2837.2966      2162.7034      2837.2966      3.0699105e+08  0.5            25266900       1.0461138      6618.4451      13236.909      6.5344329    
  50124000   296.94698     -0.65152403    -39215578       1.8497483      884.25741     -39214694       674.59311      674.59311      674.59311      2162.7034      2837.2966      2162.7034      2837.2966      2162.7034      2837.2966      3.0699105e+08  0.5            25267000       1.0612576      6603.3781      13206.709      6.5191657    
  50124200   291.06705     -0.84326871    -39215580       1.8497483      866.74796     -39214714       674.59311      674.59311      674.59311      2162.7034      2837.2966      2162.7034      2837.2966      2162.7034      2837.2966      3.0699105e+08  0.5            25267100       1.0763064      6645.0397      13290.095      6.5033277    
  50124400   302.14062     -0.95438499    -39215583       1.8497483      899.72317     -39214683       674.59311      674.59311      674.59311      2162.7034      2837.2966      2162.7034      2837.2966      2162.7034      2837.2966      3.0699105e+08  0.5            25267200       1.0913964      6626.9202      13253.815      6.4877567    
  50124600   313.61286     -1.1481663     -39215586       1.8497483      933.88556     -39214652       674.59311      674.59311      674.59311      2162.7034      2837.2966      2162.7034      2837.2966      2162.7034      2837.2966      3.0699105e+08  0.5            25267300       1.1064824      6628.6452      13257.315      6.4721755    
  50124800   292.16893     -1.3880443     -39215589       1.8497483      870.02919     -39214719       674.59311      674.59311      674.59311      2162.7034      2837.2966      2162.7034      2837.2966      2162.7034      2837.2966      3.0699105e+08  0.5            25267400       1.1215717      6627.2175      13254.441      6.4566266    
  50125000   288.25388     -1.4949248     -39215591       1.8497483      858.37083     -39214733       674.59311      674.59311      674.59311      2162.7034      2837.2966      2162.7034      2837.2966      2162.7034      2837.2966      3.0699105e+08  0.5            25267500       1.1366742      6621.4576      13242.925      6.4411643    
  50125200   303.73618     -1.5684605     -39215594       1.8497483      904.47447     -39214690       674.59311      674.59311      674.59311      2162.7034      2837.2966      2162.7034      2837.2966      2162.7034      2837.2966      3.0699105e+08  0.5            25267600       1.1517987      6611.7538      13223.502      6.425835     
  50125400   308.85458     -1.6237297     -39215597       1.8497483      919.71621     -39214677       674.59311      674.59311      674.59311      2162.7034      2837.2966      2162.7034      2837.2966      2162.7034      2837.2966      3.0699105e+08  0.5            25267700       1.166947       6601.3856      13202.743      6.4106418    
  50125600   297.02285     -1.3948078     -39213705       1.8497483      884.48334     -39212820       674.59311      674.59311      674.59311      2162.7034      2837.2966      2162.7034      2837.2966      2162.7034      2837.2966      3.0699105e+08  0.5            25267800       1.1820482      6621.9973      13244.026      6.3951944    
  50125800   291.0218      -1.3197302     -39213709       1.8497483      866.61322     -39212842       674.59311      674.59311      674.59311      2162.7034      2837.2966      2162.7034      2837.2966      2162.7034      2837.2966      3.0699105e+08  0.5            25267900       1.197158       6618.2152      13236.455      6.3798017    
  50126000   300.04204     -1.302703      -39213713       1.8497483      893.47395     -39212819       674.59311      674.59311      674.59311      2162.7034      2837.2966      2162.7034      2837.2966      2162.7034      2837.2966      3.0699105e+08  0.5            25268000       1.212245       6628.2181      13256.413      6.3642966    
  50126200   305.6998      -1.2943649     -39213716       1.8497483      910.32179     -39212806       674.59311      674.59311      674.59311      2162.7034      2837.2966      2162.7034      2837.2966      2162.7034      2837.2966      3.0699105e+08  0.5            25268100       1.2273141      6636.1219      13272.257      6.3487086    
  50126400   303.10813     -1.2367845     -39213720       1.8497483      902.60424     -39212817       674.59311      674.59311      674.59311      2162.7034      2837.2966      2162.7034      2837.2966      2162.7034      2837.2966      3.0699105e+08  0.5            25268200       1.2424096      6624.4736      13248.899      6.333269     
  50126600   297.47161     -1.1808437     -39213724       1.8497483      885.81966     -39212838       674.59311      674.59311      674.59311      2162.7034      2837.2966      2162.7034      2837.2966      2162.7034      2837.2966      3.0699105e+08  0.5            25268300       1.2575201      6617.9072      13235.864      6.3179121    
  50126800   295.06885     -1.1251577     -39213728       1.8497483      878.66466     -39212850       674.59311      674.59311      674.59311      2162.7034      2837.2966      2162.7034      2837.2966      2162.7034      2837.2966      3.0699105e+08  0.5            25268400       1.272648       6610.34        13220.558      6.3026476    
  50127000   302.47787     -1.2167937     -39215629       1.8497483      900.72745     -39214728       674.59311      674.59311      674.59311      2162.7034      2837.2966      2162.7034      2837.2966      2162.7034      2837.2966      3.0699105e+08  0.5            25268500       1.2877562      6618.9292      13237.957      6.2872896    
  50127200   314.55557     -1.108998      -39215636       1.8497483      936.69278     -39214699       674.59311      674.59311      674.59311      2162.7034      2837.2966      2162.7034      2837.2966      2162.7034      2837.2966      3.0699105e+08  0.5            25268600       1.3028606      6620.5488      13241.098      6.2719196    
  50127400   301.75345     -1.053047      -39215643       1.8497483      898.57023     -39214745       674.59311      674.59311      674.59311      2162.7034      2837.2966      2162.7034      2837.2966      2162.7034      2837.2966      3.0699105e+08  0.5            25268700       1.3179549      6625.0468      13250.065      6.2565075    
  50127600   293.44679     -1.0461634     -39215651       1.8497483      873.83442     -39214777       674.59311      674.59311      674.59311      2162.7034      2837.2966      2162.7034      2837.2966      2162.7034      2837.2966      3.0699105e+08  0.5            25268800       1.3330503      6624.5289      13249.085      6.241108     
  50127800   300.2793      -1.0645698     -39215659       1.8497483      894.18047     -39214765       674.59311      674.59311      674.59311      2162.7034      2837.2966      2162.7034      2837.2966      2162.7034      2837.2966      3.0699105e+08  0.5            25268900       1.3481535      6621.1086      13242.216      6.2257515    
  50128000   307.44925     -1.0968379     -39215667       1.8497483      915.53137     -39214751       674.59311      674.59311      674.59311      2162.7034      2837.2966      2162.7034      2837.2966      2162.7034      2837.2966      3.0699105e+08  0.5            25269000       1.3633383      6585.5468      13171.08       6.210772     
  50128200   297.48444     -1.1342652     -39215674       1.8497483      885.85788     -39214788       674.59311      674.59311      674.59311      2162.7034      2837.2966      2162.7034      2837.2966      2162.7034      2837.2966      3.0699105e+08  0.5            25269100       1.378463       6611.6725      13223.334      6.1955188    
  50128400   287.34033     -1.1662853     -39215681       1.8497483      855.65043     -39214825       674.59311      674.59311      674.59311      2162.7034      2837.2966      2162.7034      2837.2966      2162.7034      2837.2966      3.0699105e+08  0.5            25269200       1.3935847      6612.9755      13225.968      6.1802546    
  50128600   299.7309      -1.1759229     -39215688       1.8497483      892.54743     -39214795       674.59311      674.59311      674.59311      2162.7034      2837.2966      2162.7034      2837.2966      2162.7034      2837.2966      3.0699105e+08  0.5            25269300       1.4086941      6618.4245      13236.852      6.1649389    
  50128800   308.27294     -1.1778869     -39215694       1.8497483      917.98417     -39214776       674.59311      674.59311      674.59311      2162.7034      2837.2966      2162.7034      2837.2966      2162.7034      2837.2966      3.0699105e+08  0.5            25269400       1.4237901      6624.2867      13248.552      6.1495701    
  50129000   303.1741      -1.1762869     -39215700       1.8497483      902.8007      -39214797       674.59311      674.59311      674.59311      2162.7034      2837.2966      2162.7034      2837.2966      2162.7034      2837.2966      3.0699105e+08  0.5            25269500       1.4389028      6616.936       13233.874      6.1342784    
  50129200   299.9226      -1.1799051     -39215705       1.8497483      893.11829     -39214812       674.59311      674.59311      674.59311      2162.7034      2837.2966      2162.7034      2837.2966      2162.7034      2837.2966      3.0699105e+08  0.5            25269600       1.4540084      6620.0969      13240.241      6.11896      
  50129400   300.26558     -1.2085844     -39215710       1.8497483      894.13962     -39214816       674.59311      674.59311      674.59311      2162.7034      2837.2966      2162.7034      2837.2966      2162.7034      2837.2966      3.0699105e+08  0.5            25269700       1.4693538      6516.5739      13033.058      6.1046437    
  50129600   300.38222     -1.2215143     -39215717       1.8497483      894.48696     -39214822       674.59311      674.59311      674.59311      2162.7034      2837.2966      2162.7034      2837.2966      2162.7034      2837.2966      3.0699105e+08  0.5            25269800       1.4844363      6630.2217      13260.48       6.0892268    
  50129800   294.52734     -1.2291842     -39215723       1.8497483      877.05213     -39214846       674.59311      674.59311      674.59311      2162.7034      2837.2966      2162.7034      2837.2966      2162.7034      2837.2966      3.0699105e+08  0.5            25269900       1.4995485      6617.1877      13234.427      6.0739365    
  50130000   286.05809     -1.2393821     -39215729       1.8497483      851.83216     -39214877       674.59311      674.59311      674.59311      2162.7034      2837.2966      2162.7034      2837.2966      2162.7034      2837.2966      3.0699105e+08  0.5            25270000       1.5146482      6622.6516      13245.28       6.0586003    
  50130200   300.28213     -1.2250215     -39215734       1.8497483      894.18891     -39214840       674.59311      674.59311      674.59311      2162.7034      2837.2966      2162.7034      2837.2966      2162.7034      2837.2966      3.0699105e+08  0.5            25270100       1.5297556      6619.2372      13238.475      6.0432998    
  50130400   311.04669     -1.2246131     -39215739       1.8497483      926.24393     -39214813       674.59311      674.59311      674.59311      2162.7034      2837.2966      2162.7034      2837.2966      2162.7034      2837.2966      3.0699105e+08  0.5            25270200       1.5448654      6618.2147      13236.438      6.0280119    
  50130600   302.4229      -1.288244      -39215743       1.8497483      900.56376     -39214842       674.59311      674.59311      674.59311      2162.7034      2837.2966      2162.7034      2837.2966      2162.7034      2837.2966      3.0699105e+08  0.5            25270300       1.5599893      6612.0756      13224.148      6.0127818    
  50130800   296.74167     -1.3997292     -39215746       1.8497483      883.64603     -39214862       674.59311      674.59311      674.59311      2162.7034      2837.2966      2162.7034      2837.2966      2162.7034      2837.2966      3.0699105e+08  0.5            25270400       1.5751241      6607.2892      13214.532      5.9975953    
  50131000   298.82216     -1.5653075     -39215750       1.8497483      889.84137     -39214860       674.59311      674.59311      674.59311      2162.7034      2837.2966      2162.7034      2837.2966      2162.7034      2837.2966      3.0699105e+08  0.5            25270500       1.5902735      6600.9241      13201.952      5.9824644    
  50131200   301.96096     -1.7855613     -39215753       1.8497483      899.18817     -39214854       674.59311      674.59311      674.59311      2162.7034      2837.2966      2162.7034      2837.2966      2162.7034      2837.2966      3.0699105e+08  0.5            25270600       1.6054028      6609.671       13219.275      5.9672595    
  50131400   300.85495     -2.0084879     -39215757       1.8497483      895.89466     -39214861       674.59311      674.59311      674.59311      2162.7034      2837.2966      2162.7034      2837.2966      2162.7034      2837.2966      3.0699105e+08  0.5            25270700       1.6205194      6615.2551      13230.514      5.9520084    
  50131600   284.61798     -2.1814698     -39215760       1.8497483      847.54374     -39214912       674.59311      674.59311      674.59311      2162.7034      2837.2966      2162.7034      2837.2966      2162.7034      2837.2966      3.0699105e+08  0.5            25270800       1.6356273      6619.0615      13238.137      5.9367285    
  50131800   288.42972     -1.9445063     -39213500       1.8497483      858.89446     -39212641       674.59311      674.59311      674.59311      2162.7034      2837.2966      2162.7034      2837.2966      2162.7034      2837.2966      3.0699105e+08  0.5            25270900       1.6507451      6614.7156      13229.419      5.9214874    
  50132000   305.33975     -1.9534244     -39213503       1.8497483      909.24963     -39212593       674.59311      674.59311      674.59311      2162.7034      2837.2966      2162.7034      2837.2966      2162.7034      2837.2966      3.0699105e+08  0.5            25271000       1.665903       6597.1943      13194.375      5.9063907    
  50132200   305.38177     -1.9526049     -39213505       1.8497483      909.37477     -39212596       674.59311      674.59311      674.59311      2162.7034      2837.2966      2162.7034      2837.2966      2162.7034      2837.2966      3.0699105e+08  0.5            25271100       1.6810446      6604.335       13208.644      5.8912356    
  50132400   296.34316     -2.0140144     -39213508       1.8497483      882.45932     -39212625       674.59311      674.59311      674.59311      2162.7034      2837.2966      2162.7034      2837.2966      2162.7034      2837.2966      3.0699105e+08  0.5            25271200       1.6961954      6600.3281      13200.685      5.8761123    
  50132600   292.40175     -2.1522241     -39213511       1.8497483      870.72248     -39212640       674.59311      674.59311      674.59311      2162.7034      2837.2966      2162.7034      2837.2966      2162.7034      2837.2966      3.0699105e+08  0.5            25271300       1.7113389      6603.4915      13206.982      5.8609638    
  50132800   308.98184     -2.2560131     -39213515       1.8497483      920.09516     -39212595       674.59311      674.59311      674.59311      2162.7034      2837.2966      2162.7034      2837.2966      2162.7034      2837.2966      3.0699105e+08  0.5            25271400       1.7264816      6603.8312      13207.69       5.8458128    
  50133000   316.52936     -2.2625573     -39213519       1.8497483      942.57038     -39212577       674.59311      674.59311      674.59311      2162.7034      2837.2966      2162.7034      2837.2966      2162.7034      2837.2966      3.0699105e+08  0.5            25271500       1.7416237      6604.1234      13208.248      5.8306596    
  50133200   299.67394     -2.2180806     -39213523       1.8497483      892.37783     -39212631       674.59311      674.59311      674.59311      2162.7034      2837.2966      2162.7034      2837.2966      2162.7034      2837.2966      3.0699105e+08  0.5            25271600       1.7567707      6601.9613      13203.889      5.8155232    
  50133400   295.72074     -2.1657614     -39213527       1.8497483      880.60586     -39212647       674.59311      674.59311      674.59311      2162.7034      2837.2966      2162.7034      2837.2966      2162.7034      2837.2966      3.0699105e+08  0.5            25271700       1.7719223      6599.9704      13199.997      5.8004014    
  50133600   300.6905      -2.1283446     -39213531       1.8497483      895.40496     -39212636       674.59311      674.59311      674.59311      2162.7034      2837.2966      2162.7034      2837.2966      2162.7034      2837.2966      3.0699105e+08  0.5            25271800       1.7870464      6611.9672      13223.881      5.7851903    
  50133800   308.53821     -2.2057205     -39213904       1.8497483      918.77411     -39212985       674.59311      674.59311      674.59311      2162.7034      2837.2966      2162.7034      2837.2966      2162.7034      2837.2966      3.0699105e+08  0.5            25271900       1.8021536      6619.359       13238.694      5.7699266    
  50134000   304.22661     -2.092135      -39213909       1.8497483      905.9349      -39213003       674.59311      674.59311      674.59311      2162.7034      2837.2966      2162.7034      2837.2966      2162.7034      2837.2966      3.0699105e+08  0.5            25272000       1.8172537      6622.4701      13244.994      5.7546428    
  50134200   289.74041     -1.9233219     -39213913       1.8497483      862.79747     -39213050       674.59311      674.59311      674.59311      2162.7034      2837.2966      2162.7034      2837.2966      2162.7034      2837.2966      3.0699105e+08  0.5            25272100       1.8323915      6605.9784      13211.965      5.7394802    
  50134400   295.27562     -1.5489429     -39212022       1.8497483      879.28039     -39211143       674.59311      674.59311      674.59311      2162.7034      2837.2966      2162.7034      2837.2966      2162.7034      2837.2966      3.0699105e+08  0.5            25272200       1.8475247      6607.9707      13215.949      5.7243038    
  50134600   309.25974     -1.4283333     -39212026       1.8497483      920.9227      -39211106       674.59311      674.59311      674.59311      2162.7034      2837.2966      2162.7034      2837.2966      2162.7034      2837.2966      3.0699105e+08  0.5            25272300       1.8626805      6598.1506      13196.271      5.7091974    
  50134800   306.18894     -1.4744058     -39212031       1.8497483      911.77838     -39211119       674.59311      674.59311      674.59311      2162.7034      2837.2966      2162.7034      2837.2966      2162.7034      2837.2966      3.0699105e+08  0.5            25272400       1.8777802      6622.6253      13245.269      5.69392      
  50135000   293.62927     -1.5965629     -39212036       1.8497483      874.37783     -39211161       674.59311      674.59311      674.59311      2162.7034      2837.2966      2162.7034      2837.2966      2162.7034      2837.2966      3.0699105e+08  0.5            25272500       1.8928986      6614.4548      13228.921      5.6787016    
  50135200   296.37066     -1.6469748     -39212040       1.8497483      882.54122     -39211158       674.59311      674.59311      674.59311      2162.7034      2837.2966      2162.7034      2837.2966      2162.7034      2837.2966      3.0699105e+08  0.5            25272600       1.9080271      6610.0586      13220.102      5.6635146    
  50135400   303.22052     -1.6062949     -39212045       1.8497483      902.93892     -39211142       674.59311      674.59311      674.59311      2162.7034      2837.2966      2162.7034      2837.2966      2162.7034      2837.2966      3.0699105e+08  0.5            25272700       1.9231837      6597.7954      13195.61       5.6484112    
  50135600   304.74199     -1.5067082     -39212049       1.8497483      907.4696      -39211141       674.59311      674.59311      674.59311      2162.7034      2837.2966      2162.7034      2837.2966      2162.7034      2837.2966      3.0699105e+08  0.5            25272800       1.9383183      6607.3542      13214.719      5.6332432    
  50135800   294.40376     -1.4078079     -39212052       1.8497483      876.68413     -39211176       674.59311      674.59311      674.59311      2162.7034      2837.2966      2162.7034      2837.2966      2162.7034      2837.2966      3.0699105e+08  0.5            25272900       1.9534601      6604.2359      13208.439      5.6180962    
  50136000   288.8596      -1.3366386     -39212056       1.8497483      860.17455     -39211196       674.59311      674.59311      674.59311      2162.7034      2837.2966      2162.7034      2837.2966      2162.7034      2837.2966      3.0699105e+08  0.5            25273000       1.968645       6585.4757      13170.969      5.6030721    
  50136200   307.80669     -1.270936      -39212061       1.8497483      916.59577     -39211144       674.59311      674.59311      674.59311      2162.7034      2837.2966      2162.7034      2837.2966      2162.7034      2837.2966      3.0699105e+08  0.5            25273100       1.9837827      6606.0238      13212.042      5.5879124    
  50136400   314.66073     -1.213149      -39212066       1.8497483      937.00593     -39211129       674.59311      674.59311      674.59311      2162.7034      2837.2966      2162.7034      2837.2966      2162.7034      2837.2966      3.0699105e+08  0.5            25273200       1.9989167      6607.6498      13215.266      5.5727429    
  50136600   303.20143     -1.1715474     -39212071       1.8497483      902.88209     -39211169       674.59311      674.59311      674.59311      2162.7034      2837.2966      2162.7034      2837.2966      2162.7034      2837.2966      3.0699105e+08  0.5            25273300       2.0143197      6492.2464      12984.505      5.5583162    
  50136800   297.57674     -1.1571897     -39212077       1.8497483      886.13272     -39211190       674.59311      674.59311      674.59311      2162.7034      2837.2966      2162.7034      2837.2966      2162.7034      2837.2966      3.0699105e+08  0.5            25273400       2.0294851      6593.9469      13187.865      5.5432259    
  50137000   297.87655     -1.1910488     -39212081       1.8497483      887.02551     -39211194       674.59311      674.59311      674.59311      2162.7034      2837.2966      2162.7034      2837.2966      2162.7034      2837.2966      3.0699105e+08  0.5            25273500       2.0446194      6607.5088      13215.042      5.5280504    
  50137200   304.02978     -1.2492979     -39212086       1.8497483      905.34877     -39211180       674.59311      674.59311      674.59311      2162.7034      2837.2966      2162.7034      2837.2966      2162.7034      2837.2966      3.0699105e+08  0.5            25273600       2.0597745      6598.4379      13196.886      5.5129312    
  50137400   312.11173     -1.3362078     -39212090       1.8497483      929.41543     -39211161       674.59311      674.59311      674.59311      2162.7034      2837.2966      2162.7034      2837.2966      2162.7034      2837.2966      3.0699105e+08  0.5            25273700       2.0749156      6604.5653      13209.08       5.4977743    
  50137600   299.77776     -1.4807658     -39212094       1.8497483      892.68697     -39211202       674.59311      674.59311      674.59311      2162.7034      2837.2966      2162.7034      2837.2966      2162.7034      2837.2966      3.0699105e+08  0.5            25273800       2.0900374      6612.9641      13225.963      5.482567     
  50137800   291.03093     -1.6333025     -39212098       1.8497483      866.6404      -39211231       674.59311      674.59311      674.59311      2162.7034      2837.2966      2162.7034      2837.2966      2162.7034      2837.2966      3.0699105e+08  0.5            25273900       2.1051584      6613.3284      13226.679      5.4673588    
  50138000   299.3794      -1.747408      -39212102       1.8497483      891.50074     -39211210       674.59311      674.59311      674.59311      2162.7034      2837.2966      2162.7034      2837.2966      2162.7034      2837.2966      3.0699105e+08  0.5            25274000       2.1202894      6608.9197      13217.837      5.4521778    
  50138200   310.12336     -1.7970514     -39212105       1.8497483      923.49441     -39211182       674.59311      674.59311      674.59311      2162.7034      2837.2966      2162.7034      2837.2966      2162.7034      2837.2966      3.0699105e+08  0.5            25274100       2.1354164      6610.7166      13221.408      5.4369871    
  50138400   298.03689     -1.7768748     -39212109       1.8497483      887.50297     -39211221       674.59311      674.59311      674.59311      2162.7034      2837.2966      2162.7034      2837.2966      2162.7034      2837.2966      3.0699105e+08  0.5            25274200       2.1505319      6615.7129      13231.43       5.4217685    
  50138600   285.2875      -1.6956921     -39212112       1.8497483      849.53746     -39211263       674.59311      674.59311      674.59311      2162.7034      2837.2966      2162.7034      2837.2966      2162.7034      2837.2966      3.0699105e+08  0.5            25274300       2.1657025      6591.7245      13183.456      5.4066886    
  50138800   299.36646     -1.5841141     -39212116       1.8497483      891.4622      -39211225       674.59311      674.59311      674.59311      2162.7034      2837.2966      2162.7034      2837.2966      2162.7034      2837.2966      3.0699105e+08  0.5            25274400       2.1808393      6606.3917      13212.758      5.3915243    
  50139000   308.10261     -1.4473086     -39212121       1.8497483      917.47697     -39211203       674.59311      674.59311      674.59311      2162.7034      2837.2966      2162.7034      2837.2966      2162.7034      2837.2966      3.0699105e+08  0.5            25274500       2.1959993      6596.3069      13192.704      5.3764167    
  50139200   301.18001     -1.2306665     -39212125       1.8497483      896.86265     -39211228       674.59311      674.59311      674.59311      2162.7034      2837.2966      2162.7034      2837.2966      2162.7034      2837.2966      3.0699105e+08  0.5            25274600       2.2111573      6597.1851      13194.32       5.361304     
  50139400   290.94597     -0.92544808    -39212130       1.8497483      866.38741     -39211263       674.59311      674.59311      674.59311      2162.7034      2837.2966      2162.7034      2837.2966      2162.7034      2837.2966      3.0699105e+08  0.5            25274700       2.22629        6608.1912      13216.361      5.3461297    
  50139600   297.61831     -0.58332811    -39212134       1.8497483      886.2565      -39211248       674.59311      674.59311      674.59311      2162.7034      2837.2966      2162.7034      2837.2966      2162.7034      2837.2966      3.0699105e+08  0.5            25274800       2.2414538      6594.6883      13189.377      5.3310298    
  50139800   322.80617     -0.26756073    -39212138       1.8497483      961.26164     -39211176       674.59311      674.59311      674.59311      2162.7034      2837.2966      2162.7034      2837.2966      2162.7034      2837.2966      3.0699105e+08  0.5            25274900       2.2566269      6590.585       13181.125      5.3159513    
  50140000   309.00147     -0.05183597    -39212140       1.8497483      920.15362     -39211220       674.59311      674.59311      674.59311      2162.7034      2837.2966      2162.7034      2837.2966      2162.7034      2837.2966      3.0699105e+08  0.5            25275000       2.2717897      6595.0767      13190.186      5.3008473    
  50140200   296.18764      0.0847015     -39212142       1.8497483      881.99621     -39211260       674.59311      674.59311      674.59311      2162.7034      2837.2966      2162.7034      2837.2966      2162.7034      2837.2966      3.0699105e+08  0.5            25275100       2.2869227      6608.0952      13216.233      5.2856734    
  50140400   294.88102     -0.24131315    -39219522       1.8497483      878.10533     -39218644       674.59311      674.59311      674.59311      2162.7034      2837.2966      2162.7034      2837.2966      2162.7034      2837.2966      3.0699105e+08  0.5            25275200       2.3020805      6597.2326      13194.455      5.2705573    
  50140600   304.61674     -0.084684215   -39219525       1.8497483      907.09665     -39218618       674.59311      674.59311      674.59311      2162.7034      2837.2966      2162.7034      2837.2966      2162.7034      2837.2966      3.0699105e+08  0.5            25275300       2.317218       6606.1438      13212.293      5.2553941    
  50140800   312.5558       0.58042833    -39212150       1.8497483      930.7378      -39211219       674.59311      674.59311      674.59311      2162.7034      2837.2966      2162.7034      2837.2966      2162.7034      2837.2966      3.0699105e+08  0.5            25275400       2.3323695      6600.0044      13200.039      5.2402628    
  50141000   294.62607      0.80104042    -39212153       1.8497483      877.34614     -39211276       674.59311      674.59311      674.59311      2162.7034      2837.2966      2162.7034      2837.2966      2162.7034      2837.2966      3.0699105e+08  0.5            25275500       2.3475505      6587.1957      13174.34       5.2251973    
  50141200   290.00592      0.94907122    -39212156       1.8497483      863.5881      -39211293       674.59311      674.59311      674.59311      2162.7034      2837.2966      2162.7034      2837.2966      2162.7034      2837.2966      3.0699105e+08  0.5            25275600       2.3627491      6579.5313      13159.077      5.2101689    
  50141400   302.07539      0.98297639    -39212160       1.8497483      899.52894     -39211261       674.59311      674.59311      674.59311      2162.7034      2837.2966      2162.7034      2837.2966      2162.7034      2837.2966      3.0699105e+08  0.5            25275700       2.3779036      6598.69        13197.35       5.1950423    
  50141600   307.75415      0.90076683    -39212165       1.8497483      916.43932     -39211248       674.59311      674.59311      674.59311      2162.7034      2837.2966      2162.7034      2837.2966      2162.7034      2837.2966      3.0699105e+08  0.5            25275800       2.3930303      6610.8512      13221.718      5.1798545    
  50141800   298.27785      0.73128328    -39212169       1.8497483      888.22051     -39211281       674.59311      674.59311      674.59311      2162.7034      2837.2966      2162.7034      2837.2966      2162.7034      2837.2966      3.0699105e+08  0.5            25275900       2.4081601      6609.4369      13218.868      5.1646748    
  50142000   285.19603      0.53415892    -39212173       1.8497483      849.26508     -39211324       674.59311      674.59311      674.59311      2162.7034      2837.2966      2162.7034      2837.2966      2162.7034      2837.2966      3.0699105e+08  0.5            25276000       2.4233076      6601.7756      13203.576      5.1495327    
  50142200   299.31145      0.39070781    -39212178       1.8497483      891.29838     -39211287       674.59311      674.59311      674.59311      2162.7034      2837.2966      2162.7034      2837.2966      2162.7034      2837.2966      3.0699105e+08  0.5            25276100       2.4384308      6612.3397      13224.671      5.1343397    
  50142400   315.71342      0.31869602    -39212183       1.8497483      940.14064     -39211243       674.59311      674.59311      674.59311      2162.7034      2837.2966      2162.7034      2837.2966      2162.7034      2837.2966      3.0699105e+08  0.5            25276200       2.4535711      6604.9055      13209.86       5.1191832    
  50142600   301.3877       0.28026775    -39212188       1.8497483      897.4811      -39211291       674.59311      674.59311      674.59311      2162.7034      2837.2966      2162.7034      2837.2966      2162.7034      2837.2966      3.0699105e+08  0.5            25276300       2.4687126      6604.3655      13208.712      5.1040293    
  50142800   292.75794      0.2671488     -39212194       1.8497483      871.78317     -39211322       674.59311      674.59311      674.59311      2162.7034      2837.2966      2162.7034      2837.2966      2162.7034      2837.2966      3.0699105e+08  0.5            25276400       2.4838066      6625.1495      13250.276      5.0887784    
  50143000   298.73275      0.26698975    -39212200       1.8497483      889.57512     -39211310       674.59311      674.59311      674.59311      2162.7034      2837.2966      2162.7034      2837.2966      2162.7034      2837.2966      3.0699105e+08  0.5            25276500       2.4989428      6606.6745      13213.375      5.073615     
  50143200   310.9011       0.25961242    -39212207       1.8497483      925.81037     -39211281       674.59311      674.59311      674.59311      2162.7034      2837.2966      2162.7034      2837.2966      2162.7034      2837.2966      3.0699105e+08  0.5            25276600       2.514057       6616.278       13232.502      5.0584078    
  50143400   304.40238      0.18438149    -39212214       1.8497483      906.45831     -39211307       674.59311      674.59311      674.59311      2162.7034      2837.2966      2162.7034      2837.2966      2162.7034      2837.2966      3.0699105e+08  0.5            25276700       2.5291452      6627.7103      13255.44       5.0431497    
  50143600   289.90326      0.018359481   -39212221       1.8497483      863.2824      -39211358       674.59311      674.59311      674.59311      2162.7034      2837.2966      2162.7034      2837.2966      2162.7034      2837.2966      3.0699105e+08  0.5            25276800       2.5442477      6621.415       13242.813      5.0279219    
  50143800   298.16409     -0.2128609     -39212228       1.8497483      887.88173     -39211340       674.59311      674.59311      674.59311      2162.7034      2837.2966      2162.7034      2837.2966      2162.7034      2837.2966      3.0699105e+08  0.5            25276900       2.5594447      6580.2478      13160.523      5.0128808    
  50144000   308.14111     -0.48117665    -39212235       1.8497483      917.59162     -39211318       674.59311      674.59311      674.59311      2162.7034      2837.2966      2162.7034      2837.2966      2162.7034      2837.2966      3.0699105e+08  0.5            25277000       2.5746206      6589.412       13178.802      4.9977967    
  50144200   301.41929     -0.73266647    -39212242       1.8497483      897.57516     -39211344       674.59311      674.59311      674.59311      2162.7034      2837.2966      2162.7034      2837.2966      2162.7034      2837.2966      3.0699105e+08  0.5            25277100       2.5897549      6607.483       13214.976      4.9826316    
  50144400   286.11789     -0.92013147    -39212248       1.8497483      852.01021     -39211396       674.59311      674.59311      674.59311      2162.7034      2837.2966      2162.7034      2837.2966      2162.7034      2837.2966      3.0699105e+08  0.5            25277200       2.6048999      6602.861       13205.739      4.9674871    
  50144600   295.45764     -1.1940534     -39214150       1.8497483      879.8224      -39213271       674.59311      674.59311      674.59311      2162.7034      2837.2966      2162.7034      2837.2966      2162.7034      2837.2966      3.0699105e+08  0.5            25277300       2.6200317      6608.5808      13217.159      4.952318     
  50144800   305.27859     -1.2157936     -39214158       1.8497483      909.06752     -39213249       674.59311      674.59311      674.59311      2162.7034      2837.2966      2162.7034      2837.2966      2162.7034      2837.2966      3.0699105e+08  0.5            25277400       2.6351597      6610.2915      13220.559      4.9371418    
  50145000   303.95302     -1.2166763     -39214166       1.8497483      905.12018     -39213261       674.59311      674.59311      674.59311      2162.7034      2837.2966      2162.7034      2837.2966      2162.7034      2837.2966      3.0699105e+08  0.5            25277500       2.6503004      6604.6918      13209.378      4.9219901    
  50145200   291.31694     -1.1816929     -39214174       1.8497483      867.4921      -39213306       674.59311      674.59311      674.59311      2162.7034      2837.2966      2162.7034      2837.2966      2162.7034      2837.2966      3.0699105e+08  0.5            25277600       2.665742       6475.9717      12951.958      4.9073925    
  50145400   288.64453     -1.0853279     -39214181       1.8497483      859.53414     -39213322       674.59311      674.59311      674.59311      2162.7034      2837.2966      2162.7034      2837.2966      2162.7034      2837.2966      3.0699105e+08  0.5            25277700       2.6808965      6598.7471      13197.491      4.892261     
  50145600   316.77858     -0.95731099    -39214189       1.8497483      943.31251     -39213245       674.59311      674.59311      674.59311      2162.7034      2837.2966      2162.7034      2837.2966      2162.7034      2837.2966      3.0699105e+08  0.5            25277800       2.6960672      6591.661       13183.293      4.8771589    
  50145800   312.29096     -0.88971571    -39214196       1.8497483      929.94914     -39213266       674.59311      674.59311      674.59311      2162.7034      2837.2966      2162.7034      2837.2966      2162.7034      2837.2966      3.0699105e+08  0.5            25277900       2.7112218      6598.6295      13197.296      4.862027     
  50146000   297.75209     -0.90919713    -39214204       1.8497483      886.65488     -39213317       674.59311      674.59311      674.59311      2162.7034      2837.2966      2162.7034      2837.2966      2162.7034      2837.2966      3.0699105e+08  0.5            25278000       2.7263647      6603.7497      13207.487      4.8468741    
  50146200   295.87139     -0.96688339    -39214213       1.8497483      881.05448     -39213332       674.59311      674.59311      674.59311      2162.7034      2837.2966      2162.7034      2837.2966      2162.7034      2837.2966      3.0699105e+08  0.5            25278100       2.7415119      6601.882       13203.726      4.8317289    
  50146400   302.21111     -1.0275584     -39214222       1.8497483      899.93308     -39213322       674.59311      674.59311      674.59311      2162.7034      2837.2966      2162.7034      2837.2966      2162.7034      2837.2966      3.0699105e+08  0.5            25278200       2.7566487      6606.4157      13212.892      4.8165655    
  50146600   308.60769     -1.0992893     -39214232       1.8497483      918.98101     -39213313       674.59311      674.59311      674.59311      2162.7034      2837.2966      2162.7034      2837.2966      2162.7034      2837.2966      3.0699105e+08  0.5            25278300       2.7718108      6595.362       13190.707      4.8014463    
  50146800   297.14662     -1.1830389     -39214243       1.8497483      884.8519      -39213358       674.59311      674.59311      674.59311      2162.7034      2837.2966      2162.7034      2837.2966      2162.7034      2837.2966      3.0699105e+08  0.5            25278400       2.7869188      6619.072       13238.175      4.7862334    
  50147000   291.22965     -1.2568832     -39214253       1.8497483      867.23218     -39213385       674.59311      674.59311      674.59311      2162.7034      2837.2966      2162.7034      2837.2966      2162.7034      2837.2966      3.0699105e+08  0.5            25278500       2.8020349      6615.4595      13230.896      4.7710357    
  50147200   301.9233      -1.3580637     -39214262       1.8497483      899.07603     -39213363       674.59311      674.59311      674.59311      2162.7034      2837.2966      2162.7034      2837.2966      2162.7034      2837.2966      3.0699105e+08  0.5            25278600       2.8171638      6609.841       13219.668      4.7558605    
  50147400   312.67893     -1.541329      -39214272       1.8497483      931.10446     -39213341       674.59311      674.59311      674.59311      2162.7034      2837.2966      2162.7034      2837.2966      2162.7034      2837.2966      3.0699105e+08  0.5            25278700       2.832306       6604.0733      13208.17       4.7407078    
  50147600   295.21559     -2.2222575     -39221659       1.8497483      879.10161     -39220780       674.59311      674.59311      674.59311      2162.7034      2837.2966      2162.7034      2837.2966      2162.7034      2837.2966      3.0699105e+08  0.5            25278800       2.8474575      6600.0014      13200.004      4.7255709    
  50147800   291.36513     -2.4696525     -39221669       1.8497483      867.63559     -39220801       674.59311      674.59311      674.59311      2162.7034      2837.2966      2162.7034      2837.2966      2162.7034      2837.2966      3.0699105e+08  0.5            25278900       2.8626209      6594.844       13189.639      4.7104535    
  50148000   304.22442     -2.6890261     -39221679       1.8497483      905.92838     -39220773       674.59311      674.59311      674.59311      2162.7034      2837.2966      2162.7034      2837.2966      2162.7034      2837.2966      3.0699105e+08  0.5            25279000       2.8777594      6605.6581      13211.361      4.6952948    
  50148200   310.40514     -2.8269376     -39221690       1.8497483      924.33351     -39220765       674.59311      674.59311      674.59311      2162.7034      2837.2966      2162.7034      2837.2966      2162.7034      2837.2966      3.0699105e+08  0.5            25279100       2.8928884      6609.8515      13219.679      4.680121     
  50148400   294.83879     -2.6848785     -39219805       1.8497483      877.97957     -39218927       674.59311      674.59311      674.59311      2162.7034      2837.2966      2162.7034      2837.2966      2162.7034      2837.2966      3.0699105e+08  0.5            25279200       2.9080267      6605.7271      13211.505      4.6649625    
  50148600   294.31641     -2.6447965     -39219816       1.8497483      876.42401     -39218940       674.59311      674.59311      674.59311      2162.7034      2837.2966      2162.7034      2837.2966      2162.7034      2837.2966      3.0699105e+08  0.5            25279300       2.9231762      6600.8988      13201.778      4.6498221    
  50148800   303.14458     -2.5877233     -39219828       1.8497483      902.71278     -39218925       674.59311      674.59311      674.59311      2162.7034      2837.2966      2162.7034      2837.2966      2162.7034      2837.2966      3.0699105e+08  0.5            25279400       2.9383043      6610.1975      13220.396      4.6346479    
  50149000   305.44005     -2.5780231     -39219840       1.8497483      909.54831     -39218931       674.59311      674.59311      674.59311      2162.7034      2837.2966      2162.7034      2837.2966      2162.7034      2837.2966      3.0699105e+08  0.5            25279500       2.9534447      6604.837       13209.675      4.6194935    
  50149200   290.0557      -2.6673808     -39219851       1.8497483      863.73635     -39218988       674.59311      674.59311      674.59311      2162.7034      2837.2966      2162.7034      2837.2966      2162.7034      2837.2966      3.0699105e+08  0.5            25279600       2.968587       6603.9978      13208.016      4.604342     
  50149400   290.25758     -2.8498875     -39219862       1.8497483      864.33751     -39218998       674.59311      674.59311      674.59311      2162.7034      2837.2966      2162.7034      2837.2966      2162.7034      2837.2966      3.0699105e+08  0.5            25279700       2.9836861      6622.9367      13245.86       4.5891243    
  50149600   301.61786     -3.0614625     -39219873       1.8497483      898.16647     -39218975       674.59311      674.59311      674.59311      2162.7034      2837.2966      2162.7034      2837.2966      2162.7034      2837.2966      3.0699105e+08  0.5            25279800       2.9987703      6629.463       13258.912      4.5738849    
  50149800   305.63976     -3.2254684     -39219885       1.8497483      910.14302     -39218975       674.59311      674.59311      674.59311      2162.7034      2837.2966      2162.7034      2837.2966      2162.7034      2837.2966      3.0699105e+08  0.5            25279900       3.0138758      6620.1013      13240.241      4.5586793    
  50150000   300.12309     -3.3202389     -39219897       1.8497483      893.71531     -39219004       674.59311      674.59311      674.59311      2162.7034      2837.2966      2162.7034      2837.2966      2162.7034      2837.2966      3.0699105e+08  0.5            25280000       3.0289998      6612.0109      13224.02       4.5435025    
  50150200   294.06789     -3.3923767     -39219909       1.8497483      875.68395     -39219033       674.59311      674.59311      674.59311      2162.7034      2837.2966      2162.7034      2837.2966      2162.7034      2837.2966      3.0699105e+08  0.5            25280100       3.0441149      6615.9195      13231.788      4.528313     
  50150400   297.03018     -3.4654623     -39219920       1.8497483      884.50515     -39219036       674.59311      674.59311      674.59311      2162.7034      2837.2966      2162.7034      2837.2966      2162.7034      2837.2966      3.0699105e+08  0.5            25280200       3.059271       6597.9677      13195.944      4.5131849    
  50150600   313.09174     -3.5246234     -39219932       1.8497483      932.33373     -39218999       674.59311      674.59311      674.59311      2162.7034      2837.2966      2162.7034      2837.2966      2162.7034      2837.2966      3.0699105e+08  0.5            25280300       3.074425       6598.9361      13197.851      4.4980532    
  50150800   309.29323     -3.5763069     -39219943       1.8497483      921.02241     -39219022       674.59311      674.59311      674.59311      2162.7034      2837.2966      2162.7034      2837.2966      2162.7034      2837.2966      3.0699105e+08  0.5            25280400       3.0895408      6615.6109      13231.282      4.4828658    
  50151000   295.68047     -3.6125423     -39219954       1.8497483      880.48595     -39219073       674.59311      674.59311      674.59311      2162.7034      2837.2966      2162.7034      2837.2966      2162.7034      2837.2966      3.0699105e+08  0.5            25280500       3.1046782      6606.1477      13212.268      4.4677104    
  50151200   296.15097     -3.6376128     -39219965       1.8497483      881.88702     -39219083       674.59311      674.59311      674.59311      2162.7034      2837.2966      2162.7034      2837.2966      2162.7034      2837.2966      3.0699105e+08  0.5            25280600       3.1198005      6612.7428      13225.454      4.4525336    
  50151400   304.50402     -3.6736718     -39219976       1.8497483      906.76097     -39219069       674.59311      674.59311      674.59311      2162.7034      2837.2966      2162.7034      2837.2966      2162.7034      2837.2966      3.0699105e+08  0.5            25280700       3.1349534      6599.4334      13198.854      4.4374005    
  50151600   308.11452     -3.691854      -39219987       1.8497483      917.51242     -39219070       674.59311      674.59311      674.59311      2162.7034      2837.2966      2162.7034      2837.2966      2162.7034      2837.2966      3.0699105e+08  0.5            25280800       3.1500922      6605.5233      13211.087      4.4222474    
  50151800   293.081       -3.6939602     -39219998       1.8497483      872.74516     -39219125       674.59311      674.59311      674.59311      2162.7034      2837.2966      2162.7034      2837.2966      2162.7034      2837.2966      3.0699105e+08  0.5            25280900       3.1652539      6595.5399      13191.091      4.4071265    
  50152000   293.32097     -3.6980989     -39220008       1.8497483      873.45976     -39219135       674.59311      674.59311      674.59311      2162.7034      2837.2966      2162.7034      2837.2966      2162.7034      2837.2966      3.0699105e+08  0.5            25281000       3.1804103      6597.8829      13195.761      4.3919978    
  50152200   305.77302     -3.6724824     -39220019       1.8497483      910.53985     -39219108       674.59311      674.59311      674.59311      2162.7034      2837.2966      2162.7034      2837.2966      2162.7034      2837.2966      3.0699105e+08  0.5            25281100       3.1958121      6492.7274      12985.435      4.3772051    
  50152400   310.16451     -3.5610457     -39220029       1.8497483      923.61694     -39219105       674.59311      674.59311      674.59311      2162.7034      2837.2966      2162.7034      2837.2966      2162.7034      2837.2966      3.0699105e+08  0.5            25281200       3.2109591      6601.9848      13203.945      4.3620603    
  50152600   289.37118     -3.3263068     -39220038       1.8497483      861.69796     -39219176       674.59311      674.59311      674.59311      2162.7034      2837.2966      2162.7034      2837.2966      2162.7034      2837.2966      3.0699105e+08  0.5            25281300       3.2261235      6594.4221      13188.867      4.346939     
  50152800   294.0104      -3.0539733     -39220047       1.8497483      875.51277     -39219171       674.59311      674.59311      674.59311      2162.7034      2837.2966      2162.7034      2837.2966      2162.7034      2837.2966      3.0699105e+08  0.5            25281400       3.2413166      6581.8967      13163.787      4.3318557    
  50153000   307.76669     -2.9350044     -39220055       1.8497483      916.47666     -39219139       674.59311      674.59311      674.59311      2162.7034      2837.2966      2162.7034      2837.2966      2162.7034      2837.2966      3.0699105e+08  0.5            25281500       3.2565185      6578.1463      13156.325      4.3167828    
  50153200   306.78301     -2.816208      -39219694       1.8497483      913.54743     -39218781       674.59311      674.59311      674.59311      2162.7034      2837.2966      2162.7034      2837.2966      2162.7034      2837.2966      3.0699105e+08  0.5            25281600       3.2717006      6586.7002      13173.357      4.301683     
  50153400   290.55354     -2.8841975     -39219701       1.8497483      865.21882     -39218835       674.59311      674.59311      674.59311      2162.7034      2837.2966      2162.7034      2837.2966      2162.7034      2837.2966      3.0699105e+08  0.5            25281700       3.2868541      6599.1194      13198.257      4.286545     
  50153600   293.90323     -2.901571      -39219707       1.8497483      875.19363     -39218832       674.59311      674.59311      674.59311      2162.7034      2837.2966      2162.7034      2837.2966      2162.7034      2837.2966      3.0699105e+08  0.5            25281800       3.3020068      6599.483       13198.948      4.2714059    
  50153800   302.65954     -3.3995659     -39227092       1.8497483      901.26842     -39226190       674.59311      674.59311      674.59311      2162.7034      2837.2966      2162.7034      2837.2966      2162.7034      2837.2966      3.0699105e+08  0.5            25281900       3.3171585      6599.9504      13199.946      4.2562651    
  50154000   304.99628     -3.579894      -39227099       1.8497483      908.22683     -39226191       674.59311      674.59311      674.59311      2162.7034      2837.2966      2162.7034      2837.2966      2162.7034      2837.2966      3.0699105e+08  0.5            25282000       3.3323425      6585.8473      13171.697      4.2411656    
  50154200   293.00459     -3.879235      -39227106       1.8497483      872.51765     -39226233       674.59311      674.59311      674.59311      2162.7034      2837.2966      2162.7034      2837.2966      2162.7034      2837.2966      3.0699105e+08  0.5            25282100       3.3475228      6587.5081      13175.01       4.2260605    
  50154400   285.22955     -4.265363      -39227480       1.8497483      849.36489     -39226631       674.59311      674.59311      674.59311      2162.7034      2837.2966      2162.7034      2837.2966      2162.7034      2837.2966      3.0699105e+08  0.5            25282200       3.3627196      6580.2989      13160.575      4.2109757    
  50154600   303.76891     -4.3779087     -39227486       1.8497483      904.57195     -39226581       674.59311      674.59311      674.59311      2162.7034      2837.2966      2162.7034      2837.2966      2162.7034      2837.2966      3.0699105e+08  0.5            25282300       3.3778989      6587.9273      13175.846      4.1958679    
[...]
  50199200   297.75376      0.08201846    -39217984       1.8497483      886.65984     -39217097       674.59311      674.59311      674.59311      2162.7034      2837.2966      2162.7034      2837.2966      2162.7034      2837.2966      3.0699105e+08  0.5            25304600       6.7452111      6645.0406      13290.119      0.81668498   
  50199400   306.31344      0.15835749    -39217987       1.8497483      912.14912     -39217075       674.59311      674.59311      674.59311      2162.7034      2837.2966      2162.7034      2837.2966      2162.7034      2837.2966      3.0699105e+08  0.5            25304700       6.760295       6629.5812      13259.157      0.80155646   
  50199600   302.96757      0.26955549    -39217990       1.8497483      902.18568     -39217088       674.59311      674.59311      674.59311      2162.7034      2837.2966      2162.7034      2837.2966      2162.7034      2837.2966      3.0699105e+08  0.5            25304800       6.775401       6619.9045      13239.813      0.78643069   
  50199800   288.78046      0.38757696    -39217993       1.8497483      859.93891     -39217133       674.59311      674.59311      674.59311      2162.7034      2837.2966      2162.7034      2837.2966      2162.7034      2837.2966      3.0699105e+08  0.5            25304900       6.7904777      6632.7675      13265.501      0.77130169   
  50200000   292.13366      0.50115069    -39217996       1.8497483      869.92416     -39217126       674.59311      674.59311      674.59311      2162.7034      2837.2966      2162.7034      2837.2966      2162.7034      2837.2966      3.0699105e+08  0.5            25305000       6.8206062      3319.0957      6638.1725      0.75784538   
  50200200   314.2175       0.61030417    -39218000       1.8497483      935.68605     -39217064       674.59311      674.59311      674.59311      2162.7034      2837.2966      2162.7034      2837.2966      2162.7034      2837.2966      3.0699105e+08  0.5            25305100       6.8359596      6513.2509      13026.503      0.74270981   
  50200400   308.91411      0.66685424    -39218004       1.8497483      919.89346     -39217084       674.59311      674.59311      674.59311      2162.7034      2837.2966      2162.7034      2837.2966      2162.7034      2837.2966      3.0699105e+08  0.5            25305200       6.8510245      6637.9756      13275.982      0.72754264   
  50200600   297.35276      0.45948749    -39219902       1.8497483      885.46573     -39219017       674.59311      674.59311      674.59311      2162.7034      2837.2966      2162.7034      2837.2966      2162.7034      2837.2966      3.0699105e+08  0.5            25305300       6.8661333      6618.662       13237.341      0.71238048   
  50200800   294.35408      0.38512268    -39219905       1.8497483      876.53618     -39219028       674.59311      674.59311      674.59311      2162.7034      2837.2966      2162.7034      2837.2966      2162.7034      2837.2966      3.0699105e+08  0.5            25305400       6.8812233      6626.9096      13253.883      0.69721665   
  50201000   303.13585      0.3237021     -39219907       1.8497483      902.6868      -39219004       674.59311      674.59311      674.59311      2162.7034      2837.2966      2162.7034      2837.2966      2162.7034      2837.2966      3.0699105e+08  0.5            25305500       6.8963262      6621.2445      13242.456      0.68205443   
  50201200   317.00411      0.34479416    -39219909       1.8497483      943.98411     -39218965       674.59311      674.59311      674.59311      2162.7034      2837.2966      2162.7034      2837.2966      2162.7034      2837.2966      3.0699105e+08  0.5            25305600       6.9114126      6628.4984      13257.007      0.66689087   
  50201400   301.54404      0.40974079    -39219913       1.8497483      897.94666     -39219015       674.59311      674.59311      674.59311      2162.7034      2837.2966      2162.7034      2837.2966      2162.7034      2837.2966      3.0699105e+08  0.5            25305700       6.9265111      6623.1442      13246.288      0.6517288    
  50201600   292.02791      0.48150157    -39219917       1.8497483      869.60925     -39219047       674.59311      674.59311      674.59311      2162.7034      2837.2966      2162.7034      2837.2966      2162.7034      2837.2966      3.0699105e+08  0.5            25305800       6.9416011      6626.9153      13253.839      0.63656622   
  50201800   300.63356      0.60055935    -39219922       1.8497483      895.2354      -39219027       674.59311      674.59311      674.59311      2162.7034      2837.2966      2162.7034      2837.2966      2162.7034      2837.2966      3.0699105e+08  0.5            25305900       6.9566905      6627.1477      13254.294      0.6214039    
  50202000   308.99661      0.81662958    -39219926       1.8497483      920.13913     -39219006       674.59311      674.59311      674.59311      2162.7034      2837.2966      2162.7034      2837.2966      2162.7034      2837.2966      3.0699105e+08  0.5            25306000       6.9718082      6614.7926      13229.553      0.60624436   
  50202200   298.71403      1.1741697     -39219930       1.8497483      889.51938     -39219040       674.59311      674.59311      674.59311      2162.7034      2837.2966      2162.7034      2837.2966      2162.7034      2837.2966      3.0699105e+08  0.5            25306100       6.9869         6626.045       13252.081      0.59108282   
  50202400   286.8027       1.5899168     -39219933       1.8497483      854.04946     -39219079       674.59311      674.59311      674.59311      2162.7034      2837.2966      2162.7034      2837.2966      2162.7034      2837.2966      3.0699105e+08  0.5            25306200       7.0019754      6633.3839      13266.788      0.57592022   
  50202600   296.52028      1.9441342     -39219937       1.8497483      882.98677     -39219054       674.59311      674.59311      674.59311      2162.7034      2837.2966      2162.7034      2837.2966      2162.7034      2837.2966      3.0699105e+08  0.5            25306300       7.0170543      6631.809       13263.607      0.56075827   
  50202800   303.72534      2.1546119     -39219941       1.8497483      904.44219     -39219037       674.59311      674.59311      674.59311      2162.7034      2837.2966      2162.7034      2837.2966      2162.7034      2837.2966      3.0699105e+08  0.5            25306400       7.0321463      6626.0038      13252.043      0.5455977    
  50203000   302.67986      2.2062914     -39219946       1.8497483      901.32892     -39219045       674.59311      674.59311      674.59311      2162.7034      2837.2966      2162.7034      2837.2966      2162.7034      2837.2966      3.0699105e+08  0.5            25306500       7.0472603      6616.3752      13232.738      0.53043909   
  50203200   296.56053      2.1795494     -39219952       1.8497483      883.1066      -39219069       674.59311      674.59311      674.59311      2162.7034      2837.2966      2162.7034      2837.2966      2162.7034      2837.2966      3.0699105e+08  0.5            25306600       7.0623605      6622.4534      13244.921      0.51527966   
  50203400   286.33047      2.1442859     -39219958       1.8497483      852.64325     -39219105       674.59311      674.59311      674.59311      2162.7034      2837.2966      2162.7034      2837.2966      2162.7034      2837.2966      3.0699105e+08  0.5            25306700       7.0774575      6623.7983      13247.568      0.50012027   
  50203600   283.4347       2.0808434     -39219964       1.8497483      844.02015     -39219120       674.59311      674.59311      674.59311      2162.7034      2837.2966      2162.7034      2837.2966      2162.7034      2837.2966      3.0699105e+08  0.5            25306800       7.0925307      6634.279       13268.541      0.48495951   
  50203800   305.7399       1.9842428     -39219970       1.8497483      910.44121     -39219060       674.59311      674.59311      674.59311      2162.7034      2837.2966      2162.7034      2837.2966      2162.7034      2837.2966      3.0699105e+08  0.5            25306900       7.107621       6626.7511      13253.515      0.46980025   
  50204000   308.62342      1.8730715     -39219977       1.8497483      919.02786     -39219058       674.59311      674.59311      674.59311      2162.7034      2837.2966      2162.7034      2837.2966      2162.7034      2837.2966      3.0699105e+08  0.5            25307000       7.122728       6619.4992      13239.01       0.45464234   
  50204200   297.5215       1.7695233     -39219983       1.8497483      885.96823     -39219097       674.59311      674.59311      674.59311      2162.7034      2837.2966      2162.7034      2837.2966      2162.7034      2837.2966      3.0699105e+08  0.5            25307100       7.1378326      6620.5282      13241.087      0.43948449   
  50204400   294.31866      1.6675298     -39219989       1.8497483      876.43071     -39219112       674.59311      674.59311      674.59311      2162.7034      2837.2966      2162.7034      2837.2966      2162.7034      2837.2966      3.0699105e+08  0.5            25307200       7.1529175      6629.1488      13258.263      0.42432573   
  50204600   301.68651      1.9927353     -39212616       1.8497483      898.37092     -39211718       674.59311      674.59311      674.59311      2162.7034      2837.2966      2162.7034      2837.2966      2162.7034      2837.2966      3.0699105e+08  0.5            25307300       7.1680372      6613.8756      13227.748      0.40916925   
  50204800   316.97298      1.8449209     -39212622       1.8497483      943.8914      -39211679       674.59311      674.59311      674.59311      2162.7034      2837.2966      2162.7034      2837.2966      2162.7034      2837.2966      3.0699105e+08  0.5            25307400       7.1831304      6625.473       13250.944      0.39401148   
  50205000   320.68976      1.6851174     -39212628       1.8497483      954.95936     -39211673       674.59311      674.59311      674.59311      2162.7034      2837.2966      2162.7034      2837.2966      2162.7034      2837.2966      3.0699105e+08  0.5            25307500       7.198223       6625.7619      13251.547      0.37885394   
  50205200   299.43036      1.5799539     -39212633       1.8497483      891.65248     -39211742       674.59311      674.59311      674.59311      2162.7034      2837.2966      2162.7034      2837.2966      2162.7034      2837.2966      3.0699105e+08  0.5            25307600       7.2133138      6626.5684      13253.139      0.36369659   
  50205400   294.86218      1.5505755     -39212637       1.8497483      878.04921     -39211759       674.59311      674.59311      674.59311      2162.7034      2837.2966      2162.7034      2837.2966      2162.7034      2837.2966      3.0699105e+08  0.5            25307700       7.2284217      6619.0628      13238.133      0.34854034   
  50205600   299.76242      1.5798409     -39212640       1.8497483      892.64129     -39211748       674.59311      674.59311      674.59311      2162.7034      2837.2966      2162.7034      2837.2966      2162.7034      2837.2966      3.0699105e+08  0.5            25307800       7.2435073      6628.828       13257.598      0.33338327   
  50205800   308.25127      1.6178686     -39212643       1.8497483      917.91964     -39211725       674.59311      674.59311      674.59311      2162.7034      2837.2966      2162.7034      2837.2966      2162.7034      2837.2966      3.0699105e+08  0.5            25307900       7.2585897      6630.2586      13260.523      0.31822635   
  50206000   303.20805      1.5496687     -39212645       1.8497483      902.9018      -39211742       674.59311      674.59311      674.59311      2162.7034      2837.2966      2162.7034      2837.2966      2162.7034      2837.2966      3.0699105e+08  0.5            25308000       7.2737316      6604.2093      13208.469      0.30307223   
  50206200   287.60478      1.3218866     -39212647       1.8497483      856.43792     -39211791       674.59311      674.59311      674.59311      2162.7034      2837.2966      2162.7034      2837.2966      2162.7034      2837.2966      3.0699105e+08  0.5            25308100       7.2888276      6624.2353      13248.467      0.28791634   
  50206400   294.45149      0.95600576    -39212649       1.8497483      876.82625     -39211773       674.59311      674.59311      674.59311      2162.7034      2837.2966      2162.7034      2837.2966      2162.7034      2837.2966      3.0699105e+08  0.5            25308200       7.3039211      6625.3681      13250.691      0.27276061   
  50206600   305.24363      0.6808087     -39212284       1.8497483      908.96342     -39211375       674.59311      674.59311      674.59311      2162.7034      2837.2966      2162.7034      2837.2966      2162.7034      2837.2966      3.0699105e+08  0.5            25308300       7.3190106      6627.0985      13254.222      0.257605     
  50206800   303.78825      0.80800332    -39204909       1.8497483      904.62953     -39204004       674.59311      674.59311      674.59311      2162.7034      2837.2966      2162.7034      2837.2966      2162.7034      2837.2966      3.0699105e+08  0.5            25308400       7.334098       6628.0508      13256.131      0.24244959   
  50207000   298.84401      0.64903898    -39204911       1.8497483      889.90643     -39204021       674.59311      674.59311      674.59311      2162.7034      2837.2966      2162.7034      2837.2966      2162.7034      2837.2966      3.0699105e+08  0.5            25308500       7.349213       6615.9667      13231.912      0.22729531   
  50207200   296.67691      0.63610024    -39204912       1.8497483      883.45316     -39204029       674.59311      674.59311      674.59311      2162.7034      2837.2966      2162.7034      2837.2966      2162.7034      2837.2966      3.0699105e+08  0.5            25308600       7.3643263      6616.7022      13233.415      0.21214114   
  50207400   303.37054      0.6996176     -39204914       1.8497483      903.38566     -39204011       674.59311      674.59311      674.59311      2162.7034      2837.2966      2162.7034      2837.2966      2162.7034      2837.2966      3.0699105e+08  0.5            25308700       7.379432       6619.9712      13239.934      0.19698694   
  50207600   316.06091      0.82726251    -39204917       1.8497483      941.17542     -39203975       674.59311      674.59311      674.59311      2162.7034      2837.2966      2162.7034      2837.2966      2162.7034      2837.2966      3.0699105e+08  0.5            25308800       7.3945148      6630.0832      13260.154      0.18183238   
  50207800   302.12693      1.0212931     -39204920       1.8497483      899.68242     -39204020       674.59311      674.59311      674.59311      2162.7034      2837.2966      2162.7034      2837.2966      2162.7034      2837.2966      3.0699105e+08  0.5            25308900       7.4095992      6629.3993      13258.792      0.16667814   
  50208000   293.47593      1.2540704     -39204924       1.8497483      873.92121     -39204050       674.59311      674.59311      674.59311      2162.7034      2837.2966      2162.7034      2837.2966      2162.7034      2837.2966      3.0699105e+08  0.5            25309000       7.4246903      6626.3792      13252.78       0.15152433   
  50208200   299.15852      1.4982342     -39204928       1.8497483      890.84299     -39204037       674.59311      674.59311      674.59311      2162.7034      2837.2966      2162.7034      2837.2966      2162.7034      2837.2966      3.0699105e+08  0.5            25309100       7.4397946      6620.6492      13241.293      0.13637102   
  50208400   308.40762      1.7084125     -39204932       1.8497483      918.38524     -39204014       674.59311      674.59311      674.59311      2162.7034      2837.2966      2162.7034      2837.2966      2162.7034      2837.2966      3.0699105e+08  0.5            25309200       7.4548742      6631.4981      13262.99       0.1212175    
  50208600   304.48794      1.8810816     -39204937       1.8497483      906.7131      -39204030       674.59311      674.59311      674.59311      2162.7034      2837.2966      2162.7034      2837.2966      2162.7034      2837.2966      3.0699105e+08  0.5            25309300       7.4700015      6610.5427      13221.1        0.10606496   
  50208800   288.13896      2.2954027     -39204204       1.8497483      858.02863     -39203346       674.59311      674.59311      674.59311      2162.7034      2837.2966      2162.7034      2837.2966      2162.7034      2837.2966      3.0699105e+08  0.5            25309400       7.4850666      6637.872       13275.694      0.090911764  
  50209000   295.54702      2.4330038     -39204208       1.8497483      880.08857     -39203328       674.59311      674.59311      674.59311      2162.7034      2837.2966      2162.7034      2837.2966      2162.7034      2837.2966      3.0699105e+08  0.5            25309500       7.5001509      6629.4063      13258.869      0.075759119  
  50209200   308.77009      2.5335783     -39204213       1.8497483      919.4646      -39203294       674.59311      674.59311      674.59311      2162.7034      2837.2966      2162.7034      2837.2966      2162.7034      2837.2966      3.0699105e+08  0.5            25309600       7.5152204      6635.9216      13271.839      0.060606632  
  50209400   305.23772      2.6264428     -39204218       1.8497483      908.9458      -39203309       674.59311      674.59311      674.59311      2162.7034      2837.2966      2162.7034      2837.2966      2162.7034      2837.2966      3.0699105e+08  0.5            25309700       7.5305376      6528.5909      13057.169      0.045455973  
  50209600   296.38048      2.7694591     -39204223       1.8497483      882.57047     -39203341       674.59311      674.59311      674.59311      2162.7034      2837.2966      2162.7034      2837.2966      2162.7034      2837.2966      3.0699105e+08  0.5            25309800       7.5456182      6631.0416      13262.07       0.030303696  
  50209800   298.35236      2.9714298     -39204229       1.8497483      888.4424      -39203340       674.59311      674.59311      674.59311      2162.7034      2837.2966      2162.7034      2837.2966      2162.7034      2837.2966      3.0699105e+08  0.5            25309900       7.560667       6645.0512      13290.135      0.015151641  
  50210000   302.07309      3.190437      -39204234       1.8497483      899.52208     -39203334       674.59311      674.59311      674.59311      2162.7034      2837.2966      2162.7034      2837.2966      2162.7034      2837.2966      3.0699105e+08  0.5            25310000       7.5757975      6609.1971      13218.364      0            
Loop time of 7.57581 on 4 procs for 100000 steps with 1000 atoms

Performance: 570.236 ns/day, 0.042 hours/ns, 13199.902 timesteps/s
99.9% CPU use with 4 MPI tasks x 1 OpenMP threads

MPI task timing breakdown:
Section |  min time  |  avg time  |  max time  |%varavg| %total
---------------------------------------------------------------
Pair    | 3.9508     | 4.4052     | 5.0753     |  20.5 | 58.15
Neigh   | 0.0025161  | 0.0027686  | 0.0031357  |   0.4 |  0.04
Comm    | 1.5818     | 2.2043     | 2.635      |  26.9 | 29.10
Output  | 0.02638    | 0.027561   | 0.030981   |   1.2 |  0.36
Modify  | 0.61398    | 0.63646    | 0.67287    |   2.9 |  8.40
Other   |            | 0.2995     |            |       |  3.95

Nlocal:            250 ave         282 max         229 min
Histogram: 1 1 0 0 1 0 0 0 0 1
Nghost:         735.25 ave         748 max         721 min
Histogram: 1 0 0 0 1 0 0 1 0 1
Neighs:        1706.25 ave        1951 max        1541 min
Histogram: 1 1 0 0 1 0 0 0 0 1

Total # of neighbors = 6825
Ave neighs/atom = 6.825
Neighbor list builds = 15
Dangerous builds = 0

# run_style
run_style verlet


Total wall time: 0:00:07
