ITEM: TIMESTEP
50200000
ITEM: NUMBER OF ATOMS
1000
ITEM: BOX BOUNDS pp pp pp
2.1875731967102306e+03 2.8124268032899158e+03
2.1875731967102306e+03 2.8124268032899158e+03
2.1875731967102306e+03 2.8124268032899158e+03
ITEM: ATOMS type x y z ix iy iz c_vor[1] c_vor[2]
1 2569.61 2205.46 2409.11 0 -1 0 164158 14
1 2210.27 2193.9 2409.43 0 0 0 266016 11
1 2254.54 2248.21 2723.82 0 0 -1 264989 12
1 2201.12 2602.68 2252.64 0 0 0 203308 12
1 2454.03 2683.1 2460.23 0 -1 0 146453 14
1 2550.54 2762.46 2346.15 0 0 0 192482 14
1 2525.87 2228.49 2315.95 0 0 0 176055 16
1 2631.28 2441.48 2468.82 0 1 0 165641 12
1 2637.28 2501.15 2192.26 0 -1 1 202068 10
1 2287.71 2594.77 2497.64 0 0 0 221419 10
1 2356 2700.96 2466.77 0 0 0 251612 12
1 2634.68 2745.4 2441.84 -1 -1 0 220501 10
1 2611.58 2493.25 2389.12 -2 -1 0 166497 12
1 2242.31 2761.09 2474.93 0 -1 -1 279444 12
1 2334.78 2326.66 2559.85 -1 0 -1 154811 15
1 2721 2721.99 2731.14 0 0 -2 226712 10
1 2269.05 2548.75 2657.65 -1 -1 -1 173737 13
1 2501.42 2571.35 2455.85 0 0 0 182994 13
1 2753.76 2678.47 2804.81 -1 -1 0 212720 13
1 2524.45 2219.72 2457.67 -1 1 0 173089 12
1 2499.62 2597.28 2675.43 0 -1 -1 148074 14
1 2500.43 2579.31 2266.28 0 -1 0 207675 12
1 2781.21 2577.07 2642.22 0 -1 0 197710 11
1 2484.72 2540.67 2371.22 0 -1 0 170175 11
1 2580.01 2424.68 2459.86 0 0 -1 144342 13
1 2616.16 2460.88 2634.09 -2 -2 0 215449 10
1 2303.3 2443.43 2359.67 0 0 0 210699 11
1 2318.01 2595.09 2627.54 0 -1 -1 147473 13
1 2597.83 2306.3 2440.02 0 0 0 190867 12
1 2308.31 2586.03 2335.21 0 -1 0 246406 12
1 2766.25 2379.53 2395.4 -1 0 0 185739 14
1 2583.65 2387.94 2498.15 -1 1 -1 133522 12
1 2209.88 2323.09 2593.79 -1 1 0 151233 10
1 2448.01 2549.67 2585.92 0 0 -1 140885 15
1 2191.87 2712.68 2395.53 0 -1 0 281339 10
1 2567.52 2235.02 2763.79 0 0 -1 244299 11
1 2394.94 2465.42 2531.52 -1 -1 -1 151795 14
1 2767.68 2381.73 2613.2 -1 0 0 137250 14
1 2553.08 2341.58 2376.85 0 0 0 218029 14
1 2601.11 2488.09 2490.14 0 1 -1 200598 14
1 2620.3 2392.43 2447.73 -1 0 0 146673 13
1 2522.71 2365.12 2644.65 -1 0 -1 278735 12
1 2619.53 2766.65 2738.02 -1 -1 0 195466 12
1 2331.83 2329.7 2304.73 -1 0 -1 185530 11
1 2464.17 2285.19 2522.31 -1 0 0 172075 14
1 2245.93 2458.54 2452.86 -1 0 0 240582 12
1 2378.48 2553.22 2743.72 0 0 -1 213868 12
1 2485.37 2453.47 2487.57 0 -1 -1 151621 13
1 2561.92 2230.91 2555.9 -1 0 0 181166 12
1 2353.36 2191.25 2652.43 0 0 0 210376 14
1 2272.05 2503.66 2629.25 -1 -1 -1 201677 13
1 2288.94 2755.5 2627.98 0 0 -1 208421 12
1 2600.75 2787.73 2320.98 0 -1 0 223439 15
1 2561.19 2651.23 2627.51 0 0 -1 205672 15
1 2432.85 2504.09 2561.44 0 1 -1 125649 13
1 2416.01 2511.98 2511.91 0 0 0 174100 14
1 2332.47 2265.66 2383.79 0 0 0 266623 12
1 2367.54 2368.29 2303.48 0 0 0 233112 13
1 2545.23 2762.62 2581.58 0 -1 0 176438 14
1 2476.46 2289.67 2294.94 0 0 0 181160 12
1 2811.64 2633.87 2715.34 0 -1 0 224430 11
1 2343.93 2288.92 2615.96 -1 0 -1 136853 13
1 2463.99 2656.04 2586.81 0 -1 0 190497 15
1 2547.36 2614.83 2337.63 -1 -1 0 182073 12
1 2749.95 2680.06 2234.66 -1 0 0 188859 10
1 2258.38 2535.96 2399.91 0 0 0 200093 11
1 2700.03 2490.49 2789.54 -1 0 -1 201653 13
1 2640.05 2327.36 2322.02 0 0 0 161763 13
1 2598.67 2358.84 2541.36 0 -1 -1 186027 13
1 2791.53 2473.49 2662.21 -1 -1 0 182563 10
1 2553.12 2390.83 2540.79 0 -1 0 175414 14
1 2354.17 2508.39 2443.13 1 0 0 155477 10
1 2190.3 2410.37 2544.35 0 0 0 191135 10
1 2797.71 2347.05 2425.27 -1 0 1 183332 13
1 2734.95 2596.2 2785.57 -1 0 -1 187793 14
1 2738.4 2728.28 2213.82 0 -1 1 225371 12
1 2712.88 2654.67 2205.56 0 0 0 169402 15
1 2263.33 2792.68 2657.73 1 0 -1 186233 13
1 2785.7 2453.22 2557.48 -1 0 0 188139 14
1 2496.53 2633.04 2714.33 1 0 0 158077 13
1 2305.58 2543.84 2617.18 0 0 -1 150199 12
1 2548.37 2407.32 2412.88 0 0 0 211612 15
1 2406.36 2619.88 2712.29 0 -1 -1 149216 14
1 2466.38 2653.17 2640.11 0 -1 0 149215 12
1 2240.07 2292.74 2451.45 0 0 0 245424 12
1 2327.51 2371.9 2531.17 0 0 -1 167093 15
1 2773.38 2402.61 2291.77 0 -1 -1 176012 13
1 2528.32 2675.05 2719.61 -1 0 -1 179796 12
1 2742.78 2273.57 2588.43 0 0 -1 168886 12
1 2365.91 2367.18 2357.23 0 0 0 238118 12
1 2511.91 2465.69 2330.09 0 1 0 233158 13
1 2542.9 2423.36 2497.88 1 0 -1 130803 12
1 2583.13 2288.72 2545.78 1 -1 0 210786 16
1 2427.32 2236.3 2597.64 0 0 0 169180 11
1 2511.14 2518.29 2777.79 0 0 -1 292413 11
1 2218.17 2404.67 2223.29 0 0 0 229443 12
1 2282.41 2340.49 2290.08 0 0 1 179464 9
1 2342.03 2436.28 2256.53 0 0 0 246830 13
1 2213.09 2338.4 2459.07 1 0 0 236925 11
1 2668.22 2360.95 2218.11 0 0 0 208337 13
1 2551.99 2447.68 2359.76 0 -1 -1 173379 13
1 2421.19 2740.25 2488.74 -1 -1 0 153045 13
1 2630.67 2409.38 2339.54 0 -1 -1 151645 15
1 2625.74 2673.91 2230.88 0 -1 -1 202504 12
1 2461.31 2478.96 2264.68 0 0 0 252820 12
1 2191.9 2378.01 2376.58 1 0 -1 193680 10
1 2349.97 2357.59 2602.56 1 -1 0 149569 14
1 2780.22 2552.44 2370.49 0 0 0 286167 13
1 2570.61 2467.03 2606.76 1 0 -1 196400 14
1 2646.11 2244.66 2383.6 0 1 0 184374 12
1 2756.92 2329.63 2615.71 -1 -1 0 146411 14
1 2347.28 2556.47 2649.3 0 0 -1 121040 12
1 2541.51 2705.39 2762.27 0 -1 -1 212843 15
1 2580.32 2603.59 2284.5 0 0 -1 185419 11
1 2292.07 2305.07 2535.32 1 0 -1 205052 14
1 2714.73 2446.84 2630.54 0 0 -1 187659 11
1 2357.82 2389.3 2416.41 1 0 0 219989 11
1 2409.73 2615.93 2627.62 1 -1 -1 174179 16
1 2525.38 2626.36 2493.39 0 0 0 188292 13
1 2772.84 2429.1 2640.22 0 -1 0 162555 13
1 2762.52 2277.92 2412.48 0 1 0 224183 12
1 2359.93 2669.07 2735.32 1 -1 -1 193689 11
1 2212.75 2366.91 2677.44 1 1 -1 182800 11
1 2291.85 2275.3 2581.13 1 0 0 157167 14
1 2697.13 2491.3 2734.41 0 -1 0 172881 11
1 2697.61 2353.35 2268.81 0 0 0 153638 14
1 2604.45 2453.92 2354 0 -1 0 154782 11
1 2462.54 2496.77 2391.91 0 0 0 177319 14
1 2803.95 2550.07 2725.83 -1 -1 0 201865 14
1 2541.69 2766.5 2215.74 0 -1 0 249232 14
1 2695.18 2303.33 2582.31 -1 0 -1 192449 14
1 2481.31 2462.99 2585.43 0 0 0 147713 14
1 2514.99 2647.85 2665.68 0 -1 0 141387 13
1 2564.55 2660.94 2680.4 -1 -1 -1 148306 12
1 2392.55 2266.95 2624.82 0 0 0 175312 13
1 2193.58 2399.67 2640.25 0 0 -1 160905 13
1 2503.94 2787.66 2527.53 0 0 -1 140492 14
1 2429.39 2456.54 2698.25 -1 -1 -1 259415 12
1 2294.27 2403.23 2560.24 0 -1 0 175394 11
1 2406.2 2258.79 2234.25 1 -1 0 200315 10
1 2711.64 2643.82 2465.82 0 0 -1 234502 11
1 2498.86 2783.38 2599.69 0 -1 0 186027 13
1 2303.64 2322.43 2602.99 0 0 -1 131501 13
1 2799.26 2429.01 2385.57 0 0 0 215945 11
1 2481.39 2685.47 2680.05 0 0 -1 160659 12
1 2228.34 2612.96 2590.5 0 0 0 265803 12
1 2494.44 2613.73 2225.01 0 -1 0 203635 11
1 2410.2 2395.91 2456.12 0 0 0 193148 12
1 2390.7 2542.69 2365.19 0 -1 0 167757 12
1 2371.99 2197.65 2809.13 0 0 -1 270187 11
1 2561.68 2722.78 2380.1 0 0 1 203263 11
1 2451 2776.27 2577.28 0 -1 -1 158436 12
1 2580.23 2729.89 2554.8 -1 0 0 170397 10
1 2380.03 2253.57 2189.25 0 1 0 219881 11
1 2285.57 2498.94 2348.46 -1 0 0 173864 13
1 2448.02 2264.18 2426.45 0 0 0 188935 13
1 2762.68 2362.38 2250.13 -1 1 0 164967 12
1 2372.05 2381.7 2560.27 0 0 0 123932 11
1 2312.02 2635.95 2759.07 0 0 -1 205981 14
1 2619.53 2273 2652.16 -1 1 0 222390 11
1 2764.04 2396.75 2560.5 -1 0 0 174777 13
1 2532.27 2801.26 2313.84 -1 0 0 153869 13
1 2365.14 2545.64 2478.78 0 -1 -1 163583 14
1 2298.81 2375.16 2606.52 0 0 -1 156908 15
1 2239.96 2585.1 2286.15 0 0 0 231485 10
1 2340.06 2589.78 2496.47 0 1 -2 177256 11
1 2710.73 2351.8 2599.67 -1 0 -1 175620 14
1 2586.32 2537.49 2535.98 0 0 0 205047 15
1 2535.78 2558.76 2676.79 -1 -1 0 188038 12
1 2753.11 2320.29 2216.26 -1 0 0 235693 12
1 2399.71 2630.68 2208.44 0 -1 0 252156 11
1 2454.97 2806.15 2516.37 0 0 0 168591 13
1 2242.78 2732.16 2639.79 0 -1 -1 236473 14
1 2609.45 2662.14 2709.4 -1 0 -1 190554 12
1 2222.24 2452.71 2554.37 0 1 0 209943 13
1 2467.44 2596.29 2515.58 1 1 -1 178015 15
1 2308.15 2577.86 2679.12 0 0 -1 157071 16
1 2413.11 2294.03 2534.2 0 0 0 168016 13
1 2579.56 2194.52 2672.14 0 1 -1 205625 12
1 2699.79 2341.66 2501.9 -2 0 0 192927 13
1 2475.65 2751.64 2658.97 -1 -1 -1 206205 13
1 2261.55 2663.91 2747.27 0 0 -1 180909 12
1 2451.29 2624.53 2740.62 0 0 0 155332 12
1 2367.37 2496.29 2497.3 0 0 0 160155 13
1 2411 2495.2 2379.97 0 0 0 158743 12
1 2693.2 2258.81 2313.17 -1 1 0 205183 13
1 2488.34 2787.61 2765.3 0 0 -1 241080 14
1 2462.11 2432.54 2238.1 -1 -1 -1 257871 10
1 2456.63 2503.42 2609.45 0 0 0 146720 14
1 2292.13 2245.68 2626.09 0 0 -1 191267 15
1 2616.39 2368.86 2299.68 -1 0 0 174536 12
1 2484.87 2536.94 2677.78 -1 0 0 178134 13
1 2471.63 2760.47 2493.15 -1 -1 0 145384 14
1 2587.79 2648.34 2333.41 0 0 0 207074 10
1 2313.33 2399.52 2487.75 0 1 0 213478 12
1 2350.14 2545.46 2270.96 -1 1 0 216312 14
1 2264.54 2618.35 2800.87 -1 0 0 240679 15
1 2684.58 2349.12 2552.61 -1 -1 -1 172342 12
1 2241.34 2491.98 2318.95 0 0 0 225354 11
1 2480.57 2626.12 2462.34 0 0 0 167803 12
1 2244.36 2506.37 2576.54 1 0 -1 217592 12
1 2370.12 2509.31 2652.98 0 0 0 182040 12
1 2467.09 2674.25 2730.62 -1 -1 -1 141331 13
1 2448.84 2547.28 2639.99 0 0 -1 148976 13
1 2810.55 2564.56 2219.93 -1 0 1 216832 13
1 2448.86 2331.08 2545.28 0 0 0 138270 11
1 2312.67 2516.15 2663.12 0 0 -1 177242 13
1 2623.57 2599.95 2711.7 -1 0 0 192067 13
1 2622.93 2208.42 2416.09 0 0 0 173380 12
1 2481.84 2213.47 2744.16 0 1 -2 210431 11
1 2504.62 2742.27 2245.06 0 0 0 163931 10
1 2499.72 2342.3 2530.38 0 0 0 163062 14
1 2718.92 2392.67 2238.91 0 0 0 188556 15
1 2706.62 2568.63 2686.09 -1 0 -1 210559 13
1 2424.43 2201.28 2556.29 -1 0 -1 190088 15
1 2507.72 2758.64 2433.86 0 -1 0 158258 14
1 2542.49 2563.66 2555.32 -1 0 0 181450 12
1 2337.97 2734.89 2622.91 0 -1 0 216643 13
1 2459.86 2771.62 2254.81 -1 0 0 211482 12
1 2620.81 2546.14 2712.05 -1 0 -1 218941 13
1 2591.74 2307.19 2623.23 -1 0 -1 207917 12
1 2603.05 2583.77 2454.67 -1 0 -1 205008 13
1 2432.79 2298.75 2585.42 0 0 0 173134 13
1 2667.21 2533.74 2786.53 -1 0 0 193939 13
1 2550.71 2608.83 2660.45 0 1 -2 152547 12
1 2393.49 2251.77 2559.45 0 0 0 170983 13
1 2332.92 2332.29 2645.65 1 0 0 164358 11
1 2277.08 2355.63 2543.1 -1 0 0 182325 12
1 2372.83 2230.88 2390.94 0 0 0 194896 11
1 2741.02 2471.3 2760.38 -1 0 0 233972 11
1 2442.14 2711.12 2759.94 0 0 1 226839 14
1 2576.32 2619.88 2381.68 -1 -1 1 196935 14
1 2398.5 2789.66 2490.48 -1 -1 0 213255 15
1 2622.91 2317.44 2220.58 0 0 0 219074 11
1 2517.45 2314.06 2270.5 0 0 1 199738 13
1 2249.17 2759.53 2711.89 1 -1 0 204014 12
1 2606.7 2352.45 2413.24 0 1 0 188000 16
1 2478.4 2743.97 2544.66 0 -1 -1 155840 14
1 2727.17 2752.04 2260.53 -1 -1 0 247300 11
1 2790.85 2244.67 2613.45 -1 0 0 174658 12
1 2635.99 2631.16 2624.03 0 0 0 245361 10
1 2692.36 2550.44 2608.39 -1 0 -1 209434 12
1 2533.63 2397.93 2349.91 -1 -1 0 202758 12
1 2507.71 2198.06 2371.64 -1 0 0 143456 14
1 2343.13 2400.56 2726.14 0 0 -1 312920 11
1 2610.72 2361.65 2352.39 -1 -1 0 145030 13
1 2750.59 2437.18 2592.92 -1 0 0 155196 12
1 2542.16 2645.21 2212.83 -1 0 1 186262 12
1 2749.4 2330.53 2410.37 -1 0 0 171362 14
1 2766.11 2541.17 2603.65 -2 -2 0 195816 13
1 2333.22 2575.44 2726.52 0 -1 -1 163527 11
1 2713.22 2296.45 2427.6 -1 0 0 186153 13
1 2456.32 2434.74 2446.92 -1 0 0 172304 11
1 2641.98 2390.31 2398.67 -1 1 0 151090 12
1 2726.38 2307.57 2261.89 -1 0 0 176777 13
1 2284.16 2353.54 2654.45 1 0 0 192605 13
1 2507.51 2790.85 2267.6 0 -1 2 167222 12
1 2471.57 2596.76 2591.01 -1 0 0 173285 15
1 2321.01 2565.74 2232.14 0 0 0 241811 12
1 2635.54 2498.34 2342.14 0 0 0 204141 11
1 2617.82 2582.32 2403.07 -1 -1 0 202228 11
1 2704.28 2510.58 2510 0 -1 0 207471 10
1 2436.82 2555.9 2534.05 0 0 0 162003 13
1 2417.19 2592.99 2394.88 -1 0 0 215442 14
1 2488.56 2479.8 2440.85 0 0 -1 188727 13
1 2558.29 2190.34 2358.72 0 1 1 129750 12
1 2527.84 2294.62 2528.19 -1 -1 0 172656 14
1 2635.85 2454.53 2310.69 -1 0 0 203748 13
1 2537.86 2574.76 2305.29 -1 0 0 178611 12
1 2774.98 2506.34 2700.9 0 1 0 183575 12
1 2501.59 2468.63 2535.96 0 -1 0 130663 12
1 2526.43 2281.09 2310.86 0 0 0 166254 11
1 2487.77 2563.25 2552.31 -1 0 0 147080 11
1 2743.35 2535.68 2535.71 -1 0 -1 234503 14
1 2585.81 2255.23 2423.09 0 -1 0 195300 14
1 2707.77 2557.76 2809.9 -1 -1 0 187018 12
1 2594.53 2439.11 2509.41 0 0 0 161062 12
1 2495.5 2802.44 2683.43 0 -1 0 211240 13
1 2640.6 2809.94 2713.73 -1 0 0 181953 12
1 2245.69 2403.34 2653.23 0 0 0 192658 12
1 2733.48 2361.09 2450.48 0 1 0 191374 13
1 2255.63 2296.97 2278.9 0 0 1 263835 11
1 2273.97 2193.5 2705.4 0 0 1 230779 13
1 2672.33 2198.29 2466.71 -1 0 0 243674 12
1 2300.85 2204.58 2660.32 -1 1 0 179177 13
1 2585.01 2674.36 2756.32 -1 0 -1 158442 13
1 2534.32 2550.16 2352.22 -1 0 0 181341 14
1 2262.37 2296.57 2625.39 0 0 -1 154708 12
1 2384.68 2397.9 2610.59 0 -1 1 171903 14
1 2272.19 2583.37 2602.23 0 -1 0 186299 13
1 2503.93 2313.92 2484.72 -1 0 0 149942 10
1 2721.92 2394.33 2635.95 0 0 0 193177 13
1 2687.34 2544.51 2546 -1 0 0 206279 12
1 2438.55 2525.72 2347.04 0 -1 1 183052 13
1 2684.4 2387.38 2365.03 -1 0 0 168245 13
1 2448.84 2643.59 2690.05 -1 -1 -1 148330 16
1 2515.56 2427.95 2450.98 -1 -1 1 170708 14
1 2412.53 2212.46 2358.79 0 0 0 204371 13
1 2406.88 2523.76 2617.28 0 0 0 141424 14
1 2383.18 2359.24 2213.65 0 0 1 274494 11
1 2305.89 2288.03 2655.65 0 0 -1 173828 15
1 2463.79 2381.72 2541.76 -1 1 0 169054 15
1 2414.44 2686.93 2497.67 1 0 0 196598 13
1 2518.33 2691.01 2229.92 1 0 0 196697 14
1 2718.6 2294.68 2630.93 0 1 0 160726 11
1 2718.57 2383.89 2524.92 0 0 0 189683 11
1 2757.14 2335.33 2296.27 0 1 0 199591 13
1 2285.42 2651.13 2702.68 0 -1 0 187331 14
1 2659.91 2630.24 2799.47 0 0 -1 168069 14
1 2451.77 2395.67 2490.5 0 1 0 155045 13
1 2421.63 2398.12 2571.37 0 0 0 144757 14
1 2616.9 2709.27 2401.19 0 0 0 231677 11
1 2269.56 2392.06 2281.1 1 0 0 260177 12
1 2568.3 2257.11 2332.28 0 0 0 170100 11
1 2525.95 2275.1 2455.84 -1 0 0 161191 12
1 2574.93 2244.8 2655.33 0 1 -1 193170 11
1 2550.21 2808.63 2507.99 0 0 0 185603 15
1 2794.3 2596.71 2750.42 -1 0 -1 186250 12
1 2442.25 2700.87 2647.7 0 -1 -1 146496 14
1 2378.47 2438.89 2575.98 0 0 0 159741 11
1 2628.64 2524.79 2296.54 0 0 0 234217 11
1 2619.12 2473.91 2686.04 0 0 -1 246277 13
1 2709.37 2642.15 2778 -1 0 -1 157727 11
1 2695.73 2253.65 2603.02 -1 0 -1 214970 14
1 2449.35 2282.95 2249.98 0 1 0 175125 12
1 2380.48 2335.52 2534.74 0 0 0 159168 13
1 2752.79 2348.36 2742.11 0 1 -1 288299 12
1 2416.22 2716.73 2439.41 0 0 0 185300 12
1 2527.57 2267.27 2574.52 0 0 0 180302 12
1 2462.43 2719.27 2265.14 0 0 0 193346 13
1 2590.64 2484.97 2550.99 0 0 0 181669 14
1 2368.18 2590.44 2451.75 0 0 -1 185949 10
1 2379.14 2469.01 2274.98 0 0 0 225663 11
1 2725.94 2559.1 2361.51 0 -1 0 233857 10
1 2345.56 2526.06 2392.17 0 -1 0 149963 12
1 2433.36 2314.52 2310.78 0 -1 0 218133 12
1 2656.12 2791.32 2426.4 0 0 0 187844 10
1 2642.07 2364.69 2580 -1 0 0 225407 12
1 2408.92 2346.5 2577.69 1 0 -1 149650 15
1 2342.14 2433.18 2392.81 -1 0 0 189673 12
1 2456.68 2202.52 2388.35 0 1 0 166606 14
1 2709.21 2670.84 2732.44 0 0 -1 203517 12
1 2692.68 2264.95 2260.99 0 0 0 202051 11
1 2342.34 2704.94 2230.24 0 0 0 320691 12
1 2281.71 2716.81 2709.16 0 1 -1 217077 12
1 2264.6 2672.24 2798.83 1 1 -1 218999 10
1 2443.69 2312.97 2362.03 0 0 0 225652 13
1 2582.04 2673.71 2380.06 0 0 0 190625 11
1 2606.15 2780.04 2540.83 0 -1 0 210687 13
1 2808.49 2320.04 2677.67 -1 1 -1 201110 14
1 2244.57 2471.7 2735.91 0 0 -1 283018 11
1 2510.29 2701.68 2280.83 0 0 0 197224 11
1 2485.2 2300.52 2216.72 0 0 0 230545 11
1 2605.74 2207.86 2536.11 0 0 0 195661 12
1 2540.86 2609.6 2250.92 0 0 0 165148 11
1 2344.66 2245.99 2582.38 -1 0 0 168929 13
1 2280.78 2425.09 2618.43 0 0 0 191367 12
1 2617.13 2631.63 2765.27 0 0 -1 170718 11
1 2192.45 2598.25 2304.74 0 -1 0 232119 11
1 2350.84 2532 2697.99 1 0 -1 175177 12
1 2506.4 2649.95 2261.13 0 0 0 168956 13
1 2643.88 2755.35 2787.73 0 0 -1 213519 11
1 2666.69 2589.19 2248.2 0 0 0 181194 12
1 2785.79 2525.05 2651.49 -1 0 -1 158709 14
1 2680.25 2420.76 2324.26 0 1 0 162727 11
1 2674.08 2724.08 2651.26 0 0 -1 256698 10
1 2381.07 2566.62 2524.66 1 0 0 167412 14
1 2470.67 2648.12 2368.41 1 0 0 242406 13
1 2465.11 2490.78 2659.97 0 0 0 186274 14
1 2495.97 2366.66 2480.91 0 0 0 182736 15
1 2668.53 2414.17 2439.63 0 1 -1 176700 12
1 2343.51 2242.27 2642.67 1 0 -1 148142 12
1 2551.94 2689.39 2577.2 1 0 -1 207742 13
1 2413.42 2375.87 2522.93 0 0 0 157424 13
1 2738.21 2199.73 2343.42 0 1 0 265776 10
1 2400.24 2567.46 2649.07 0 -1 0 141946 15
1 2552.09 2296.1 2414.54 0 0 0 162139 11
1 2458.58 2600.11 2642.01 0 -1 0 139894 13
1 2534.36 2476.74 2494 0 -2 0 183968 14
1 2284.1 2596.36 2733.58 0 -1 0 176595 14
1 2389.77 2609.92 2495.95 0 0 1 185729 13
1 2234.75 2341.37 2636.73 1 0 0 150750 14
1 2785.52 2412.11 2239.18 0 0 0 208957 13
1 2261.56 2491.73 2245.92 0 0 1 284836 13
1 2344.52 2536.8 2338.44 1 0 1 164461 13
1 2683.03 2307.93 2294.34 0 0 1 152861 14
1 2197.06 2742.12 2710.51 1 -1 0 243509 11
1 2317.08 2495.13 2478.6 1 0 0 186222 13
1 2659.52 2580.17 2195.42 -1 0 1 166010 12
1 2662.89 2655.79 2752.38 0 0 0 173958 13
1 2476.76 2531.6 2429.65 1 0 0 169774 12
1 2760.02 2556.05 2687.94 0 -1 0 162897 12
1 2679.51 2410.6 2200.43 0 0 1 206684 11
1 2413.63 2671.7 2735.11 1 -1 -1 157175 12
1 2490.28 2806.96 2475.8 -1 -1 1 144890 12
1 2199.61 2527.2 2810.13 1 0 0 239931 11
1 2199.31 2576.48 2681.03 1 0 0 212032 15
1 2553.31 2192.17 2265.48 -1 -1 1 182738 13
1 2416.98 2221.25 2420.66 1 0 0 186302 12
1 2377.9 2577.87 2696.74 0 -1 0 135356 13
1 2238.03 2622.07 2723.67 1 0 0 182397 13
1 2727.02 2378.2 2306.37 0 -1 0 151540 13
1 2242.46 2558.1 2475.37 1 -1 0 220797 12
1 2527.39 2535.51 2411.51 0 -1 0 171368 13
1 2573.42 2242.35 2269.9 0 1 0 194947 14
1 2673.78 2463.71 2203.92 0 1 1 196762 11
1 2543.08 2239.36 2376.54 0 0 0 160047 13
1 2673.88 2368.34 2315.1 0 0 1 152340 14
1 2809.15 2204.34 2580.47 0 0 0 251240 11
1 2332.18 2701.41 2701.6 0 -1 0 213429 13
1 2364.51 2607.3 2655.05 1 0 0 147037 12
1 2572.56 2528.91 2382.64 0 0 0 169768 13
1 2424.75 2578.39 2740.64 0 0 0 184363 11
1 2530.72 2812.22 2566.29 0 0 0 171748 14
1 2781.68 2289.88 2640.32 0 -1 0 139444 12
1 2517.42 2577.19 2510.27 0 0 0 169055 13
1 2782.17 2479.96 2604.27 0 0 0 190926 15
1 2545.18 2600.19 2452.59 0 0 0 191195 12
1 2476.07 2252.82 2581.46 0 1 1 187543 14
1 2666.42 2456.06 2704.92 0 0 0 225293 12
1 2539.06 2361.74 2279.87 1 0 1 239927 12
1 2551.08 2448.81 2544.16 0 0 0 148776 13
1 2741.91 2696.1 2285.15 -1 -1 1 237160 12
1 2674.65 2221.12 2730.75 0 0 -2 231109 11
1 2485.3 2511.38 2563.8 0 -1 0 144206 15
1 2799.41 2359.42 2576.79 0 1 0 177964 13
1 2192.92 2374.81 2259.55 1 0 1 205171 13
1 2384.43 2491.93 2579.68 1 0 0 150875 14
1 2525.13 2767.74 2483.33 0 -1 0 128234 10
1 2469.24 2373.3 2384.97 1 0 0 259876 13
1 2538.21 2787.61 2714.4 0 -1 0 213737 14
1 2358.7 2604.01 2243.01 1 0 0 233707 11
1 2707.78 2400.77 2474.05 0 -1 1 205221 13
1 2447.79 2469.21 2522.77 0 0 0 157155 14
1 2464.48 2194.26 2281.79 0 0 0 223448 15
1 2512.84 2473.5 2628.63 0 -1 0 188214 14
1 2361.91 2711.23 2581.16 1 -1 0 235128 11
1 2565.95 2522.51 2582.14 0 -1 1 176805 12
1 2337.03 2408.49 2590.25 0 0 1 158400 13
1 2622.16 2219.78 2652.65 0 1 0 215698 14
1 2317.95 2629.23 2667.65 1 0 1 175148 12
1 2489.31 2302.09 2565.26 0 0 0 165678 12
1 2302.04 2542.23 2512.37 1 0 0 192343 14
1 2464.94 2219.21 2447.89 0 0 0 158858 13
1 2382.42 2497.73 2335.25 1 -1 1 170331 12
1 2721.28 2694.77 2474.11 0 0 1 255585 12
1 2673.22 2532.68 2709.12 0 0 0 199968 13
1 2423.27 2748.31 2669.9 0 0 0 166485 13
1 2397.08 2543.87 2569.15 0 0 1 131831 12
1 2377.68 2581.74 2603.35 0 0 0 172023 13
1 2474.52 2199.65 2576 0 1 -1 165371 11
1 2459.87 2381.03 2438.9 0 0 1 195687 13
1 2395.88 2713.22 2622.15 -1 0 0 163244 11
1 2453.85 2243.47 2214.72 -1 0 0 225291 12
1 2301.73 2515.23 2558.88 0 0 0 204754 14
1 2453.99 2625.35 2415.39 0 -1 0 190719 15
1 2440.37 2660.42 2779.03 0 0 0 199386 11
1 2569.71 2757.49 2509.67 -1 0 -1 173546 14
1 2272.57 2459.32 2576.67 0 1 0 198063 13
1 2699.31 2294.98 2478.88 -1 0 0 222399 11
1 2554.74 2344.46 2512.32 0 0 0 164701 13
1 2652.93 2464.29 2595.98 -1 0 -1 234705 12
1 2305.46 2238.5 2545.68 0 0 0 181703 11
1 2574.29 2207.91 2311.53 0 1 0 127632 10
1 2301.58 2546.06 2369.91 0 0 0 178039 12
1 2249.18 2569.02 2702.83 0 0 0 182739 10
1 2430.58 2451.15 2569.78 0 0 -1 150690 14
1 2611.89 2436.91 2418.65 -1 0 0 167050 15
1 2193.76 2297.56 2427.16 0 1 0 203467 11
1 2699.66 2544.83 2461.55 -1 0 0 267211 15
1 2499.97 2693.59 2541.26 -1 0 0 166701 13
1 2708.56 2390.1 2412.44 -1 0 0 200742 13
1 2547 2796.14 2443.86 -1 -1 0 168229 13
1 2475.41 2270.6 2471.76 -1 0 0 172477 12
1 2419.53 2665.83 2614.42 0 0 0 176064 12
1 2410.37 2322.76 2709.15 0 0 0 274068 12
1 2719.27 2343.71 2651.78 -1 0 -1 201393 13
1 2727.69 2199.04 2652.96 -1 1 0 230417 12
1 2523.84 2501.29 2672.3 -1 0 0 210119 13
1 2336.26 2277.09 2296.76 0 0 0 242095 12
1 2480.63 2777.84 2383.54 -1 0 0 181008 15
1 2776.34 2594.41 2271.75 -1 0 1 208773 10
1 2499.24 2810.76 2422.83 0 -1 0 131436 13
1 2499.25 2247.88 2419.2 0 0 0 168440 15
1 2448.08 2677.14 2407.49 0 0 1 179054 11
1 2763.59 2638.18 2770.84 -1 0 0 184536 12
1 2700.98 2459.97 2250.49 0 0 1 233292 14
1 2262.2 2209.32 2556.04 0 1 -1 250896 13
1 2355.73 2532.63 2601.17 -2 -1 0 146697 14
1 2571.65 2638.13 2793.11 0 1 0 209985 12
1 2496.99 2726.34 2382.86 0 0 1 214396 14
1 2358.19 2286.57 2668.38 0 1 0 198265 11
1 2209.71 2293.79 2639.08 1 0 1 168830 13
1 2791.93 2567.2 2794.21 -1 0 0 210514 14
1 2494.36 2668.81 2492.19 -1 1 0 146083 12
1 2639.16 2717.03 2200.84 -1 0 0 194474 13
1 2223.89 2705.78 2269.72 0 0 0 284226 10
1 2664.65 2287.38 2345.25 -1 1 0 168151 11
1 2691.61 2593.97 2381.06 -1 0 0 225825 12
1 2429.27 2393.08 2638.4 0 1 0 220146 12
1 2584.4 2405.85 2367.59 0 0 1 156843 13
1 2418.22 2259.6 2382.63 0 0 0 192040 13
1 2288.65 2634.8 2605.87 1 0 0 230908 11
1 2606.76 2347.3 2473.27 -1 1 0 188244 13
1 2793.07 2245.73 2667.57 -1 1 0 231860 12
1 2745.17 2248.89 2641.84 -1 0 -1 169398 12
1 2438.87 2744.65 2618.67 0 0 0 168217 12
1 2551.88 2322.24 2462.54 -1 0 0 184584 14
1 2437.43 2706.84 2700.82 0 0 0 165912 13
1 2534.65 2781.53 2393.65 -1 0 0 148150 12
1 2235.84 2347.51 2791.87 0 0 0 275289 10
1 2530 2737.15 2537.53 0 -2 0 149039 14
1 2307.5 2220.84 2495.78 -1 1 0 255817 11
1 2354.02 2519.66 2544.97 0 0 0 165276 14
1 2800.39 2418.63 2594.51 -1 0 0 141364 12
1 2586.26 2576.03 2682.6 0 -1 0 178395 10
1 2437.19 2634.49 2494.18 0 1 -1 161628 12
1 2718.01 2426.06 2287.84 -1 0 0 176035 12
1 2744.89 2490.42 2641.37 -1 0 1 159309 13
1 2587.32 2808.29 2724.36 0 -1 0 188020 12
1 2676.37 2213.18 2415.73 -1 0 0 183453 11
1 2467.83 2723.45 2427.79 0 0 1 162533 13
1 2570.35 2261.44 2605.02 0 1 1 193350 13
1 2371.85 2735.43 2663.9 -1 0 0 181456 13
1 2693.49 2760.01 2684.99 0 -1 -1 217638 13
1 2463.46 2656.83 2533.9 0 -1 0 167912 13
1 2505.53 2617.39 2304.07 0 0 1 203794 15
1 2352.06 2622.98 2708.66 0 1 -1 158346 13
1 2311.65 2306.28 2259.79 0 1 1 216559 12
1 2544.25 2383.64 2461.65 0 0 1 176633 16
1 2805.92 2348.02 2630.99 -1 0 0 139268 13
1 2602.69 2269.88 2234.98 0 1 0 204725 10
1 2468.13 2192.78 2335.95 0 1 0 198863 12
1 2538.8 2291.4 2362.47 0 0 0 179401 13
1 2248.21 2513.36 2447.36 0 0 0 185908 13
1 2564.03 2360.42 2327.28 0 -2 0 174138 15
1 2343.27 2500.4 2298.63 0 0 0 180713 12
1 2505.15 2414.9 2534.55 0 0 0 181586 15
1 2792.03 2292.97 2588.05 -1 0 1 179226 12
1 2651.56 2611.24 2506.82 -1 0 1 249176 14
1 2722.55 2517.42 2692.61 0 0 0 157471 13
1 2705.91 2602.35 2214.3 0 0 1 153926 12
1 2726.05 2629.92 2565.47 -1 -1 0 230954 9
1 2420.28 2769.62 2534.7 0 0 0 174755 13
1 2238.86 2493.94 2372.7 0 -1 1 214564 14
1 2444.13 2588.02 2691.7 0 0 0 161814 14
1 2370.56 2407.02 2513.87 0 0 0 187667 15
1 2509.04 2613.65 2625.59 0 0 0 178378 15
1 2666.87 2638.45 2228.4 0 -1 2 174590 12
1 2466.8 2222.71 2687.87 0 1 -1 237405 11
1 2548.78 2700.43 2647.43 0 0 1 213869 14
1 2645.55 2289.41 2259.88 1 -1 0 175763 14
1 2622.47 2546.43 2216.41 0 0 1 219023 13
1 2419.8 2439.01 2487.56 -1 1 0 177692 16
1 2538.05 2513.63 2535.17 0 0 0 155893 14
1 2613.5 2320.54 2577.02 0 0 0 188094 12
1 2640.82 2240.74 2513.13 0 0 0 242259 12
1 2730.35 2541.48 2645.13 0 0 1 151518 12
1 2622.93 2572.14 2273.26 0 1 1 187892 11
1 2688.29 2187.95 2688.57 -1 1 0 196722 12
1 2521.33 2501 2369.37 0 0 0 173134 13
1 2771.13 2368.84 2335.76 0 0 1 183862 13
1 2645.32 2342.51 2263.41 0 0 1 155718 12
1 2365.95 2478.84 2401.5 0 1 0 163376 12
1 2203.44 2520.93 2478 1 0 0 238457 11
1 2616.93 2718.24 2258.52 -1 0 1 258839 14
1 2655.08 2343.75 2375.28 0 0 0 163342 15
1 2604.61 2625.43 2668.26 -1 0 0 163051 12
1 2575.23 2727.06 2607.74 0 -1 0 206430 13
1 2292.92 2447.32 2474.44 -1 0 1 194643 11
1 2218.28 2768.86 2669.78 1 0 0 192009 12
1 2568.1 2570.6 2415.3 0 0 0 149833 13
1 2726.03 2570.91 2572.54 -1 1 0 178943 11
1 2433.37 2541.42 2398.52 0 0 1 149674 13
1 2384.16 2783.91 2681.98 0 0 0 216142 10
1 2631.58 2677.01 2790.65 -1 0 -1 170151 15
1 2458.58 2419.32 2602.7 1 0 0 187053 15
1 2379.41 2301.12 2576.46 0 1 0 145215 12
1 2620.96 2485.68 2440.76 0 1 0 186843 14
1 2335.94 2486.14 2357.54 1 0 0 148045 12
1 2428.49 2723.81 2305.55 0 0 0 250045 11
1 2462.97 2709.68 2505.62 0 0 1 133329 13
1 2752.75 2649.22 2522.57 0 0 0 257800 12
1 2385.34 2546.28 2422.38 0 0 0 163351 13
1 2258.64 2316.59 2575.17 1 1 0 164009 12
1 2378.98 2215.68 2611.16 0 1 0 189815 12
1 2605.99 2214.56 2364.81 0 1 0 182367 13
1 2610.3 2720.7 2766.34 0 -1 0 182168 14
1 2605.68 2534.33 2424.95 0 0 0 181542 14
1 2529.3 2484.25 2578.8 0 1 0 135042 11
1 2668.73 2297.23 2396.48 -1 -1 0 186948 13
1 2527.66 2199.83 2766.17 0 1 0 203318 11
1 2732.34 2569.66 2249.4 -1 0 0 241075 14
1 2509.1 2717.7 2477.81 0 0 1 176262 14
1 2623.23 2657.67 2499.49 0 0 0 252251 12
1 2379.91 2752.44 2455.89 1 -1 0 213795 10
1 2438.53 2348.95 2745.84 0 0 0 272756 11
1 2697.73 2623.9 2338.75 0 0 0 246414 12
1 2606.58 2188.87 2273.45 0 1 0 221539 13
1 2803.71 2410.89 2335.46 0 0 0 189903 12
2 2741.22 2500.97 2392.29 -1 0 0 381455 15
2 2779.44 2382.09 2495.75 -1 0 0 314010 18
2 2807.24 2487.3 2757.37 -1 0 -1 324453 17
2 2739.49 2443.23 2198.21 -1 0 0 299337 15
2 2379.49 2279.92 2752.33 0 0 -1 368985 15
2 2489.24 2808.44 2204.51 0 -1 0 303419 17
2 2754 2722.05 2422.41 -1 -1 0 374633 15
2 2703.41 2256.71 2534.42 0 0 -1 325548 17
2 2562.74 2769.15 2775.13 0 -1 -1 279575 17
2 2428.21 2379.23 2331.6 0 0 0 322714 15
2 2772.83 2411.63 2756.23 -1 0 -1 367807 15
2 2209.27 2403.16 2437.42 0 0 0 316887 15
2 2806.08 2308.87 2257.61 0 0 0 340183 16
2 2237.59 2624.56 2463.37 0 -1 0 382953 15
2 2213.98 2333.31 2526.76 0 0 0 340615 18
2 2730.69 2799.93 2406.52 -1 -1 0 374163 17
2 2445.85 2809.05 2636.79 0 -1 -1 268849 19
2 2400.24 2332.57 2642.93 0 0 -1 272215 17
2 2653.75 2469.52 2528.27 -1 0 -1 298322 17
2 2750.15 2804.08 2509.86 -1 -1 0 430212 15
2 2359.15 2205.96 2453.01 0 0 0 326663 17
2 2759.8 2522.05 2208.5 -1 0 0 326900 17
2 2684.95 2297.03 2202.52 0 0 0 319364 17
2 2772.75 2620.4 2210.47 -1 -1 0 265795 17
2 2239 2255.22 2396.4 0 0 0 354708 14
2 2363.92 2810.85 2742.14 0 -1 -1 376542 17
2 2397.11 2650.91 2442.97 0 -1 0 269005 16
2 2809.99 2236.29 2456.86 -1 0 0 370575 15
2 2506.74 2651.5 2780.54 0 -1 -1 280203 19
2 2352.77 2705.9 2399.52 0 -1 0 395036 16
2 2326.7 2371.43 2248.59 0 0 0 289947 15
2 2214.48 2702.17 2457.73 0 -1 -1 361633 13
2 2765.19 2683.86 2580.32 -1 -1 -1 401040 16
2 2459.9 2347.95 2258.28 0 0 0 324625 18
2 2223.05 2358.5 2318.8 0 0 0 331598 18
2 2726.76 2237.34 2457.33 -1 0 0 334965 16
2 2250.29 2306.46 2691.22 0 0 -1 288461 15
2 2350.35 2278.64 2512.94 0 0 0 306141 19
2 2359.86 2742.4 2520.65 0 -1 0 316470 16
2 2354.12 2647.73 2602.17 0 -1 0 299032 18
2 2222.66 2552.58 2343.53 0 -1 0 315248 18
2 2423.1 2246.59 2298.93 0 0 0 306162 19
2 2791.85 2194.8 2301.95 -1 0 0 402290 15
2 2722.14 2364.91 2800.64 -1 0 -1 316563 16
2 2262.82 2501.45 2803.03 0 0 -1 367399 15
2 2300.64 2378.37 2341.75 0 0 0 319867 18
2 2400.85 2738.07 2246.25 0 -1 0 333942 13
2 2274.9 2297.41 2767.98 0 0 -1 383549 16
2 2249.74 2346.76 2232.02 0 0 0 308181 17
2 2567.57 2218.97 2205.12 0 0 0 324967 16
2 2692.93 2781.33 2748.86 0 -1 -1 308180 16
2 2285.88 2536.61 2291.56 1 0 0 266278 16
2 2352.58 2219.11 2326.78 1 0 0 359523 15
2 2213.64 2262.42 2317.65 1 0 0 394842 13
2 2499.91 2338.99 2334.06 0 0 0 256577 16
2 2629.14 2725.53 2507.83 0 -1 -1 327675 16
2 2210.98 2780.33 2192.67 1 -1 0 430207 15
2 2376.31 2615.07 2772.14 1 0 -1 277565 18
2 2767.67 2305.99 2471.92 0 0 0 311806 18
2 2657.52 2410.1 2263.43 1 0 0 255826 17
2 2409.76 2349.03 2405.66 0 0 0 289026 16
2 2294.89 2688.76 2646.98 1 -1 -1 277050 17
2 2668.61 2187.74 2353.09 1 0 0 325189 17
2 2811.23 2456.79 2495.61 0 -1 -1 309184 14
2 2685.23 2701.46 2247.04 0 -1 0 276319 15
2 2789.99 2228.66 2375.87 0 0 0 337069 15
2 2659.99 2412.84 2653.93 0 0 -1 338526 19
2 2227.72 2414.36 2779.09 1 0 -1 360212 14
2 2742.37 2206.59 2586.22 0 0 -1 315893 15
2 2577.2 2249.48 2490.96 0 0 -1 273517 19
2 2589.31 2648.56 2441.48 1 -1 -1 303308 16
2 2552.15 2298.75 2743.37 0 0 -1 408523 15
2 2286.65 2294.34 2340.73 1 0 0 348926 18
2 2755.1 2433.41 2436.81 0 0 0 332392 17
2 2487.53 2752.15 2319.91 0 -1 0 258939 18
2 2647.97 2262.33 2449.8 0 0 0 256541 16
2 2459.35 2274.58 2644.19 0 0 -1 338161 17
2 2681.68 2252.39 2669.17 0 0 -1 292052 18
2 2327.63 2330.84 2402.23 1 0 0 345844 15
2 2795.54 2770.56 2369.12 0 -1 0 361778 15
2 2438.21 2328.91 2479.27 0 0 0 274246 20
2 2234.87 2189.45 2347.34 1 0 0 386494 13
2 2384.9 2554.55 2208.08 0 0 0 357704 16
2 2803.42 2778.57 2452.67 0 -1 0 379233 16
2 2617.42 2329.8 2704.56 0 0 -1 423855 16
2 2328.18 2329.09 2712.21 1 0 -1 353465 17
2 2425.38 2707.05 2561.59 0 -1 0 253008 20
2 2203.86 2431.3 2699.55 1 0 -1 317074 17
2 2703.37 2224.66 2792.51 0 0 -1 404567 16
2 2194.72 2464.95 2209.81 1 0 0 344794 15
2 2740.27 2427.12 2353.5 0 0 0 289506 16
2 2613.64 2276.52 2792.39 0 0 -1 366455 16
2 2624.2 2769.55 2663.65 0 -1 -1 310149 18
2 2765.85 2468.12 2270.82 0 0 0 333974 17
2 2513.17 2674.35 2425.41 0 -1 0 290755 20
2 2202.88 2289.52 2806.52 1 0 -1 382883 15
2 2678.23 2287.55 2743.61 0 0 -1 394482 15
2 2422.1 2237.67 2497.27 0 0 -1 285214 16
2 2566.56 2368.98 2784.44 0 0 -1 420835 14
2 2759.5 2766.12 2701.78 0 -1 -1 334616 16
2 2665.99 2451.37 2381.26 -1 0 0 280594 18