ITEM: TIMESTEP
0
ITEM: NUMBER OF ATOMS
1000
ITEM: BOX BOUNDS pp pp pp
-1.0000000000000000e+02 4.1000000000000000e+03
-1.0000000000000000e+02 4.1000000000000000e+03
-1.0000000000000000e+02 4.1000000000000000e+03
ITEM: ATOMS type x y z ix iy iz
1 254.566 571.069 152.338 0 0 0
1 620.592 633.703 329.473 0 0 0
1 49.894 784.683 263.68 0 0 0
1 642.059 850.87 944.904 0 0 0
1 86.946 530.27 775.342 0 0 0
1 729.764 21.818 765.191 0 0 0
1 400.546 939.251 539.797 0 0 0
1 766.642 323.163 688.389 0 0 0
1 497.656 740.723 407.186 0 0 0
1 310.114 742.336 534.02 0 0 0
1 191.202 827.842 183.72 0 0 0
1 479.153 710.046 721.408 0 0 0
1 890.552 747.818 775.846 0 0 0
1 544.537 124.195 245.379 0 0 0
1 790.522 295.648 958.372 0 0 0
1 625.071 847.111 6.55 0 0 0
1 341.49 621.318 84.697 0 0 0
1 50.181 396.281 4.638 0 0 0
1 727.497 36.226 395.874 0 0 0
1 292.119 868.603 20.776 0 0 0
1 497.824 334.342 172.703 0 0 0
1 73.402 89.684 467.73 0 0 0
1 802.485 800.808 591.217 0 0 0
1 309.772 926.645 340.219 0 0 0
1 300.744 858.979 696.29 0 0 0
1 19.391 1.908 895.312 0 0 0
1 793.576 621.547 507.297 0 0 0
1 560.119 612.753 223.487 0 0 0
1 587.861 46.458 695.251 0 0 0
1 559.165 766.199 810.135 0 0 0
1 425.639 436.114 613.804 0 0 0
1 578.478 463.876 383.823 0 0 0
1 67.257 423.216 343.935 0 0 0
1 835.338 299.798 253.008 0 0 0
1 1.102 304.982 360.338 0 0 0
1 875.949 181.082 968.3 0 0 0
1 906.485 961.25 446.573 0 0 0
1 772.932 652.24 109.962 0 0 0
1 795.21 196.227 720.135 0 0 0
1 6.828 920.379 608.657 0 0 0
1 375.078 490.96 441.092 0 0 0
1 507.373 463.967 189.697 0 0 0
1 801.036 850.446 263.838 0 0 0
1 450.299 89.349 626.135 0 0 0
1 473.639 402.199 351.004 0 0 0
1 228.382 782.712 836.927 0 0 0
1 122.73 896.456 384.667 0 0 0
1 302.261 499.825 956.091 0 0 0
1 297.82 276.808 679.457 0 0 0
1 813.68 810.762 441.553 0 0 0
1 360.724 391.966 199.917 0 0 0
1 522.356 712.708 571.069 0 0 0
1 738.043 921.362 866.614 0 0 0
1 377.083 797.163 123.514 0 0 0
1 535.207 389.179 468.737 0 0 0
1 536.211 332.151 777.75 0 0 0
1 590.046 299.319 405.976 0 0 0
1 403.872 487.121 772.216 0 0 0
1 212.754 201.158 283.57 0 0 0
1 208.809 310.88 133.031 0 0 0
1 386.323 673.867 825.872 0 0 0
1 777.471 836.738 956.951 0 0 0
1 887.358 369.008 425.656 0 0 0
1 167.376 966.553 11.511 0 0 0
1 398.724 211.076 313.426 0 0 0
1 446.702 4.872 290.026 0 0 0
1 257.769 219.09 922.749 0 0 0
1 688.256 266.274 577.169 0 0 0
1 115.106 292.509 904.902 0 0 0
1 429.929 955.859 941.783 0 0 0
1 479.788 559.937 547.412 0 0 0
1 612.47 167.066 616.206 0 0 0
1 768.283 720.502 762.831 0 0 0
1 741.471 702.46 328.764 0 0 0
1 585.814 917.96 831.057 0 0 0
1 2337.93 847.522 695.355 0 0 0
1 3426.36 1533.16 1535.51 0 0 0
1 2000.41 0.622 1.029 0 0 0
1 3486.97 1452.96 668.746 0 0 0
1 2530.48 451.221 143.414 0 0 0
1 2166.45 5.726 261.039 0 0 0
1 2166.4 572.512 228.164 0 0 0
1 2418.94 677.525 215.494 0 0 0
1 2471.76 644.996 786.783 0 0 0
1 2318.17 858.618 352.657 0 0 0
1 2288.19 651.208 344.107 0 0 0
1 2241.8 998.975 327.078 0 0 0
1 2636.26 682.875 282.076 0 0 0
1 2269.74 671.221 178.164 0 0 0
1 2302.64 509.032 817.051 0 0 0
1 2294.96 675.562 741.027 0 0 0
1 2644.62 452.173 893.76 0 0 0
1 2487.29 920.863 119.29 0 0 0
1 2429.47 511.034 79.226 0 0 0
1 2402.1 650.219 478.761 0 0 0
1 2582.89 784.747 559.678 0 0 0
1 2492.3 598.35 160.59 0 0 0
1 2165.59 419.488 0.842 0 0 0
1 2617.01 849.067 433.125 0 0 0
1 2457.18 463.369 449.267 0 0 0
1 2249.72 472.001 72.817 0 0 0
1 2356.13 249.102 550.739 0 0 0
1 2559.3 842.758 17.486 0 0 0
1 2344.53 505.974 626.898 0 0 0
1 2482.3 320.648 597.293 0 0 0
1 2207.86 120.744 18.612 0 0 0
1 2554.67 466.128 273.38 0 0 0
1 2562.77 898.635 310.632 0 0 0
1 2337.3 359.125 455.273 0 0 0
1 2548.92 170.443 89.559 0 0 0
1 2221.98 177.596 455.92 0 0 0
1 2223.59 340.768 499.001 0 0 0
1 2348.74 996.385 242.42 0 0 0
1 2637.91 347.677 959.309 0 0 0
1 2237.15 383.527 356.296 0 0 0
1 2623.78 799.44 693.475 0 0 0
1 2210.74 264.146 330.892 0 0 0
1 2428.36 285.88 247.072 0 0 0
1 2251.98 436.241 689.743 0 0 0
1 2478.66 178.1 727.966 0 0 0
1 2314.09 115.88 743.637 0 0 0
1 2232.06 104.027 639.617 0 0 0
1 2444.68 402.737 274 0 0 0
1 2512.81 672.781 405.065 0 0 0
1 2499.89 848.965 660.847 0 0 0
1 2389.06 25.606 807.928 0 0 0
1 2000 1430.46 0.606 0 0 0
1 2497.13 895.868 775.787 0 0 0
1 2625.1 338.162 769.614 0 0 0
1 2308.88 370.663 832.007 0 0 0
1 2693.64 908.118 557.622 0 0 0
1 2362.62 620.555 73.555 0 0 0
1 2280.54 0.701 316.508 0 0 0
1 2538.82 251.383 196.635 0 0 0
1 2377.28 179.815 894.681 0 0 0
1 2254.19 785.903 438.245 0 0 0
1 2247.59 883.446 242.686 0 0 0
1 2263.57 888.998 102.219 0 0 0
1 2619.25 151.413 733.356 0 0 0
1 2469.07 298.444 770.645 0 0 0
1 2386.49 499.813 334.011 0 0 0
1 2435.58 340.146 35.153 0 0 0
1 2631.98 803.505 869.258 0 0 0
1 2575.49 451.948 770.825 0 0 0
1 2310.22 420.004 205.742 0 0 0
1 2461.5 776.548 548.056 0 0 0
1 2472.81 138.081 454.016 0 0 0
1 3958.1 727.304 1153.99 0 0 0
1 3823.39 1106.31 715.18 0 0 0
1 2614.53 306.986 469.885 0 0 0
1 264.446 2263.05 260.835 0 0 0
1 716.194 2378.71 886.012 0 0 0
1 1034.3 2404.23 106.806 0 0 0
1 829.462 2194.5 293.493 0 0 0
1 207.12 2377.89 3.731 0 0 0
1 881.857 2270.77 742.306 0 0 0
1 602.117 2147.31 282.104 0 0 0
1 1019.3 2327.11 278.851 0 0 0
1 59.665 2254.14 790.901 0 0 0
1 528.589 2340.55 878.388 0 0 0
1 43.375 2424.37 222.15 0 0 0
1 101.449 2382.17 321.34 0 0 0
1 465.533 2168.39 936.673 0 0 0
1 322.277 2178.52 196.39 0 0 0
1 733.244 2155.72 562.98 0 0 0
1 783.41 2318.5 0.246 0 0 0
1 998.879 2422.97 858.583 0 0 0
1 773.736 2152.83 855.103 0 0 0
1 59.717 2183.45 114.974 0 0 0
1 522.446 2180.06 91.711 0 0 0
1 329.921 2308.74 167.22 0 0 0
1 165.725 2183.31 1.494 0 0 0
1 457.697 2133.86 695.096 0 0 0
1 807.813 2460.51 26.178 0 0 0
1 28.167 2456.37 484.063 0 0 0
1 143.564 2359.13 714.023 0 0 0
1 796.654 2410.05 139.108 0 0 0
1 174.697 2273.85 925.012 0 0 0
1 471.071 2361.8 475.223 0 0 0
1 767.753 2253.67 788.466 0 0 0
1 720.075 2181.45 681.538 0 0 0
1 93.028 2379.2 914.448 0 0 0
1 645.309 2268.86 811.86 0 0 0
1 99.449 2291.71 78.259 0 0 0
1 494.636 2157.07 345.502 0 0 0
1 115.211 2199.81 451.448 0 0 0
1 985.207 2393.78 530.386 0 0 0
1 419.969 2268.83 704.693 0 0 0
1 309.028 2378.34 491.765 0 0 0
1 0.022 2345.09 411.517 0 0 0
1 535.855 2263.46 441.94 0 0 0
1 917.614 2141.98 92.876 0 0 0
1 238.536 2166.16 869.562 0 0 0
1 935.545 2280.62 0.068 0 0 0
1 558.188 2393.12 674.016 0 0 0
1 377.716 2181.3 24.477 0 0 0
1 845.609 2177.88 628.478 0 0 0
1 1.666 2341.48 137.107 0 0 0
1 933.154 2353.35 360.247 0 0 0
1 17.906 2316.23 676.078 0 0 0
1 595.397 2263.81 947.855 0 0 0
1 228.643 2132.28 130.967 0 0 0
1 454.931 2248.48 572.786 0 0 0
1 783.373 2345.05 240.777 0 0 0
1 580.202 2340 564.662 0 0 0
1 653.298 2412.37 441.463 0 0 0
1 848.049 2267.59 104.477 0 0 0
1 879.588 2371.62 474.256 0 0 0
1 395.808 2417.25 577.859 0 0 0
1 5.356 2246.55 212.792 0 0 0
1 564.865 2479.67 800.974 0 0 0
1 890.823 2150.67 809.31 0 0 0
1 946.203 2403.38 199.816 0 0 0
1 245.964 2237.55 429 0 0 0
1 520.438 2140.68 530.051 0 0 0
1 0.19 2445.38 765.222 0 0 0
1 98.236 2314.2 496.503 0 0 0
1 727.987 2289.96 405.675 0 0 0
1 352.787 2238.16 861.247 0 0 0
1 338.228 2282.81 365.123 0 0 0
1 713.742 2314.41 545.473 0 0 0
1 219.49 2514.36 101.698 0 0 0
1 348.22 2330.78 946.859 0 0 0
1 1.007 2275.07 557.085 0 0 0
1 163.868 2309.93 183.922 0 0 0
1 127.723 348.401 2364.74 0 0 0
1 159.21 136.69 2220.05 0 0 0
1 323.889 565.752 2259.09 0 0 0
1 556.22 727.029 2106.36 0 0 0
1 525.192 152.827 2215.32 0 0 0
1 406.226 896.368 2162.01 0 0 0
1 644.738 799.632 2198.25 0 0 0
1 457.938 704.314 2439.07 0 0 0
1 645.775 658.208 2381.16 0 0 0
1 595.349 292.295 2248.46 0 0 0
1 592.184 1033.73 2310.98 0 0 0
1 226.747 933.467 2189.68 0 0 0
1 273.973 31.496 2318.16 0 0 0
1 877.032 671.563 2290.15 0 0 0
1 688.964 285.954 2343.57 0 0 0
1 408.274 484.503 2428.64 0 0 0
1 12.041 400.214 2209.56 0 0 0
1 288.32 906.359 2404.08 0 0 0
1 68.933 793.714 2279.41 0 0 0
1 895.637 301.499 2360.85 0 0 0
1 16.925 536.443 2162.01 0 0 0
1 779.382 843.991 2360.32 0 0 0
1 544.572 620.148 2326.73 0 0 0
1 699.768 483.727 2541.63 0 0 0
1 293.235 422.003 2324.75 0 0 0
1 182.021 416.018 2255.65 0 0 0
1 760.951 0 2477.54 0 0 0
1 642.193 346.555 2134.65 0 0 0
1 581.09 582.549 2125.19 0 0 0
1 0 274.389 2406.25 0 0 0
1 425.828 111.127 2379.64 0 0 0
1 421.781 213.958 2193.05 0 0 0
1 679.498 789.277 2402.28 0 0 0
1 900.484 782.483 2212.47 0 0 0
1 382.713 837.829 2440.53 0 0 0
1 112.001 949.947 2400.79 0 0 0
1 262.787 646.042 2443.08 0 0 0
1 695.407 498.822 2175.34 0 0 0
1 230.127 250.206 2281.23 0 0 0
1 161.172 654.8 2332.53 0 0 0
1 701.39 685.286 2067.6 0 0 0
1 805.432 538.368 2251.41 0 0 0
1 536.119 87.241 2500.43 0 0 0
1 810.743 25.601 2270.79 0 0 0
1 245.249 545.887 2153.96 0 0 0
1 30.134 227.073 2260.2 0 0 0
1 585.349 918.867 2145.56 0 0 0
1 715.489 406.803 2324.46 0 0 0
1 385.046 209.636 2467.82 0 0 0
1 483.004 368.709 2116.43 0 0 0
1 766.446 236.288 2263.28 0 0 0
1 644.193 356.594 2478.25 0 0 0
1 0.001 603.401 2367.17 0 0 0
1 477.875 854.301 2338.54 0 0 0
1 656.386 634.939 2235.89 0 0 0
1 821.943 361.619 2232.84 0 0 0
1 821.733 376.169 2458.12 0 0 0
1 832.099 916.4 2137.96 0 0 0
1 529.212 203.209 2424.59 0 0 0
1 640.289 887.722 2307.03 0 0 0
1 85.428 751.884 2444.98 0 0 0
1 898.484 138.674 2489.35 0 0 0
1 252.902 546.071 2360.3 0 0 0
1 628.1 153.78 2344.61 0 0 0
1 723.823 999.384 2217.39 0 0 0
1 659.392 105.91 2209.7 0 0 0
1 16.88 484.525 2382.34 0 0 0
1 93.486 649.216 2192.53 0 0 0
1 451.939 670.678 2171.61 0 0 0
1 382.378 99.903 2180.75 0 0 0
1 801.386 1012.73 2363.74 0 0 0
1 446.855 473.285 2201.93 0 0 0
1 774.928 157.956 2424.45 0 0 0
1 418.811 0 2297.59 0 0 0
1 798.301 652.102 2410.53 0 0 0
1 2221.11 2318.65 571.959 0 0 0
1 3570.6 2380.83 1645.47 0 0 0
1 2823.62 3999.72 0.449 0 0 0
1 2014.71 3523.35 424.682 0 0 0
1 2028.83 2144.87 1743.61 0 0 0
1 2202.86 3561.61 190.692 0 0 0
1 2000 2000 0 0 0 0
1 2323.68 2306.8 486.804 0 0 0
1 2266.18 2222.75 667.104 0 0 0
1 2355.74 2318.62 216.142 0 0 0
1 2298.01 2429.08 826.862 0 0 0
1 2272.77 2429.65 563.333 0 0 0
1 2214.09 2140.58 901.323 0 0 0
1 2211.38 2252.23 776.207 0 0 0
1 2278.64 2064.05 415.453 0 0 0
1 2403.71 2019.5 427.959 0 0 0
1 2295.12 2344.81 665.829 0 0 0
1 2016.9 2376.96 550.778 0 0 0
1 2000 2382.48 0 0 0 0
1 2475.46 2116.93 424.118 0 0 0
1 2331.89 2121.29 830.193 0 0 0
1 2307.51 2389.62 941.363 0 0 0
1 2150.71 2322.86 867.076 0 0 0
1 2185.87 2437.87 781.826 0 0 0
1 2357.89 2274.16 755.032 0 0 0
1 2406.45 2360.4 23.867 0 0 0
1 2194.54 2426.37 239.369 0 0 0
1 2351.69 2163.96 364.322 0 0 0
1 2309.82 2000 0 0 0 0
1 2423.77 2418.79 370.091 0 0 0
1 2232.41 2060.42 586.115 0 0 0
1 2204.94 2409.55 119.989 0 0 0
1 2000 2210.99 516.089 0 0 0
1 2538.75 4000 1199.85 0 0 0
1 2267.89 2274.72 881.927 0 0 0
1 2106.62 2380.96 465.402 0 0 0
1 3916.91 3879.32 2000 0 0 0
1 2186.2 2432.56 649.078 0 0 0
1 2294.37 2119.4 0 0 0 0
1 2067.73 2274.12 456.677 0 0 0
1 2285.13 2447.6 324.286 0 0 0
1 2333.34 2173.86 524.389 0 0 0
1 2026.59 3981.09 5.566 0 0 0
1 3378.79 4000 533.112 0 0 0
1 2107.09 2355.46 128.184 0 0 0
1 2097.95 2242.24 61.194 0 0 0
1 2380.56 2201.2 632.504 0 0 0
1 2123.72 2253.09 658.627 0 0 0
1 2391.44 2183.18 45.915 0 0 0
1 2462.49 2085.75 163.604 0 0 0
1 2421.58 2224.35 458.689 0 0 0
1 3978.12 2054.91 57.551 0 0 0
1 2160.25 2383.87 0 0 0 0
1 2445.84 2452.6 152.865 0 0 0
1 2901.81 2317.17 779.172 0 0 0
1 2320.7 2451.28 137.762 0 0 0
1 2249.87 2240.19 414.291 0 0 0
1 2403.49 2466.24 596.115 0 0 0
1 2085.56 2257.99 952.028 0 0 0
1 2223.34 2282.5 217.66 0 0 0
1 2115.88 2175.81 341.156 0 0 0
1 2528.28 2388.51 431.684 0 0 0
1 2483.58 2296.78 106.035 0 0 0
1 2000.01 2000.01 115.548 0 0 0
1 2612.05 3913.84 25.384 0 0 0
1 2285.01 2368.11 38.826 0 0 0
1 2653.97 2379.98 1645.68 0 0 0
1 2432.32 2330.46 619.641 0 0 0
1 2514.35 2187.81 227.916 0 0 0
1 2313.04 2096.31 698.567 0 0 0
1 2387.34 2266.29 932.926 0 0 0
1 2220.85 2169.09 532.642 0 0 0
1 2480.81 2219.72 719.07 0 0 0
1 3805.51 3993.85 6.933 0 0 0
1 3362.51 2117.98 1531.97 0 0 0
1 2149.57 924.15 2235.09 0 0 0
1 2387.83 350.606 2188.07 0 0 0
1 2111.08 180.301 2345.49 0 0 0
1 2321.38 252.2 2386.84 0 0 0
1 2432.5 519.663 2377.07 0 0 0
1 2465.18 275.419 2117.86 0 0 0
1 2225.48 422.168 2310.53 0 0 0
1 2348.57 498.993 2140.12 0 0 0
1 2284.69 736.015 2244.22 0 0 0
1 2176.03 782.818 2432.87 0 0 0
1 2226.62 837.226 2337.3 0 0 0
1 2312.91 594.57 2375.36 0 0 0
1 2397.63 603.179 2273.53 0 0 0
1 2148.52 5.353 2459.21 0 0 0
1 2448.99 890.655 2251.3 0 0 0
1 2400.66 387.451 2313.51 0 0 0
1 2157.56 637.75 2175.48 0 0 0
1 2281.64 304.918 2488.68 0 0 0
1 2233.72 204.808 2312 0 0 0
1 2443.87 355.538 2466.26 0 0 0
1 2326.46 10.85 2242.73 0 0 0
1 2479.9 135.87 2480.86 0 0 0
1 2395.95 6.235 2425.37 0 0 0
1 2264.53 983.916 2288.58 0 0 0
1 2399.02 667.315 2468.93 0 0 0
1 2387.18 751.275 2329.08 0 0 0
1 2352.35 97.776 2580.21 0 0 0
1 2532.5 504.143 2443.47 0 0 0
1 2423.84 608.966 2146.99 0 0 0
1 2371.92 1017.34 2238.54 0 0 0
1 2198.72 295.459 2400.66 0 0 0
1 2309.64 939.534 2155.14 0 0 0
1 2154.61 465.955 2178.64 0 0 0
1 2436.39 231.957 2419.18 0 0 0
1 2404.24 159.423 2250.79 0 0 0
1 2075.75 780.926 2280.57 0 0 0
1 2284.07 410.411 2205.31 0 0 0
1 2276.94 415.335 2420.42 0 0 0
1 2105.69 286.443 2477.7 0 0 0
1 2168.71 695.41 2307.9 0 0 0
1 2508.41 700.762 2222.63 0 0 0
1 2266.49 769.567 2553.54 0 0 0
1 2114.74 530.713 2361.2 0 0 0
1 2118.8 365.298 2316.48 0 0 0
1 2374.03 905.074 2381.05 0 0 0
1 2287.96 736.144 2396.75 0 0 0
1 2484.74 679.929 2353.24 0 0 0
1 2331.55 73.545 2347.95 0 0 0
1 2096.85 79.431 2203.24 0 0 0
1 2179.39 962.529 2452.64 0 0 0
1 2410.06 267.067 2305.74 0 0 0
1 2214.57 649.603 2458.77 0 0 0
1 2487.92 449.987 2224.84 0 0 0
1 2310.97 83.328 2466.91 0 0 0
1 2454.33 898.292 2476.7 0 0 0
1 2348.12 494.325 2292.08 0 0 0
1 2212.84 529.285 2445.79 0 0 0
1 2241.86 523.821 2242.15 0 0 0
1 2314.28 663.249 2140.73 0 0 0
1 2481.45 77.196 2201.09 0 0 0
1 2491.96 801.696 2363.03 0 0 0
1 2198.89 91.568 2285.81 0 0 0
1 2300.33 294.616 2262.24 0 0 0
1 2136.1 169.743 2493.79 0 0 0
1 2336.59 852.124 2274.34 0 0 0
1 2517.54 580.385 2276.57 0 0 0
1 2209.37 120.113 2410.95 0 0 0
1 2518.44 230.719 2252.75 0 0 0
1 2223.44 335.003 2125.73 0 0 0
1 2152.11 275.583 2242.38 0 0 0
1 2396.47 740.283 2185.04 0 0 0
1 2118.4 6.995 2324.88 0 0 0
1 2233.59 831.966 2190.18 0 0 0
1 2306.27 198.703 2147.97 0 0 0
1 2186.29 183.289 2168.87 0 0 0
1 229.036 2635.13 2297.66 0 0 0
1 293.427 2466.87 2637.28 0 0 0
1 389.324 2287.21 2513.93 0 0 0
1 106.487 2361.53 2732.61 0 0 0
1 834.538 2325.26 2429.85 0 0 0
1 205.232 2655.27 2478.72 0 0 0
1 132.285 2276.45 2419.07 0 0 0
1 720.39 2423.06 2575.35 0 0 0
1 309.726 2235.7 2284.75 0 0 0
1 478.064 2430.07 2494.98 0 0 0
1 880.819 2228.94 2509.25 0 0 0
1 383.325 2373.13 2426.52 0 0 0
1 421.02 2545.86 2428.01 0 0 0
1 14.454 2681.62 2654.23 0 0 0
1 625.954 2426.16 2664.16 0 0 0
1 775.703 2552.26 2436.05 0 0 0
1 102.546 2597.25 2368.07 0 0 0
1 297.55 2508.88 2306.89 0 0 0
1 4.237 2210.4 2376.56 0 0 0
1 406.108 2224.69 2368.91 0 0 0
1 63.685 2501.03 2459.7 0 0 0
1 817.674 2664.54 2379.27 0 0 0
1 757.285 2725.63 2234.92 0 0 0
1 816.895 2295.02 2273.13 0 0 0
1 419.952 2670.56 2306.87 0 0 0
1 875.844 2693.11 2608.93 0 0 0
1 928.205 2528.62 2639.34 0 0 0
1 176.44 2364.26 2612.49 0 0 0
1 678.636 2229.06 2315.25 0 0 0
1 830.801 2621.07 2696.33 0 0 0
1 934.023 2625.36 2363.91 0 0 0
1 21.579 2655.65 2290.87 0 0 0
1 61.499 2626.8 2496.03 0 0 0
1 845.5 2342.89 2642.33 0 0 0
1 235.848 2264.51 2665.6 0 0 0
1 347.956 2498.22 2530.19 0 0 0
1 658.48 2495.18 2386.25 0 0 0
1 255.081 2336.15 2340.53 0 0 0
1 182.663 2415.52 2468.08 0 0 0
1 663.298 2575.47 2518.7 0 0 0
1 499.676 2370.87 2255.47 0 0 0
1 494.275 2330.2 2404.43 0 0 0
1 822.761 2413.56 2216.26 0 0 0
1 915.295 2475.72 2513.4 0 0 0
1 355.851 2717.79 2643.22 0 0 0
1 711.6 2427.41 2267.41 0 0 0
1 515.028 2189.13 2480.64 0 0 0
1 51.495 2344.49 2488.68 0 0 0
1 4.609 2452.33 2726.62 0 0 0
1 568.791 2293.36 2705.57 0 0 0
1 52.185 2316.19 2335.17 0 0 0
1 1.1 2318.48 2216.69 0 0 0
1 420.608 2615.05 2626.73 0 0 0
1 808.807 2517.67 2314.45 0 0 0
1 153.003 2353.22 2277.61 0 0 0
1 492.371 2471.07 2616.28 0 0 0
1 589.71 2386.22 2476.66 0 0 0
1 42.404 2458.67 2601.13 0 0 0
1 190.103 2532.82 2572.77 0 0 0
1 562.299 2655.45 2684.18 0 0 0
1 526.78 2574.95 2249.8 0 0 0
1 403.389 2344.24 2649.2 0 0 0
1 2.608 2487 2301.92 0 0 0
1 731.232 2275.16 2565.01 0 0 0
1 501.369 2472.43 2349.91 0 0 0
1 108.122 2529.99 2727.03 0 0 0
1 292.374 2452.7 2432.62 0 0 0
1 121.086 2141.55 2513.74 0 0 0
1 715.113 2519.66 2673.57 0 0 0
1 602.027 2323 2341.9 0 0 0
1 182.787 2643.64 2668.61 0 0 0
1 322.407 2613.86 2447.2 0 0 0
1 244.886 2227.5 2416.91 0 0 0
1 50.737 2253.77 2731.36 0 0 0
1 587.244 2185.65 2651.85 0 0 0
1 2000.01 3999.72 3291.36 0 0 0
1 2065.27 2210.16 3985.21 0 0 0
1 2991.1 2079.44 2278.2 0 0 0
1 3966.23 3997.63 2046.92 0 0 0
1 2228.99 2769.57 2139.39 0 0 0
1 2123.78 3746.24 3927.44 0 0 0
1 3131.92 2321.71 3596.37 0 0 0
1 2434.67 3998.15 3904.51 0 0 0
1 2019.57 2389.58 2521.71 0 0 0
1 2641.99 2562.62 3979.58 0 0 0
1 3525.85 2533.85 2124.53 0 0 0
1 2733.28 3999.8 2928.07 0 0 0
1 3998.39 2245.03 2306.48 0 0 0
1 2901.34 2005.92 3536.12 0 0 0
1 2010.78 2370.34 3347.28 0 0 0
1 2661.63 2348.18 3702.82 0 0 0
1 2488.72 2648.31 2781.3 0 0 0
1 2034.13 3411.66 3498.06 0 0 0
1 2437.59 3477.29 2326.06 0 0 0
1 3994.75 2495.8 2973.11 0 0 0
1 2672.45 2092.45 2791.38 0 0 0
1 2231.04 3102.74 2356.2 0 0 0
1 2847.16 2110.08 2008.99 0 0 0
1 2806.44 2765.37 2202.93 0 0 0
1 2856.77 2455.9 3752.94 0 0 0
1 2504.66 2400.64 2500.33 0 0 0
1 2269.13 3173.91 3514.73 0 0 0
1 2950.39 2655.57 2555.64 0 0 0
1 3134.22 3997.61 2571.04 0 0 0
1 2236.52 3999.59 2845.24 0 0 0
1 2300.99 2120.11 2226.18 0 0 0
1 3237.8 2216.96 3997.3 0 0 0
1 3298.45 2735.05 3999.36 0 0 0
1 2929.7 2395.1 2860.85 0 0 0
1 3997.6 2393.22 2255.08 0 0 0
1 2411.54 2773.6 3942.64 0 0 0
1 2701.33 2402.03 3998.08 0 0 0
1 2685.77 2780.26 2333.64 0 0 0
1 2391.4 3999.35 3746.07 0 0 0
1 2663.98 3268.19 3736.86 0 0 0
1 2568.57 2420.23 2738.05 0 0 0
1 2361.49 3413.7 2569.04 0 0 0
1 2614.18 2501.63 2534.18 0 0 0
1 3631.5 2430.19 2419.24 0 0 0
1 2243.28 2348.07 2532.79 0 0 0
1 3002.99 2261.12 3999.67 0 0 0
1 2484.44 3914.96 3759.47 0 0 0
1 3912.07 2115.09 2519.45 0 0 0
1 2583.82 2250 2505.93 0 0 0
1 2795.14 2177.48 2519.49 0 0 0
1 2680.08 3266.27 3299.38 0 0 0
1 2056.52 3999.43 2511.24 0 0 0
1 2894.14 2851.01 3687.14 0 0 0
1 2239.97 2230.09 3998.81 0 0 0
1 2300.38 2711.8 2482.9 0 0 0
1 2107.55 2845.77 2286.29 0 0 0
1 3443.13 2300.37 2168.52 0 0 0
1 3999.74 2677.91 2327.24 0 0 0
1 3842.18 3998.07 3138.89 0 0 0
1 2978.62 3999.95 2274.64 0 0 0
1 2843.35 2705.98 3965.85 0 0 0
1 2933.61 2129.09 3634.43 0 0 0
1 2557.92 2339.45 2987.52 0 0 0
1 3545.33 3775.75 3139.48 0 0 0
1 3998.1 2261.54 3999.24 0 0 0
1 2944.95 2450.53 2596.55 0 0 0
1 2959.99 2469.26 3588.48 0 0 0
1 3931.78 2700.04 2743.28 0 0 0
1 2434.03 2755.86 2982.28 0 0 0
1 2128.67 2254.56 3713.83 0 0 0
1 2650.95 3947.48 2600.06 0 0 0
1 2664.16 2706.69 3868.12 0 0 0
1 2325.93 3907.55 2223.84 0 0 0
1 2059.31 2440.46 2837.91 0 0 0
1 2723.35 2935.75 2002.86 0 0 0
2 968.455 738.39 409.084 0 0 0
2 592.264 188.346 498.737 0 0 0
2 209.347 528.082 665.678 0 0 0
2 924.28 683.542 663.925 0 0 0
2 944.777 743.092 282.796 0 0 0
2 242.198 64.419 169.473 0 0 0
2 369.227 594.574 614.537 0 0 0
2 441.674 824.549 24.473 0 0 0
2 153.793 580.92 279.25 0 0 0
2 988.742 881.079 769.465 0 0 0
2 51.523 808.405 490.913 0 0 0
2 774.007 563.848 686.522 0 0 0
2 923.156 791.392 576.917 0 0 0
2 564.504 12.889 435.94 0 0 0
2 107.734 685.47 81.605 0 0 0
2 517.934 573.993 709.927 0 0 0
2 496.419 705.667 178.969 0 0 0
2 692.668 461.423 61.23 0 0 0
2 252.846 693.2 735.339 0 0 0
2 400.368 833.707 947.036 0 0 0
2 554.595 429.67 592.05 0 0 0
2 907.719 911.093 563.087 0 0 0
2 964.924 556.54 880.342 0 0 0
2 874.872 301.71 802.448 0 0 0
2 381.208 223.829 579.619 0 0 0
2 230.707 411.925 60.85 0 0 0
2 466.824 69.489 106.031 0 0 0
2 571.644 729.162 946.112 0 0 0
2 983.744 25.984 502.167 0 0 0
2 274.178 911.575 559.1 0 0 0
2 5.297 931.442 916.404 0 0 0
2 627.611 1.393 552.395 0 0 0
2 994.396 265.182 499.66 0 0 0
2 670.213 470.796 755.36 0 0 0
2 185.288 227.882 679.562 0 0 0
2 351.09 586.21 370.376 0 0 0
2 814.4 246.91 31.684 0 0 0
2 222.499 691.433 15.807 0 0 0
2 986.038 22.179 855.402 0 0 0
2 845.428 492.427 474.673 0 0 0
2 821.835 107.515 560.647 0 0 0
2 901.182 128.202 853.722 0 0 0
2 462.78 613.651 50.534 0 0 0
2 714.884 96.711 224.712 0 0 0
2 800.241 236.863 468.983 0 0 0
2 147.602 866.489 749.291 0 0 0
2 410.104 518.042 268.273 0 0 0
2 554.125 562.67 451.964 0 0 0
2 224.56 19.149 610.215 0 0 0
2 599.432 8.968 313.667 0 0 0
2 2000 966.218 333.115 0 0 0
2 2022.72 650.935 1407.12 0 0 0
2 2704.59 1997.91 1027.2 0 0 0
2 2000 414.929 538.299 0 0 0
2 2000 197.81 1057.88 0 0 0
2 2000 657.48 421.24 0 0 0
2 2000 924.532 833.112 0 0 0
2 2000 250.255 716.242 0 0 0
2 2000 775.322 353.522 0 0 0
2 2000 865.506 264.443 0 0 0
2 2000 986.586 728.791 0 0 0
2 2000 86.556 463.769 0 0 0
2 2000 927.211 469.479 0 0 0
2 2000 415.785 396.149 0 0 0
2 2000 491.764 67.029 0 0 0
2 2000 845.135 924.905 0 0 0
2 3974.49 1601.9 1143.08 0 0 0
2 2000 660.954 900.107 0 0 0
2 2000 687.222 8.662 0 0 0
2 2000 901.455 596.944 0 0 0
2 2000 64.212 946.036 0 0 0
2 2000 505.495 629.923 0 0 0
2 2000 754.163 173.403 0 0 0
2 3524.27 1513.98 1386.4 0 0 0
2 2000 41.817 821.578 0 0 0
2 2000 542.288 875.542 0 0 0
2 2000 138.761 269.799 0 0 0
2 2000 699.917 536.694 0 0 0
2 3171.07 1841.49 6.374 0 0 0
2 2000 521.781 756.034 0 0 0
2 2000 760.422 749.825 0 0 0
2 2000 800.229 51.912 0 0 0
2 2000 411.988 275.187 0 0 0
2 2000 781.978 627.296 0 0 0
2 2000 366.536 798.368 0 0 0
2 2000 297.404 236.072 0 0 0
2 2000.01 288.462 586.776 0 0 0
2 2000 128.729 18.937 0 0 0
2 2000 574.867 526.909 0 0 0
2 2000 679.586 276.649 0 0 0
2 2023.55 74.785 642.238 0 0 0
2 2000 662.759 672.5 0 0 0
2 2000 272.63 953.853 0 0 0
2 2000 188.416 836.635 0 0 0
2 2000 633.169 156.945 0 0 0
2 2000 208.154 397.149 0 0 0
2 2000 802.461 472.463 0 0 0
2 2000 536.769 393.1 0 0 0
2 2000 433.622 928.813 0 0 0
2 2000 310.195 466.658 0 0 0
2 413.669 3836.68 604.533 0 0 0
2 747.924 2996.07 266.624 0 0 0
2 999.148 2175.09 395.571 0 0 0
2 473.852 3555.22 751.899 0 0 0
2 1281.82 2007.84 5.933 0 0 0
2 136.439 3829.19 257.008 0 0 0
2 795.582 3010.08 649.177 0 0 0
2 810.788 3178.99 568.605 0 0 0
2 387.379 3507.46 570.015 0 0 0
2 845.893 3668.26 479.579 0 0 0
2 532.219 3823 484.667 0 0 0
2 915.215 3998.24 132.326 0 0 0
2 675.625 2730.78 726.343 0 0 0
2 612.792 3620.05 523.416 0 0 0
2 891.143 3365.81 935.769 0 0 0
2 398.047 3152.65 695.684 0 0 0
2 733.498 3596.91 791.718 0 0 0
2 183.588 3774.61 118.477 0 0 0
2 803.729 3987.56 49.874 0 0 0
2 1779.49 2824.84 739.5 0 0 0
2 496.619 3758.8 842.572 0 0 0
2 117.435 3405.86 239.306 0 0 0
2 5.81 3964.84 38.216 0 0 0
2 17.84 3158.53 896.685 0 0 0
2 305.939 2923.74 244.844 0 0 0
2 17.418 3578.57 1505.72 0 0 0
2 162.025 3301.55 894.832 0 0 0
2 1285.55 3530.08 1929.86 0 0 0
2 706.747 3013.24 86.642 0 0 0
2 68.604 3628.91 82.903 0 0 0
2 596.528 3984.27 48.204 0 0 0
2 734.608 2009.41 166.203 0 0 0
2 268.69 2218.89 1529.07 0 0 0
2 581.735 3424.08 318.819 0 0 0
2 673.432 2515.15 1552.03 0 0 0
2 1024.75 3961.48 1405.08 0 0 0
2 759.789 2917.2 463.376 0 0 0
2 76.085 3679.93 749.834 0 0 0
2 235.328 3646.88 226.19 0 0 0
2 189.355 3868.39 392.771 0 0 0
2 638.17 3394.99 714.997 0 0 0
2 149.602 3543.11 231.709 0 0 0
2 59.068 3443.97 370.961 0 0 0
2 896.012 3380.76 197.855 0 0 0
2 33.005 3826.51 1286.49 0 0 0
2 75.58 3900.43 123.199 0 0 0
2 33.689 3954.16 770.268 0 0 0
2 43.219 2008.86 1450.14 0 0 0
2 1674.34 2551.47 176.17 0 0 0
2 889.688 3120.31 742.742 0 0 0
2 399.452 732.289 2000 0 0 0
2 1275.19 1724.32 3088.59 0 0 0
2 136.438 253.118 2000 0 0 0
2 530.842 370.784 2000.21 0 0 0
2 39.688 543.392 2000.03 0 0 0
2 429.691 273.735 2006.06 0 0 0
2 804.783 348.505 2000 0 0 0
2 719.297 835.876 2000 0 0 0
2 938.69 723.511 2000 0 0 0
2 14.407 254.682 2000 0 0 0
2 827.933 6.388 2000 0 0 0
2 474.63 157.549 2000.01 0 0 0
2 268.423 461.034 2000.69 0 0 0
2 470.597 36.616 2000.01 0 0 0
2 256.028 911.659 2000 0 0 0
2 728.1 74.897 2000 0 0 0
2 0.675 1007.91 2000 0 0 0
2 114.581 0.113 2000 0 0 0
2 113.651 134.23 2000 0 0 0
2 277.494 748.971 2000 0 0 0
2 919.401 302.142 2000 0 0 0
2 763.427 462.373 2001.68 0 0 0
2 210.633 642.917 2000 0 0 0
2 646.516 543.82 2000 0 0 0
2 948.399 0.276 2000 0 0 0
2 591.193 46.497 2000 0 0 0
2 310.673 339.401 2000.12 0 0 0
2 992.35 107.74 2000 0 0 0
2 31.31 1389.74 3117.94 0 0 0
2 889.846 483.675 2000 0 0 0
2 890.159 184.724 2000.02 0 0 0
2 386.805 859.234 2000 0 0 0
2 127.602 801.26 2000 0 0 0
2 146.705 483.941 2000.01 0 0 0
2 187.34 366.186 2000.49 0 0 0
2 310.725 203.043 2000.04 0 0 0
2 358.351 0.469 2000 0 0 0
2 636.809 161.433 2000.69 0 0 0
2 233.436 109.131 2000.09 0 0 0
2 323.84 599.217 2000 0 0 0
2 752.457 197.5 2000 0 0 0
2 404.613 428.636 2000.1 0 0 0
2 683.04 299.279 2000 0 0 0
2 553.597 249.254 2000.07 0 0 0
2 441.552 571.169 2000 0 0 0
2 0.355 0.103 2000 0 0 0
2 650.501 417.336 2000 0 0 0
2 133.035 1255.7 2207.15 0 0 0
2 532.797 491.692 2000.58 0 0 0
2 8.151 781.869 2000 0 0 0
2 3990.67 3997.59 2.078 0 0 0
2 2083.99 2791.61 205.475 0 0 0
2 2589.07 2583.86 1859.86 0 0 0
2 3964.57 3908.63 1882.63 0 0 0
2 3922.65 3963.89 1222.84 0 0 0
2 3885.31 3935.37 58.329 0 0 0
2 2000 2272.61 686.817 0 0 0
2 2000.16 2000.16 1021.44 0 0 0
2 2000 3937.87 708.087 0 0 0
2 2000 2920.89 115.93 0 0 0
2 2000 2125.15 600.608 0 0 0
2 2038.01 2000.16 1677.48 0 0 0
2 2000 3096.43 0 0 0 0
2 2002.33 2002.13 906.228 0 0 0
2 2025.44 2186.13 0 0 0 0
2 2000 2126.81 890.013 0 0 0
2 2208.78 2106.36 1158.58 0 0 0
2 2015.55 2000 655.179 0 0 0
2 2001.11 2180.24 363.467 0 0 0
2 2000 2008.73 539.303 0 0 0
2 2048.01 2142.9 1632.01 0 0 0
2 2000 4000 2000 0 0 0
2 2052.35 2046.89 1127.42 0 0 0
2 2000.41 2043.6 1565.4 0 0 0
2 2285.7 2000 2000 0 0 0
2 2217.33 2000.86 689.298 0 0 0
2 2000.06 2000.38 1450.77 0 0 0
2 3420.31 2595 2000 0 0 0
2 2000 2383.85 286.226 0 0 0
2 2059.46 2522.12 21.658 0 0 0
2 2037.38 2111.15 1475.59 0 0 0
2 2000 2003.21 387.593 0 0 0
2 2000.06 2118.01 1020.88 0 0 0
2 2036.61 2062.95 1998.49 0 0 0
2 2074.7 2000 1262.48 0 0 0
2 3856.33 3973.84 1845.42 0 0 0
2 2000 3031.31 1648.75 0 0 0
2 2465.37 2245.78 339.915 0 0 0
2 2290.7 2106.26 238.45 0 0 0
2 2194.01 2911.51 1340.65 0 0 0
2 2118.13 2000 486.349 0 0 0
2 2124.31 2003.99 173.552 0 0 0
2 2515.22 2000 875.609 0 0 0
2 2228.41 2181.47 131.598 0 0 0
2 2006.16 2004.34 1806.25 0 0 0
2 3080.88 2521.63 568.877 0 0 0
2 2148.22 2100.96 263.335 0 0 0
2 2352.78 2195.91 182.132 0 0 0
2 3999.26 2000.16 1767.23 0 0 0
2 2461.22 2539.7 1104.67 0 0 0
2 3960.87 857.005 2879.59 0 0 0
2 3410.98 719.461 2967.7 0 0 0
2 3348.43 78.906 3803.78 0 0 0
2 3837.16 971.352 3158.91 0 0 0
2 3595.05 538.383 3566.91 0 0 0
2 3448.53 49.628 3163.52 0 0 0
2 2887.79 351.75 3227.28 0 0 0
2 3837.89 427.889 3049.97 0 0 0
2 2880.45 671.341 3089.48 0 0 0
2 3050.72 796.743 3611.78 0 0 0
2 2871.38 677.914 3355.47 0 0 0
2 3272.01 565.226 3492.87 0 0 0
2 3315.88 928.974 3326.49 0 0 0
2 3169.17 114.208 3131.03 0 0 0
2 3972.72 1039.85 4000 0 0 0
2 3065.1 206.524 2986.68 0 0 0
2 3127.4 446.298 3787.37 0 0 0
2 3435.16 3.028 3726.39 0 0 0
2 3642.34 124.279 3473.35 0 0 0
2 4000 711.917 3385.95 0 0 0
2 2983.95 172.166 3518.97 0 0 0
2 2966.34 715.534 3721.17 0 0 0
2 2861.01 593.975 3261.46 0 0 0
2 3708.27 83.727 3027.04 0 0 0
2 3277.95 553.006 3135.33 0 0 0
2 3055.22 698.57 2849.17 0 0 0
2 3304.39 939.199 3730.12 0 0 0
2 3663.07 694.084 3924.04 0 0 0
2 3981.34 600.72 3141.2 0 0 0
2 3065.01 286.506 3797.81 0 0 0
2 3507.95 147.555 3217.09 0 0 0
2 2888.51 802.388 3456.96 0 0 0
2 2827.2 142.542 3176.93 0 0 0
2 3940.32 716.481 3033.61 0 0 0
2 2995.19 957.94 3266.98 0 0 0
2 3977.53 949.082 3352.04 0 0 0
2 3997.58 597.762 2909.61 0 0 0
2 3552.49 338.09 3382.53 0 0 0
2 3867.81 720.201 3766.74 0 0 0
2 3486.03 52.413 3613.3 0 0 0
2 3614.82 180.239 3118.6 0 0 0
2 3645.39 336.632 3605.34 0 0 0
2 3576.91 724.068 3497.93 0 0 0
2 3304.04 195.905 3272.4 0 0 0
2 3474.11 771.125 3602.93 0 0 0
2 3379.55 301.186 3378.41 0 0 0
2 2841.84 485.348 3154.23 0 0 0
2 3315.33 63.196 2878.95 0 0 0
2 3458.14 70.933 3493.85 0 0 0
2 2991.29 445.791 3613.75 0 0 0
2 927.723 2511.47 3479.27 0 0 0
2 0 2000 3072.97 0 0 0
2 501.758 3947.81 3902.59 0 0 0
2 297.814 3794.03 3826.25 0 0 0
2 1549.56 4000 4000 0 0 0
2 1018.36 3138.02 3373.54 0 0 0
2 781.177 3128.8 3626.26 0 0 0
2 0 2963.95 2000 0 0 0
2 655.329 3856.47 3066.89 0 0 0
2 747.76 3680.09 3956 0 0 0
2 29.182 3114.29 3740.67 0 0 0
2 84.82 3093.29 3532.06 0 0 0
2 744.905 3942.24 3609.24 0 0 0
2 568.34 3530.93 3887.41 0 0 0
2 737.877 4000 3166.65 0 0 0
2 754.131 3651.6 3073.01 0 0 0
2 305.887 3198.4 3623.03 0 0 0
2 585.564 2864.01 3202.03 0 0 0
2 450.34 3529.94 3842.99 0 0 0
2 193.669 3666.79 3097.02 0 0 0
2 391.431 3413.81 3633.88 0 0 0
2 97.654 3788.84 3072.48 0 0 0
2 797.364 3931.26 4000 0 0 0
2 180.532 2694.41 2788.78 0 0 0
2 609.704 3583.82 3236.88 0 0 0
2 459.125 3887.37 3753.59 0 0 0
2 175.344 3845.39 2966.33 0 0 0
2 245.528 3979.06 3643.55 0 0 0
2 870.255 3560.68 3868.97 0 0 0
2 388.119 4000 3847.54 0 0 0
2 234.184 4000 4000 0 0 0
2 535.315 2925.84 2981.86 0 0 0
2 202.601 3139.31 3782.01 0 0 0
2 536.859 3815.27 3652.74 0 0 0
2 815.916 2998.62 3242.12 0 0 0
2 2000 4000 4000 0 0 0
2 777.811 3406.65 3110.89 0 0 0
2 785.004 3097.92 3973.15 0 0 0
2 19.046 2385.84 4000 0 0 0
2 920.201 3290.44 3181.22 0 0 0
2 208.667 3019.52 3729.64 0 0 0
2 459.484 3104.1 3857.26 0 0 0
2 942.371 3441.82 3886.33 0 0 0
2 525.439 3408.84 3313.92 0 0 0
2 437.27 3275.85 3318.3 0 0 0
2 199.462 2976.84 3473.23 0 0 0
2 307.152 3293.22 3840.58 0 0 0
2 519.608 3011.86 3736.81 0 0 0
2 288.864 3961.06 3364.41 0 0 0
2 0 3147.99 4000 0 0 0
2 2263.4 3066.21 3770.49 0 0 0
2 3957.81 2571.16 2297.54 0 0 0
2 3837.58 3611.87 2599.8 0 0 0
2 3408.98 2000.71 2000.28 0 0 0
2 3362.71 3920.41 3882.43 0 0 0
2 2312.74 2652.72 2603.7 0 0 0
2 2708.58 2404.35 2865.7 0 0 0
2 2207.12 2597.81 2514.84 0 0 0
2 2750.67 2274.96 2597.71 0 0 0