ITEM: TIMESTEP
50200000
ITEM: NUMBER OF ATOMS
1000
ITEM: BOX BOUNDS pp pp pp
1.2510144549385668e+03 2.7489855450600312e+03
1.2510144549385668e+03 2.7489855450600312e+03
1.2510144549385668e+03 2.7489855450600312e+03
ITEM: ATOMS type x y z ix iy iz c_vor[1] c_vor[2]
2 2196.82 1798.34 2459.98 -1 1 0 3.56217e+06 16
2 2272.17 1565.39 2596.95 0 0 0 4.21562e+06 10
2 1538.12 1344.21 1456.3 1 1 1 455874 15
2 1878.05 2134.79 2184.75 0 0 -1 1.20066e+07 21
2 1929.71 2337.53 2415.91 0 0 0 2.15972e+06 11
2 2325.7 1759.85 2288.9 0 0 -1 2.24805e+06 16
2 2083.8 2438.62 1662.95 0 0 0 3.04778e+06 12
2 2730.9 1710.13 1420.94 0 0 1 455034 13
2 1631.56 1366.91 1290.65 0 1 0 425438 14
2 2012.39 2265.55 2550.46 0 0 0 8.43137e+06 17
2 1749.4 1549.76 2234.65 1 0 0 7.90137e+06 11
2 1757 1890.99 2569.65 0 0 -1 8.57625e+06 20
2 2232.88 2243.99 2612.9 0 0 0 7.06995e+06 16
2 2229.33 1478.65 2424.64 0 1 -1 6.59193e+06 18
2 1677.77 2031.29 2086.66 0 0 0 3.94241e+06 11
2 1287.96 2702.31 1327.73 1 -1 1 1.22338e+06 14
2 2345.81 2417.09 1637.76 0 0 0 1.25066e+07 25
2 2159.14 2677.09 2100.31 -1 -1 0 1.03119e+07 14
2 1930.59 1652.57 2432.01 1 0 0 1.33591e+07 30
2 1461.43 1473.01 2508.04 1 1 0 3.69006e+06 13
2 1898.74 1479.73 1309.45 0 0 1 3.89845e+06 20
2 1550.14 1306.35 2618.35 0 1 -1 631154 10
2 2266.93 2648.61 2680.54 -1 0 -1 5.84095e+06 14
2 2042.6 2608.42 2118.08 0 -1 -1 9.9619e+06 17
2 1856.31 2299.17 2417.49 0 0 0 1.635e+06 10
2 2371.61 2264.69 1369.56 1 0 0 3.87595e+06 14
2 2265.57 1381.64 1610.4 0 0 0 6.69804e+06 19
2 1953.58 1349.36 1813.96 0 1 0 1.51981e+06 9
2 2710.33 2716.67 2121.24 -1 -1 0 1.19467e+07 14
2 2127.14 1905.74 1812.61 0 0 1 6.84535e+06 16
2 1521.96 2693.15 1296.3 1 0 0 786713 12
2 1994.9 2106.93 2691.3 -1 0 0 5.22416e+06 12
2 1827.38 1501.94 2704.62 0 0 -1 3.23646e+06 16
2 2462.11 2332.52 1464.93 -1 -1 1 2.6735e+06 11
2 1659.7 1686.1 1434.82 0 0 0 467754 16
2 2356.93 1261.8 1804.87 0 1 0 4.58655e+06 10
2 2323.84 2239.91 1578.32 -1 0 0 4.30053e+06 17
2 2741.78 1704.37 2701.2 -1 0 -1 1.44207e+06 15
2 2058.1 1335.07 1970.12 0 0 -1 1.47835e+07 17
2 2360.99 1732.63 1796.27 0 0 -1 7.41674e+06 17
2 2354.03 2163.39 1568.6 0 0 0 1.00294e+06 9
2 2740.98 1836.68 2294.99 0 0 0 8.41297e+06 14
2 1861.86 1827.55 1483.84 0 0 0 886595 12
2 1877.68 2480.71 2718.35 1 -1 0 1.0053e+07 19
2 2195.32 1552.19 2187.3 0 1 0 1.31299e+07 17
2 1509.02 1785.72 1744.12 0 0 -1 4.06661e+06 14
2 2367.71 2712.06 2432.7 0 0 -1 1.49303e+07 18
2 2670.32 1496.23 1984.76 0 1 0 9.84685e+06 12
2 2224.96 2161.24 2736.66 0 -1 -1 4.30991e+06 13
2 1756.44 1476.62 1264.29 0 1 1 468410 15
2 2646.95 1364.83 2314.24 0 1 0 5.1177e+06 11
2 1510.87 2702.2 1585.96 0 0 0 3.04573e+06 11
2 1850.46 2243.31 2478.37 0 0 -1 5.75979e+06 21
2 2382.38 1336.54 1829.96 0 0 0 2.69501e+06 13
2 2638.21 1601.31 1392.93 0 0 0 1.4965e+06 11
2 2100.06 2227.07 1459.34 0 0 0 7.11353e+06 19
2 1564.55 1776.92 2664.11 0 0 0 773733 14
2 2232.77 1724.54 2449.43 0 0 -1 2.11686e+06 14
2 1791.52 1569.08 2737.13 0 1 -1 639934 13
2 1655.34 1644.23 1732.72 1 0 1 1.16134e+06 14
2 2676.63 1664.65 2735.72 -1 0 0 911069 13
2 1509.49 1268.87 1254.33 0 0 1 433515 14
2 2411.01 1388.28 1583.52 0 0 0 4.79886e+06 15
2 2662.59 2445.25 1333.05 -1 0 1 9.6558e+06 17
2 1934.99 2238.22 1557.22 -1 0 0 5.07197e+06 15
2 1774.12 1746.37 1699.24 1 0 0 611297 13
2 1856.77 2215.18 1571.81 0 0 1 7.46824e+06 18
2 2237.12 2019.63 1300.78 -1 0 0 4.20729e+06 11
2 1790.22 2186.36 2672.5 0 1 -1 3.97937e+06 15
2 2578.2 1899.47 1852.4 0 0 0 2.89207e+06 11
2 1673.27 2211.25 2743.44 0 0 -1 3.77104e+06 12
2 2277.92 1531.24 1649.54 0 0 1 2.4463e+06 13
2 1369.75 1666.49 1631.15 0 0 0 892674 13
2 1876.91 2586.56 2558.83 0 -1 0 1.02358e+07 16
2 1423.99 1286.86 2103.53 0 0 0 1.92793e+07 14
2 1411.51 1605.41 1534.37 0 0 0 460240 15
2 2223.87 2678.44 1847.11 0 0 0 8.89455e+06 20
2 1638.37 1425.88 2684.45 0 0 0 405044 12
2 2172.86 1999.2 2185.63 0 0 -1 1.66623e+06 8
2 2488.58 2701.89 1507.86 0 0 0 3.69997e+06 10
2 1977.06 2047.49 1713.84 0 -1 0 1.38618e+07 18
2 2202.36 2064.4 1361.18 0 0 0 3.47477e+06 11
2 1579.64 1400.66 2734.08 0 0 -1 425878 14
2 1887.42 1561.23 1320.12 0 0 0 491228 11
2 1740.47 1758.42 1525.09 0 0 0 428571 13
2 1688.62 1824.53 1521.99 0 0 0 516609 12
2 1554.86 1427.07 2570.51 0 0 0 919163 14
2 2252.95 2020.23 2182.3 -1 -1 0 2.54467e+06 11
2 2432.12 1871.39 1643.55 0 1 0 3.09266e+06 12
2 1898.38 2182.49 1508.07 0 -1 0 2.87003e+06 11
2 1359.65 1565.77 1286.55 0 0 0 423618 14
2 1703.47 1617.89 2245.17 0 0 0 1.0867e+07 24
2 2453.52 1394.81 2318.56 -1 0 -1 1.47527e+07 19
2 1652.91 1832.63 1735.22 0 0 0 5.42552e+06 17
2 1453.24 1827.73 1485.09 0 0 0 4.73929e+06 19
2 1488.35 1709.83 2587.46 0 0 -1 674304 13
2 1521.23 1359.82 1274.82 0 0 0 439508 14
2 1425.51 1524.94 1542.4 0 0 0 422207 13
2 1461.51 1329.08 2722.09 0 0 -1 439758 15
2 1457.79 1332.43 1676.59 0 1 1 2.50666e+06 15
2 2397.48 1353.18 1952.82 -1 0 -1 1.65337e+07 19
2 1679.55 1743.59 2729.29 0 0 -1 1.13094e+06 11
2 1531.13 1332.24 1549.99 0 0 0 468731 16
2 1327.86 1358.16 1290.27 0 0 0 505051 16
2 1564.28 1339.36 1355.23 0 0 0 447899 14
2 2017.1 2634.89 1509.82 0 -1 0 3.43782e+06 11
2 2255 1935.95 2383.22 -1 0 -1 7.87514e+06 21
2 1703.76 1407.26 1695.87 0 0 0 971959 13
2 1597.22 1794.2 1344.01 0 0 0 779073 11
2 1705.84 2091.22 2136.45 0 0 -1 4.51793e+06 13
2 1490.38 1816.3 2672.65 0 0 -1 858663 13
2 2021.5 2501.5 2018.65 0 -1 0 3.34531e+06 7
2 1646.15 1740.75 1305.66 0 0 0 512914 12
2 1492.26 2663.45 1377.36 0 -2 -1 2.47524e+06 12
2 2091.5 1995.58 2170.11 0 0 0 1.0662e+07 21
2 1717.05 1548.18 1264.95 0 0 0 403807 12
2 1473.56 1416.66 2566.86 1 0 -1 640818 11
2 1562.31 1933.87 2608.5 0 0 -1 2.59561e+06 14
2 1627.64 1682.38 1251.63 0 0 0 421527 14
2 1406.13 2670.18 2735.92 0 -1 -1 2.37896e+06 14
2 2180.9 1914.77 2414.1 0 0 0 2.36267e+06 12
2 2609.15 2582.34 1835.62 0 -1 -1 2.28263e+06 8
2 1610.64 2717.8 1295.69 -1 -1 0 1.00926e+06 11
2 2053.85 1907.61 1931.22 -1 0 0 1.29305e+07 14
2 2738.11 2259.16 1842.89 -1 0 0 7.89303e+06 12
2 2605.29 2500.3 1846.38 0 -1 -1 3.97606e+06 11
2 2718.22 1428.3 2695.9 -1 0 -1 2.86452e+06 15
2 1473.44 1275.65 1544.15 0 0 0 456408 14
2 1533.62 1262.61 1467.16 0 1 0 429619 12
2 1511.32 1542.44 1439.77 0 0 0 457764 14
2 1436.75 1255.94 2690.77 0 0 -1 1.23725e+06 14
2 2118.42 2365.82 1643.87 -1 0 0 3.72815e+06 11
2 1439.72 1572.26 1307.26 0 0 0 436029 13
2 1764.43 2487.69 1325.84 0 0 0 6.10672e+06 13
2 1489.48 2315.29 1810.17 0 0 0 1.40285e+07 19
2 1679.94 1498.52 1318.72 0 0 0 445171 14
2 1853.24 1661.48 1627.06 0 0 0 1.09531e+06 18
2 2699.63 1773.37 1463.94 -1 0 0 5.16466e+06 14
2 1753.78 1614.22 1299.91 0 0 0 500463 14
2 2737.69 1256.01 2189.95 -1 0 0 3.90774e+06 9
2 1413.31 1610.19 2738.84 0 0 -1 434136 13
2 2630.49 2601.87 2587.6 -1 -1 -1 8.54803e+06 16
2 1404.53 1372.68 1317.38 0 0 0 456445 16
2 1718.08 1647.86 1367.28 0 0 0 441465 13
2 1432.43 1841.95 1378.69 0 0 0 1.49627e+06 12
2 1543.81 1672.46 1395.45 0 0 0 460736 15
2 1817.93 1817.61 1621.39 0 0 0 900046 12
2 1514 1548.09 1332.74 0 0 0 457467 14
2 2127.37 2511.29 2302.84 1 0 0 4.18752e+06 10
2 1560.06 1731.77 1563.98 0 0 0 514459 14
2 1609.13 1716.88 1375.36 0 0 0 459258 13
2 1513.84 1687.49 1633.62 0 0 0 606122 18
2 1655.33 1312.37 2636.24 0 0 -1 2.83436e+06 14
2 1943.34 1391.87 1931.44 1 0 0 9.00139e+06 15
2 1509.46 2561.9 1958.71 0 -1 0 6.6547e+06 10
2 1317.16 2293.52 1978.8 0 -1 -1 1.04284e+07 14
2 1688.23 1736.06 1375.76 0 0 0 519309 13
2 1384.2 1767.01 2741.96 0 0 -1 385029 12
2 1585.19 1385.55 1521.12 0 0 0 429571 14
2 2335.62 2339.27 1367.72 -1 0 0 8.43514e+06 23
2 2694.47 1748.95 1338.16 -1 0 0 1.56158e+06 13
2 1629.23 1449.01 1279.52 0 0 0 415612 13
2 1767.01 1852.45 2223.28 0 0 0 2.37099e+06 10
2 1583.95 1320.34 1758.68 1 2 0 1.0408e+07 18
2 1926.43 2683.65 1937.24 -1 -1 0 7.3645e+06 16
2 1539.1 1337.89 2694.68 0 0 -1 431636 15
2 1537.95 1654.88 1539.68 0 0 0 471315 13
2 2332.19 2631.6 1333.28 -1 -1 1 6.74844e+06 14
2 1400.42 1688.91 2723.86 0 0 -1 410604 13
2 1290.09 1533.96 2662.82 0 0 -1 930417 13
2 1354 1434.37 1337.96 0 0 0 433017 13
2 1392.6 1508.52 1334.86 0 0 0 408249 12
2 2324.46 2371.07 1912.46 -1 -1 0 3.705e+06 12
2 1569.37 1497.31 1743.19 0 0 0 626335 13
2 1949.75 1591.7 1363.21 0 0 0 750872 11
2 1269.42 1286.74 1451.8 0 0 0 861083 13
2 1317.52 2568.97 2524.6 -1 -1 0 1.47414e+07 17
2 1556.75 1590.91 1388.54 0 0 0 475437 13
2 2707.49 1640.63 2662.63 -1 0 -1 2.45333e+06 14
2 2634.32 1253.26 1732.04 0 0 0 6.64382e+06 14
2 1739.91 1425.71 1986.22 0 1 0 8.80796e+06 14
2 1687.57 2737.24 1318.79 0 -1 0 3.42144e+06 14
2 2129.15 1358.51 2374.47 -1 0 0 5.6109e+06 9
2 2136.5 1905.23 2544.28 -1 1 0 7.06709e+06 18
2 1789.55 1483.82 1493.61 0 0 0 427528 11
2 1687.67 1962.44 1670.01 0 0 0 2.38339e+06 10
2 1827.67 1516.38 1559.78 0 0 0 829127 12
2 1542.67 1541.45 1254.92 0 0 0 462441 15
2 1295.17 2365.29 1795.26 0 -1 0 5.82235e+06 12
2 1584.96 1501.46 2592.3 0 1 0 664125 12
2 2549.5 1822.32 1843.14 0 0 -1 4.85361e+06 13
2 1734.25 1894.09 1528.65 0 0 0 1.74831e+06 12
2 1638.42 1501.72 2653.34 0 0 -1 439044 14
2 1631.78 1536.38 1261.45 0 0 0 427014 14
2 2353.02 2215.95 1504.59 -1 0 0 1.25372e+06 11
2 1801.45 1656.22 1366.72 0 0 0 448392 15
2 2458.61 1536.27 2621.65 -1 0 -1 1.28231e+07 24
2 2625.99 2501.72 1381.34 -2 -2 -1 6.48436e+06 20
2 1750.77 1785.06 1398.51 0 0 0 986117 12
2 1348.25 1543.14 1562.03 0 0 0 436259 13
2 2183.55 1756.42 2390.14 -1 0 0 2.64968e+06 18
2 1277.63 1656.37 1377.95 0 0 0 447789 14
2 1661.65 1864.56 2278.87 0 -1 -1 6.65026e+06 12
2 1810.57 2345.12 1414.5 0 0 0 9.8151e+06 20
2 2172.03 1625.41 2156.31 -1 0 0 6.90237e+06 15
2 1505.64 1584.37 2692.16 0 0 -1 487894 15
2 2491.93 2496.09 2199.43 -1 -1 -1 2.01919e+06 8
2 2021.08 2153.56 2175.47 0 -1 -1 1.03546e+07 16
2 1417.99 1765.46 1567.32 0 0 0 1.36639e+06 11
2 1626.44 1739.23 1615.23 0 0 0 553568 15
2 1334.7 2213.35 1452.88 0 -1 0 1.2852e+07 15
2 1625.82 1742.48 2599.79 0 0 -1 2.52421e+06 14
2 2158.65 1599.84 1525.18 -1 0 0 7.30957e+06 19
2 1392.53 1588.77 1615.07 0 0 0 442120 14
2 1625.1 1453.7 1363.5 0 0 0 448813 16
2 1486.54 1703.66 1346.25 0 0 0 440238 14
2 1769.91 2441.02 2498.81 0 -1 0 2.55747e+06 13
2 2711.97 1475.79 1308.27 -1 0 0 584090 12
2 2081.9 2482.44 1965.26 0 -1 0 7.05893e+06 16
2 1290.87 2711.6 1485.95 0 -1 0 4.23646e+06 14
2 1453.35 1730.99 1275.9 0 0 0 461039 14
2 1642.43 1484.71 1441.54 0 0 0 436019 13
2 2376.32 2641.72 1402.64 -1 0 0 6.68143e+06 16
2 2266.69 1664.22 1536.65 0 0 0 5.64177e+06 18
2 2340.75 1772.99 1726.82 -1 0 0 3.53708e+06 11
2 1361.26 1651.92 2662.44 0 0 -1 749784 15
2 2381.19 1706.92 2320.23 -1 0 0 917639 9
2 2066.11 2120.95 2731.23 0 0 -1 3.89508e+06 13
2 2747.78 1535.42 1351.07 -1 0 0 427857 14
2 1318.16 1481.02 1709.7 0 0 0 2.38367e+06 11
2 1802.55 1393.47 1509.14 -1 0 0 1.23034e+06 10
2 1576.62 1420.25 1684.91 0 0 0 439407 14
2 1548.86 1651.59 1757.63 0 0 0 1.2041e+06 13
2 2338.88 1328.96 1759.88 0 0 -1 4.03691e+06 11
2 2208.99 1567.34 2543.42 -1 0 -1 4.80296e+06 13
2 1646.44 1376.76 1642.92 0 0 0 435209 13
2 1918.86 2162.13 1585.71 1 0 -1 3.48697e+06 11
2 1478.22 1454.49 2640.17 0 0 -1 419103 13
2 1934.41 1618.85 1285.99 0 0 0 878369 11
2 2511.39 1558.28 2463.11 -1 0 0 5.86931e+06 17
2 1477.31 1865.98 1313.54 0 0 0 1.94575e+06 12
2 1635.53 1721.82 1695.54 0 0 1 607875 11
2 1565.34 1640.2 2674.83 0 0 -1 428290 15
2 2442.58 1556.5 1469.45 -1 0 0 9.44774e+06 22
2 1357.59 1653.7 1490.45 0 0 0 434455 13
2 1707.28 1535.2 2620.87 0 0 -1 3.23434e+06 17
2 2555.45 1721.72 2524.83 -1 0 -1 8.73958e+06 22
2 2258.17 2324.24 1895.9 -1 0 0 4.47589e+06 12
2 1593.01 1302.98 1505.3 0 0 0 483539 12
2 1814.68 1870.52 1536.68 0 0 0 1.75811e+06 13
2 1470.04 1312.32 2639.44 0 0 -1 666478 11
2 1876.98 1620.38 1479.53 0 0 0 940772 14
2 1591.69 2561.73 1968.65 0 -1 0 1.73183e+07 17
2 1700.48 1375.89 2664.8 0 1 0 2.00042e+06 15
2 2450.35 1599.64 2141.86 0 0 0 8.18382e+06 15
2 1432.39 1633.2 2582.48 0 0 -1 698054 12
2 1816.26 1575.29 1357.17 0 0 0 447803 14
2 1467.7 1559.94 1603.42 0 0 0 437186 14
2 1714.8 1417.15 1615.5 0 0 0 433652 12
2 2532.33 1374.94 1570.65 -1 0 1 6.78015e+06 24
2 2612.82 1440.89 1962.56 0 0 -1 4.69443e+06 12
2 2694.37 2106.03 2696.52 0 0 0 2.11603e+07 13
2 1313.66 1584.88 1501.46 0 0 0 449310 16
2 1266.9 2324.4 1729 0 -1 0 4.65972e+06 10
2 2704.57 1892.11 2245.36 -1 -1 0 6.13981e+06 12
2 1443.5 1772.9 2616.62 0 0 -1 2.41502e+06 19
2 1694.55 1694.75 2664.9 0 0 -1 1.90252e+06 15
2 2545.86 1496.51 2506.22 -1 0 -1 6.61872e+06 16
2 2547.92 1475.44 1924.39 -1 0 1 3.79778e+06 11
2 1495.9 1336.11 2563.1 -1 0 0 1.82153e+06 11
2 1275.87 1294.31 1368.87 0 0 0 455553 13
2 1730.04 1619.75 2718.05 0 0 0 724553 13
2 2748.17 1355.74 1493.72 -1 0 0 1.65974e+06 15
2 1753.9 1886.25 1627.78 0 0 0 1.63738e+06 12
2 1946.68 2480.98 1629.17 0 0 -1 6.61425e+06 15
2 1406.21 1507.39 1620.4 0 0 0 422411 14
2 1691.17 1481.55 1573.15 0 0 0 435421 14
2 1778.31 1681.52 1766.13 0 0 0 3.37994e+06 16
2 2474.91 1922.73 1692.48 0 0 0 2.70331e+06 10
2 1325.44 1511.57 1633.47 0 -1 -1 448447 12
2 2334.96 2011.89 2190.27 -1 -1 -1 7.12918e+06 14
2 2716.26 1674.81 1309.42 -1 0 0 442722 16
2 1259.05 2362.81 2093.21 0 -1 0 6.89935e+06 9
2 1581.57 1307.52 1260.68 0 0 0 437556 13
2 1580.87 1835.41 2720.04 0 0 -1 1.23347e+06 11
2 1253.45 1808.5 1323.91 0 0 0 2.51325e+06 13
2 1358.06 1395.99 2661.93 0 0 -1 1.14459e+06 13
2 1873.91 1563.57 2736.94 0 0 -1 1.60351e+06 11
2 1310.61 1371.91 1675.4 0 0 0 4.37536e+06 15
2 1501.05 1622.8 1443.91 0 0 0 475438 16
2 2675.02 1746.98 2740.46 -1 0 -1 3.86916e+06 14
2 1700.56 2734.63 2433.09 -1 -1 1 8.58828e+06 12
2 1772.8 1507.48 1622.24 0 0 0 671871 13
2 1605.56 2185.49 1285.63 0 -1 0 6.29014e+06 14
2 2112.45 2453.39 2578.05 1 -1 -1 9.64473e+06 18
2 1619.53 1359.19 1450.52 0 0 0 453932 15
2 2337.21 1414.13 1416.11 0 0 0 9.0507e+06 21
2 1317.88 1792.46 2700.9 0 0 -1 1.69016e+06 15
2 1591.62 1591.86 1532.77 0 0 0 487277 16
2 1470.41 2725.08 1428.81 0 -1 0 509714 11
2 1517.27 1253.72 2672.01 0 0 -1 980812 11
2 1743.82 1573.39 1393.41 0 0 0 422345 14
2 1539.59 1791.29 1459.56 0 -1 0 702326 12
2 1505.33 1612.85 1278.91 0 0 0 479480 15
2 2734.29 2370.07 2172.54 -1 0 0 1.10562e+07 17
2 1542.61 1692.03 2527.2 0 0 -1 3.91927e+06 13
2 1623.19 2604.72 2319.71 0 -1 0 6.13811e+06 11
2 2697.51 1320.28 2748.36 0 0 -1 5.23693e+06 15
2 2736.12 2631.46 2310.14 -1 -1 -1 1.21726e+07 15
2 2722.7 1704.85 1503.07 -1 0 0 562886 11
2 1552.9 1457.91 1549.01 0 0 0 431756 14
2 2094.9 2105.08 1801.66 0 0 0 9.80843e+06 19
2 2721.11 1568.13 2697.76 -1 0 -1 851157 13
2 1736.45 2083.3 2059.86 0 0 0 1.3196e+07 17
2 1706.79 1457 2649.25 0 0 -1 1.20291e+06 12
2 1297.52 1381.5 1364.04 0 0 0 434526 14
2 1835.01 1617.3 1288.29 0 0 0 487794 13
2 2666.06 1542.71 1341.43 -1 0 0 1.14003e+06 14
2 1482.26 1491.61 2712.54 0 0 -1 460754 14
2 1390.28 1340.66 1463.58 0 0 0 434612 15
2 2703.59 1377.07 2255.05 -1 0 0 3.74428e+06 9
2 1663.03 1610.35 1264.77 0 0 0 403958 13
2 1715.38 2221.85 2672.16 0 -1 -1 4.19919e+06 15
2 1699.72 1899.92 2214.35 1 -1 0 2.66959e+06 10
2 1643.05 1661.34 2609.64 0 0 -1 1.08773e+06 13
2 1727.51 1629.36 1612.74 0 0 0 434203 13
2 1563.78 2391.67 1500.15 0 -1 0 8.87609e+06 21
2 2656.09 1702.26 1453.91 -1 0 0 2.96281e+06 16
2 2170.29 2458.77 2255.28 -1 -1 -1 6.7601e+06 16
2 1811.35 1886.48 1455.06 0 0 0 4.85118e+06 14
2 1565.38 2712.69 2725.86 0 -1 -1 1.68603e+06 13
2 2638.1 1701.82 1301.16 -1 0 0 3.59499e+06 14
2 1697.11 1554.93 1608.82 0 0 0 440567 14
2 1274.88 1648.6 1470.28 0 0 0 427420 13
2 1414.7 1529.89 2735.62 0 0 -1 449243 15
2 1919.16 1456.54 1732.82 0 0 0 2.44027e+06 16
2 1289.43 1673.23 1612.04 0 0 0 1.34763e+06 11
2 1637.58 1346.05 2709.88 0 0 -1 464164 12
2 2345.69 1492.16 1622.31 -1 -1 0 4.72784e+06 14
2 2207.09 1296.73 2657.66 -1 0 -1 1.01593e+07 16
2 1629.34 1454.94 1631.26 0 0 0 429896 14
2 1434.72 1333.2 1381.59 0 0 0 432564 13
2 2646.94 1620.84 1312.64 -1 0 0 1.37554e+06 12
2 1424.43 1897.72 2182.56 0 0 0 1.00707e+07 16
2 1430.16 1442.59 1535.21 0 0 0 423309 13
2 1707.96 1708.17 1733.2 0 0 0 1.43964e+06 15
2 1827.78 1698.66 1301.9 0 0 0 1.71668e+06 17
2 1707 1728.75 1654.06 0 0 0 451359 13
2 1294.52 1451.72 2667.47 0 0 -1 1.28648e+06 13
2 1476.72 1785.43 1334.21 1 0 0 422062 13
2 2048.5 1339.75 2377.03 0 0 0 2.17429e+07 25
2 1688.02 1325.24 1691.46 0 0 0 4.70271e+06 17
2 1706.91 1490.81 1491.5 0 0 0 448421 15
2 1839.07 1786.66 2350.79 0 0 0 4.62815e+06 15
2 2128.55 1908.23 1895.41 0 0 0 5.97432e+06 9
2 1523.83 1882.61 2085.16 0 0 0 9.88617e+06 16
2 1576.12 1448.17 1468.31 0 0 0 443840 15
2 1306.45 1396.63 2319.6 0 0 0 1.54367e+07 28
2 1343.26 1781.84 1377.79 0 0 0 537851 13
2 1547.03 2721.46 1396.6 0 -1 0 499554 12
2 1587.94 1654.03 1686.49 0 0 0 484451 13
2 2682.2 1635.84 1518.7 -1 0 0 1.6047e+06 14
2 1591.79 1628.8 2552.58 0 1 0 2.40369e+06 14
2 1255.21 1429.01 1436.98 0 0 0 589877 13
2 1573.31 1400.38 1604.4 0 0 0 427401 13
2 2708.32 1505.06 1551.96 -1 0 0 2.55408e+06 17
2 1867.79 2364.62 2368.03 0 -1 -1 1.67152e+06 13
2 2282.53 1807.67 1343.16 0 0 0 8.80607e+06 16
2 1365.27 1494.82 1495.74 0 0 0 465471 14
2 1473.23 1699.32 1427.48 0 0 0 432644 14
2 1788.19 1675.12 1483.14 0 0 0 559553 14
2 1268.45 2326.49 1602.73 0 0 0 9.47274e+06 15
2 1995.84 2375.23 2166.98 0 -1 -1 1.13986e+07 16
2 1579.2 1919.62 2528.67 -1 -2 -1 7.51608e+06 21
2 1827.36 1514.31 1288.31 0 0 0 446590 12
2 1495.83 2558.47 1877.07 0 -1 0 3.84841e+06 9
2 1820.98 1431.65 1436.28 0 0 0 1.07816e+06 14
2 1431.31 1606.51 2660.72 0 0 -1 413932 13
2 1337.19 2739.89 1380.63 0 -1 0 465458 13
2 1754.69 1357.07 1654.27 0 0 0 2.55429e+06 15
2 2476.63 2437.07 2255.51 -1 0 0 4.79912e+06 11
2 1699.4 1321.82 1305.56 0 0 0 1.11519e+06 15
2 2602.69 2663.13 1818.5 -1 -1 0 4.50478e+06 9
2 1429.29 2711.81 1574.13 1 -1 0 2.61965e+06 14
2 1746.48 1435.31 2068.24 -1 0 0 1.01044e+07 11
2 1971.11 1296.76 1624.24 0 0 0 9.06838e+06 29
2 2162.68 1865.85 2130 -1 -1 -1 2.53671e+06 12
2 1478.84 1989.55 1968.4 0 0 0 1.50553e+07 14
2 1565.4 1323.94 2151.73 0 0 0 1.96958e+07 14
2 1606.96 1586.51 1323.1 0 0 0 446885 14
2 2299.91 2447.63 1932.38 -1 -1 0 5.97347e+06 16
2 2096.28 1836.99 1922.71 0 -1 -1 8.06467e+06 15
2 2715.12 1494.96 1471.02 -1 0 0 752206 13
2 1492.68 1526.79 1731.39 0 0 0 780404 12
2 1778.68 1448.48 1566.82 0 0 0 666876 13
2 1345.93 1700.65 1374.72 0 0 0 403191 12
2 1433.54 1687.82 2645.95 0 0 -1 414034 12
2 1958.54 1751.09 1326.45 1 1 0 9.01713e+06 24
2 1748.56 1533.96 1548.35 0 0 0 417542 12
2 1667.15 1581.92 1680.87 0 0 0 456325 16
2 1275.35 1467.72 1586.04 0 0 0 1.0681e+06 14
2 1359.27 1573.33 2688.56 0 0 -1 432594 13
2 1442.98 1887.8 2102.44 0 0 -1 3.12736e+06 9
2 2327.23 2396.24 1991.33 -1 0 0 7.10583e+06 14
2 1475.71 2579.47 2297.95 0 -1 0 5.58937e+06 12
2 2072.57 2635.2 1372.26 -1 0 0 6.84368e+06 14
2 1593.78 1323.56 1676.31 0 0 -1 981381 11
2 2731.37 1614.22 1626.65 -1 0 0 3.08269e+06 15
2 1643.38 1360.9 1371.35 0 0 0 460338 14
2 2468.91 2516.89 2276.23 -1 0 0 8.13639e+06 15
2 1809.94 2563.45 2076.48 1 0 0 2.07403e+07 25
2 1362.11 1633.3 1330.45 0 0 0 436869 14
2 1840.88 1544.1 1469.25 0 0 0 651048 14
2 1515.03 2449.51 1643.12 -1 -2 0 1.31289e+07 26
2 2360.99 2519.95 2583.03 -1 -1 0 1.06505e+07 17
2 1288.3 1615.22 2674.79 0 0 -1 772567 13
2 2373.03 2085.43 2192.34 0 -1 0 5.7228e+06 15
2 1529.27 1611.93 1607.79 0 0 0 436722 12
2 1397.73 1884.99 1315.42 0 0 1 5.3846e+06 14
2 1806.93 1610.08 1434.15 0 0 0 424072 14
2 1610.64 1332.61 1581.16 0 0 0 590714 13
2 2713.91 1539.27 2500.06 -1 0 -1 6.03737e+06 17
2 1466.89 1639.73 1754.3 0 0 0 1.37179e+06 13
2 1827.56 1616.21 1752.92 0 0 0 2.28642e+06 15
2 2605.58 1924.84 1926.35 0 0 0 1.26391e+07 9
2 1458.25 1663.94 1500.23 0 0 0 445883 13
2 1347.47 1629.65 1412.58 0 0 0 432124 15
2 2411.79 2330.8 1399.15 -1 -1 0 1.93504e+06 9
2 2162.09 2150.31 2377.82 0 1 0 8.81155e+06 21
2 2352.56 2047.38 2263.02 -1 -1 0 4.48677e+06 13
2 1436.33 1559.55 1679.6 0 0 0 545974 12
2 2500.39 1958.71 2622.53 -1 0 -1 1.47482e+07 18
2 1690.81 1402.59 2743.04 0 0 -1 564639 13
2 1292.56 1562.8 2739.73 0 0 -1 413520 13
2 1669 2604.78 2388.73 0 -1 0 3.87073e+06 11
2 1935.92 1790.92 1484.72 0 0 0 5.40311e+06 24
2 1646.24 1660.08 1328.52 0 0 0 449123 14
2 1336.13 1634.44 2740.65 0 0 -1 433042 14
2 1546.56 1688.28 2738.95 0 0 -1 458798 15
2 1381.18 1570.08 2607.97 0 0 -1 1.00654e+06 14
2 1758.38 1555.69 1471.4 0 0 0 414685 14
2 2579.4 1846.88 1916.39 -1 0 -1 5.95713e+06 8
2 1323.93 1275.75 1304.32 0 0 0 539430 12
2 1563.82 1657.73 1317.34 0 0 0 479542 15
2 2191.04 1344.75 2427.78 0 0 -1 7.95228e+06 10
2 1469.97 1385.62 1430.55 0 0 0 467106 13
2 1503.93 1785.14 1534.57 0 0 0 908711 11
2 1908.31 1829.38 1415.88 0 0 0 4.31889e+06 12
2 2607.26 1438.49 1879.94 0 1 0 3.20273e+06 14
2 1310.46 1394.5 1595.55 0 0 0 815464 13
2 2103.75 1933.66 2473.65 -1 0 -1 1.1611e+06 9
2 1416.09 2504.4 1794.05 0 -1 0 8.71994e+06 19
2 2552.81 2012.88 1805.7 -1 0 0 5.67745e+06 13
2 1748.84 1885.04 2149.33 -1 0 0 1.00338e+07 21
2 1743.54 1424.03 1461.67 0 0 0 427895 15
2 1656.77 1749.19 1524.05 0 0 0 430848 13
2 1806.27 1602.57 1517.52 0 0 0 484624 13
2 1817.81 1738.95 1381.58 0 0 0 607355 11
2 1912.64 2115.33 2696.27 0 -1 0 6.68946e+06 18
2 2668 1677.24 1375.03 -1 0 0 671287 10
2 1627.75 2726.14 1376.69 0 -1 1 861991 12
2 1827.43 2448.37 2439.65 0 -1 -1 1.1778e+06 8
2 1684.99 1290.6 1382.67 0 0 0 545778 11
2 1362.49 1743.68 1509.29 0 0 0 575653 11
2 1417.87 2737.16 1495.6 0 -1 0 500396 11
2 1582.36 1506.21 1319.38 0 0 0 433980 14
2 1713.51 1500.93 1735.75 0 0 0 1.20634e+06 13
2 2579.86 2533.96 1775.09 -1 -1 0 5.73223e+06 13
2 1875.96 1384.23 1883.91 -1 -1 0 3.82758e+06 17
2 1407.55 1712.22 2571.69 0 0 -1 3.33675e+06 17
2 1529.33 1835.85 1372.04 0 0 0 2.43125e+06 17
2 1276.6 1768.59 1501.72 0 0 0 3.37456e+06 15
2 1261.88 1485.19 2737.81 0 0 -1 478137 15
2 2747.31 1345.38 1309.75 -1 0 0 430649 12
2 1722.79 2138.27 1584.57 0 1 -1 7.48272e+06 19
2 1399.83 1486.39 1700.22 0 0 0 822343 12
2 2301.95 1316.97 1833.06 0 0 0 4.98039e+06 12
2 2572.54 1508.54 1852.56 0 0 0 6.13734e+06 15
2 2038.82 2089.66 1364.11 0 -1 2 7.90493e+06 16
2 2149.45 2167.26 1797.19 0 0 0 4.33886e+06 10
2 1810.8 1371.56 1362.59 0 1 0 3.42167e+06 16
2 2151.01 2362.2 1719.95 0 -1 0 5.42655e+06 16
2 1747.77 1517.49 2690.49 0 0 -1 601225 12
2 1637.86 1579.6 2622.66 0 0 -1 612426 12
2 1507.67 1295.89 1395.83 0 0 0 445524 15
2 1426.97 1886.97 2735.9 0 0 -1 1.17747e+06 10
2 1425.55 1452.04 1453.65 0 0 0 455927 15
2 1616.42 1679.93 1530.96 0 0 0 438947 14
2 1617.68 1515.74 2057.86 0 0 0 1.84578e+07 16
2 1363.33 2739.73 2728.4 0 -1 0 1.0183e+06 13
2 1766.64 1679.18 1561.72 0 0 0 571530 13
2 1794.99 2029.8 2538.05 0 -1 0 5.72416e+06 14
2 1472.94 1552.93 2523.44 0 0 -1 2.35724e+06 14
2 1828.5 1436.61 1256.67 0 0 1 3.07768e+06 14
2 1963.06 1256.69 1915.37 0 0 0 2.58554e+06 9
2 1357.02 1460.67 1571.61 0 0 0 444863 14
2 2447.04 1630.25 2218.77 -1 0 0 2.05064e+06 11
2 1405 1435.51 2607.81 0 0 -1 949892 13
2 2383.77 2109.25 1623.8 0 -1 0 6.22758e+06 17
2 1444.99 1745.65 1491.99 -1 0 0 424810 13
2 2381.74 1642.4 2268.27 0 -1 0 4.10004e+06 18
2 1403.61 1578.44 1378.79 0 0 0 449688 16
2 2737.8 1264.91 1299.63 -1 0 0 834531 11
2 1642.34 1797.4 2680.47 0 -1 -1 1.50955e+06 11
2 2365.02 1801.39 1347.3 0 -1 1 5.63774e+06 13
2 1830.81 1745.45 1759.51 -1 0 0 6.01382e+06 16
2 1788.65 2551.03 1373.4 -1 0 0 9.86537e+06 18
2 1962.33 1670.5 1345.51 0 0 1 747590 10
2 1539.9 1268.1 2545.62 0 0 -1 8.01054e+06 21
2 1463.32 1415.91 1280.33 0 0 0 444574 15
2 2295.99 2645.52 1260.08 0 -1 0 5.71651e+06 11
2 1640.58 1537.93 1744.99 0 0 0 745943 12
2 1548.85 1474.31 1630.58 0 0 0 436662 14
2 1448.51 1364.04 1516.83 0 0 0 450026 14
2 1438.07 1654.72 1303.08 0 0 0 437815 15
2 2627.81 2307.48 2528.71 0 -1 -1 8.53245e+06 13
2 1634.91 1784.5 1415.34 0 0 0 619343 13
2 2097.98 1495.34 2693.65 0 0 0 9.22718e+06 17
2 1995.76 1785.38 1731.7 0 0 0 6.44147e+06 15
2 2748.96 2170.21 2571.95 -1 -1 0 1.14224e+07 10
2 1520.18 1992.27 2649.43 0 0 -1 7.61183e+06 15
2 2272.87 1433.21 1464.66 0 0 0 5.66158e+06 21
2 1416.04 2106.51 1710.58 0 0 0 7.90869e+06 13
2 1578.91 2663.38 1348.76 0 -1 0 3.74723e+06 17
2 1488.8 1491.05 1503.38 0 0 0 420053 14
2 1408.95 2698.54 1378.11 0 -1 0 941227 13
2 1839.21 2128.45 1367.11 0 0 0 7.63586e+06 16
2 1468.01 1780.52 1419.28 0 0 0 450997 13
2 1572.8 1579.31 1721.94 0 0 0 516188 12
2 1472.71 1486.06 1663.98 0 0 0 423176 12
2 1475.05 1657.3 2711.46 0 0 -1 450765 14
2 1380 2139.2 1886.92 0 -1 0 8.93614e+06 11
2 1562.88 1522.5 1500 0 0 0 450656 14
2 1268.59 1599.92 2479.78 0 0 -1 9.77288e+06 20
2 1358.04 1495.8 2637.14 0 0 -1 758028 11
2 1516.33 2614.39 1819.5 0 -1 0 1.04563e+07 19
2 1832.85 1683.68 1704.74 0 0 0 555096 10
2 1515.56 1465.28 1349.68 0 0 0 422560 13
2 2606.91 2745.55 2489.3 -1 -2 -1 1.01298e+07 13
2 1434.61 2265.62 1772.98 0 -1 0 3.5052e+06 14
2 2282.06 2184.32 1533.32 0 0 1 2.89254e+06 12
2 1395.68 1304.56 1540.08 0 0 0 420150 15
2 1401.84 1384.93 2733.41 0 0 -1 431893 12
2 2148.45 2129.59 2734.01 -1 0 -1 2.79325e+06 13
2 2307.01 1823.36 2239.12 -1 0 0 6.94832e+06 24
2 1544.44 2158.79 2478.65 0 -1 -1 9.42541e+06 20
2 1629.85 1917.89 1630.69 0 0 0 3.65703e+06 16
2 1311.61 1717.99 1447.42 0 0 0 467248 15
2 2690.33 1893.9 2326.94 -1 0 0 2.68413e+06 9
2 2717 1569.98 1282.65 -1 0 0 453183 15
2 2378.14 2201.95 1904.67 -1 0 0 1.17647e+07 18
2 1595.67 1279.16 2682.78 0 0 -1 883163 12
2 1911.68 2716.63 1862.7 -1 -1 0 7.91068e+06 16
2 1290.28 1504.89 1435.06 0 0 0 481287 16
2 1412.11 2148.75 2701.55 1 0 0 1.00941e+07 13
2 1643.49 1460.47 1712.94 0 0 0 458955 12
2 1707.31 1687.13 1502.43 0 0 0 426082 14
2 1588.47 1483.56 2715.4 0 0 -1 432371 14
2 2261.81 2316.56 2640.43 -1 -1 -1 6.86687e+06 16
2 1676.98 1560.54 2693.66 0 0 -1 407348 13
2 1723.84 1396.4 1536.85 0 0 0 463928 13
2 1774.89 1437.85 1667.24 0 0 0 1.3801e+06 14
2 1300.64 1679.93 1302.18 0 0 0 409595 13
2 2702.29 1477.62 1390.99 -1 0 0 642456 11
2 1286.77 1866.93 2718.88 0 0 -1 7.09367e+06 20
2 2014.82 1807.01 2325.15 0 0 0 4.65632e+06 16
2 2614.65 2421.36 1869.65 -1 0 0 6.19366e+06 18
2 1389.8 1322.15 2680.92 0 0 -1 1.09788e+06 13
2 2281.27 2734.91 1827.66 -1 -1 0 4.26714e+06 15
2 2293.07 2194.03 1451.79 -1 0 0 2.88582e+06 14
2 2228.8 1567.55 1286.98 -1 0 0 9.16469e+06 15
2 1481.46 1269.06 1626.92 0 0 0 1.65694e+06 14
2 2206.1 2094.61 1284.15 -1 0 1 1.52042e+06 11
2 1559.11 1270.51 1598.44 0 0 0 1.27178e+06 13
2 2057.53 2002.16 2480.25 -1 0 0 5.65184e+06 14
2 2461.22 1685.21 1760.65 -1 0 0 9.10337e+06 25
2 1271.87 2665.99 2687.26 0 -1 -2 7.24079e+06 17
2 2215.04 2130.92 1889.1 0 0 0 1.62701e+07 20
2 2222.07 2135.71 2322.59 -1 0 0 4.75739e+06 14
2 1899.02 2309.77 2487.67 0 0 0 2.20783e+06 11
2 2642.97 1432.36 2266.43 -1 0 -1 7.67198e+06 16
2 1446.84 1750.93 2694.85 0 0 -1 400654 12
2 1418.36 1659.73 1382.26 0 0 0 413099 13
2 1507.26 1869.72 2733.8 0 0 -1 950591 12
2 1921.01 2522.08 1696.35 -1 -1 0 1.48029e+07 29
2 1462.8 1495.58 1295.29 0 0 0 420188 12
2 1833.77 1803.73 1700.97 0 0 0 2.85289e+06 17
2 2544.43 2293.26 2639.29 -1 0 -1 7.91919e+06 17
2 1287.06 1427.28 1514.05 0 0 0 598672 13
2 1437.46 2210.81 1614.92 0 -1 0 6.92217e+06 15
2 1766.08 1404.23 1302.06 0 0 0 793632 12
2 1269.55 1551.12 1586.1 0 0 0 531354 13
2 1752.74 1325.86 1508.91 0 0 0 2.10576e+06 14
2 2539.44 1918.19 2413.68 -1 0 -1 6.8536e+06 15
2 1890.84 2501.65 2441.21 0 -1 -1 7.29664e+06 23
2 1809.33 2459.61 1262.15 0 -1 0 6.20232e+06 15
2 1682.13 1557.41 1446.11 0 0 0 417812 13
2 1577.93 1648.89 1466.32 0 0 0 482787 14
2 1522.05 1717.14 1490.39 0 0 0 449874 15
2 1542.3 2117.6 2406.81 1 0 -1 7.07783e+06 14
2 2516.91 1556.99 2117.1 -1 0 0 6.31441e+06 10
2 1782.98 1356.03 1437.69 -1 0 0 1.14868e+06 13
2 1491.43 2702.07 1506.13 0 -1 0 1.75906e+06 15
2 2245.97 1424.97 1542.57 -1 0 1 4.43512e+06 17
2 2692.89 1306.47 1356.87 -1 0 0 2.51792e+06 13
2 1436.13 1715.2 1630.74 0 0 0 865794 12
2 1767.01 2747.73 2480.78 0 -1 -1 1.03675e+07 14
2 1687.78 1695.54 1581.06 0 0 0 437126 15
2 2639.21 2016.42 2418.11 0 -1 -1 1.14366e+07 14
2 2449.58 1689.12 2277 0 0 0 3.62209e+06 13
2 1668.58 1552.47 1529.33 0 0 0 436300 15
2 1772.14 1577.77 2160.08 0 0 -1 1.21345e+07 22
2 2091.36 2631.34 1546.36 0 -1 -1 9.68258e+06 20
2 2032.92 1693.66 2239.73 0 0 -1 6.08398e+06 16
2 1494.7 1383.58 1350.38 0 0 0 449706 14
2 2680.7 1450.96 1916.17 -1 0 0 6.96251e+06 13
2 1352.98 2732.55 1550.02 0 -1 0 2.10064e+06 14
2 1732.86 2314.13 2318.06 0 -1 0 9.74095e+06 20
2 1363.96 1479.37 1406.58 0 0 0 505350 18
2 1505.71 1494.96 2574.43 0 0 -1 417383 14
2 2080.87 2410.5 1585.09 1 -1 0 5.86886e+06 13
2 1631.19 1434.31 2603.67 -1 0 -1 1.52367e+06 14
2 1754.36 1827.27 1570.85 0 0 0 392308 12
2 2060.05 1550.02 2743.59 -1 0 -1 5.11147e+06 15
2 1621.3 1808.52 1570.87 0 0 0 893320 11
2 1979.17 1405.42 1758.57 0 0 0 3.23936e+06 14
2 1548.83 1265.84 1326.23 0 0 0 447446 15
2 1742.46 1282.65 1440.1 0 0 0 3.82022e+06 16
2 1972.39 2557.6 1982.56 0 -1 0 4.48241e+06 11
2 2447.81 2360.93 1541.42 -1 -1 0 6.86503e+06 17
2 1568.59 2723.85 1530.66 0 -1 0 2.666e+06 19
2 1709.02 1616.88 2638.32 0 0 -1 2.19735e+06 14
2 1630.83 1472.05 1793.62 0 0 0 3.18105e+06 15
2 2717.44 1406.97 1354 0 0 1 820467 11
2 1503.76 1411.77 2706.41 0 0 -1 444089 14
2 1275.55 1736.34 1355.44 0 0 0 423052 12
2 2011.94 1603.11 1309.72 0 0 0 2.66325e+06 15
2 1365.27 1413.35 1492.04 0 0 0 462592 15
2 1636.81 1535.18 1378.86 0 0 0 414499 13
2 1636.2 2003.79 2381.64 0 0 0 8.27709e+06 14
2 1547.79 2587.32 2557.79 0 0 -1 5.24853e+06 19
2 1719.43 2524.09 2606.48 0 0 -1 6.41437e+06 23
2 1507.88 1444.93 1727.27 0 0 0 846609 12
2 1390.5 1790.28 1445.89 0 0 0 1.01149e+06 12
2 2380.62 1912.04 1423.52 -1 0 0 4.7451e+06 14
2 1313.96 1597.27 1637.36 0 0 0 626282 11
2 2190.67 2649.6 2171.81 0 0 0 8.29253e+06 18
2 1564.7 1686.02 2606.82 0 0 -1 482448 12
2 1254.54 1635.74 2746.02 0 0 -1 432524 14
2 1649.48 1814 1264.79 0 0 0 3.28489e+06 20
2 1837.64 1741.17 1646.65 0 0 0 555980 13
2 2198.93 1547.9 1630.96 -1 1 0 3.26841e+06 9
2 1284 1279.46 1535.18 0 0 0 2.07487e+06 12
2 1597.49 1756.61 2737.95 0 0 0 415829 13
2 2731.1 1575.59 1488.79 -1 0 0 468810 13
2 1518.42 1581.61 1785.87 0 0 1 2.21876e+06 14
2 1900.48 1379.8 1757.96 0 0 0 2.56561e+06 13
2 1432.51 1533.34 1460.89 0 0 0 453697 14