LAMMPS data file, Author: Jerry Qin

1000 atoms
0 bonds
0 angles

2 atom types

-100 5100 xlo xhi
-100 5100 ylo yhi
-100 5100 zlo zhi

Masses

1 221851
2 422051

Atoms

1 1  1255.641 928.440 1324.785
2 1  2703.087 4999.463 1419.015
3 1  1506.646 98.502 1488.519
4 1  0.394 3856.705 3037.392
5 1  4527.974 4218.763 3081.996
6 1  1069.567 730.837 1169.557
7 1  652.098 1186.096 1006.565
8 1  2556.368 1936.692 2708.875
9 1  2833.983 2887.147 4279.138
10 1  2424.846 4266.602 828.310
11 1  2088.740 4431.521 3781.534
12 1  675.682 2720.759 4599.707
13 1  4301.674 4428.102 4875.184
14 1  1240.837 3532.919 880.917
15 1  1880.259 872.250 3415.163
16 1  1.333 0.970 3006.727
17 1  0.040 4999.974 2428.145
18 1  2093.784 2316.554 3085.765
19 1  1812.456 4765.287 2058.438
20 1  2087.915 1784.841 2813.453
21 1  1540.410 0.387 1272.225
22 1  3898.816 1087.261 3758.599
23 1  4271.083 273.230 3578.897
24 1  0.172 3204.770 1661.952
25 1  1118.143 1725.142 1116.947
26 1  2162.921 292.963 2469.557
27 1  897.368 3463.092 3322.860
28 1  3530.459 3510.460 1568.943
29 1  1730.831 2903.860 884.011
30 1  3907.618 422.015 589.142
31 1  1973.884 1726.928 3289.413
32 1  158.062 2649.234 839.463
33 1  3512.673 2707.242 3838.380
34 1  3758.439 2771.989 2836.909
35 1  1809.259 2481.800 3798.070
36 1  4897.821 2771.746 2325.184
37 1  2488.943 3210.843 2641.094
38 1  4998.429 209.759 2091.489
39 1  158.237 710.424 82.952
40 1  330.431 3248.052 4555.623
41 1  2953.010 3826.453 499.284
42 1  647.173 3922.465 1897.786
43 1  1203.108 306.286 4997.318
44 1  1334.653 4236.534 0.001
45 1  1925.004 883.982 1394.843
46 1  2368.297 4654.657 2253.240
47 1  1496.478 848.880 3794.106
48 1  3591.446 2802.552 716.224
49 1  4.499 1.956 1819.075
50 1  1430.352 407.924 0.000
51 1  684.427 506.786 934.049
52 1  1625.063 3210.013 1564.634
53 1  3170.498 1600.843 4232.915
54 1  946.912 2365.492 2360.545
55 1  2628.479 2367.653 1195.584
56 1  1556.746 7.728 741.019
57 1  74.298 792.011 553.915
58 1  1750.238 2068.243 1078.033
59 1  67.630 1465.578 3044.409
60 1  38.298 2138.228 3.136
61 1  146.318 0.000 1845.156
62 1  861.197 2175.480 0.000
63 1  1080.259 132.986 3105.059
64 1  261.014 1882.601 2539.846
65 1  0.000 457.282 230.554
66 1  1783.243 441.426 0.000
67 1  3942.421 14.867 2486.145
68 1  0.000 0.000 1037.273
69 1  22.004 390.364 1064.060
70 1  2591.698 3038.568 3303.643
71 1  2688.527 4008.405 2697.615
72 1  1498.460 297.691 729.918
73 1  4963.012 1554.845 4524.453
74 1  1077.617 1341.645 986.045
75 1  1158.869 2661.858 1107.240
76 1  2761.629 4999.999 1826.660
77 1  666.929 712.752 649.656
78 1  755.305 692.218 1205.336
79 1  0.000 1769.390 565.079
80 1  339.584 1072.009 340.388
81 1  534.895 680.639 481.176
82 1  675.068 40.586 1834.585
83 1  0.000 338.472 196.982
84 1  2138.327 2023.455 1423.712
85 1  339.140 762.392 813.661
86 1  168.068 1792.307 797.927
87 1  624.666 307.821 919.986
88 1  199.595 924.410 444.446
89 1  41.807 1141.440 649.959
90 1  103.100 616.904 808.254
91 1  487.608 3157.466 2647.238
92 1  315.515 818.560 84.102
93 1  439.965 4916.128 441.652
94 1  1361.539 6.925 253.580
95 1  4418.421 889.123 0.000
96 1  97.046 835.921 876.969
97 1  3213.442 0.000 1460.112
98 1  596.772 877.858 794.420
99 1  1905.116 2782.446 1134.279
100 1  3865.262 2643.569 2381.788
101 1  727.550 2290.227 3356.013
102 1  210.539 71.252 1070.483
103 1  1.763 1663.311 790.163
104 1  1508.761 114.013 313.249
105 1  510.052 2128.432 1116.417
106 1  367.046 1620.080 5000.000
107 1  399.631 949.248 540.554
108 1  991.783 1398.325 344.378
109 1  197.646 937.937 564.056
110 1  1551.619 871.990 311.836
111 1  1172.574 500.202 454.266
112 1  27.723 4990.132 3775.566
113 1  776.037 880.396 2.477
114 1  874.148 830.818 711.170
115 1  10.255 506.694 996.080
116 1  786.357 616.808 1119.145
117 1  523.309 107.617 1118.285
118 1  421.556 8.306 820.137
119 1  566.952 1278.149 1265.268
120 1  2713.734 3693.958 4936.946
121 1  531.005 3283.196 0.000
122 1  627.292 12.614 736.435
123 1  0.000 1222.981 728.170
124 1  1457.127 2736.951 92.154
125 1  478.332 80.156 588.257
126 1  2359.400 2034.955 1481.567
127 1  1559.991 710.050 3144.649
128 1  497.491 888.255 577.218
129 1  703.128 237.726 860.227
130 1  1402.573 1008.843 1077.078
131 1  625.436 437.510 445.308
132 1  198.949 1128.651 574.416
133 1  567.020 402.779 344.938
134 1  1980.777 577.873 2607.800
135 1  1213.354 826.090 1391.367
136 1  780.668 1875.405 987.276
137 1  166.442 622.188 1210.855
138 1  986.945 129.385 741.554
139 1  286.489 2485.857 1261.574
140 1  454.354 554.582 466.295
141 1  248.298 604.590 1929.575
142 1  0.016 317.331 314.833
143 1  781.637 776.634 216.367
144 1  776.533 1096.844 1995.919
145 1  114.160 378.092 473.515
146 1  1931.367 814.938 385.451
147 1  1469.487 855.527 4386.766
148 1  0.000 508.165 1480.449
149 1  1263.276 695.234 936.650
150 1  78.351 108.163 1308.467
151 1  1325.444 390.666 97.911
152 1  0.000 0.000 753.610
153 1  723.370 382.431 962.742
154 1  1131.961 853.708 1225.828
155 1  655.076 239.141 511.974
156 1  938.439 822.817 813.973
157 1  1044.284 487.618 588.084
158 1  157.524 35.153 1285.840
159 1  1014.314 1002.014 927.684
160 1  1113.464 1958.462 4456.236
161 1  183.724 853.886 324.530
162 1  3098.485 2831.239 2435.962
163 1  1.359 3123.376 0.444
164 1  2896.136 2880.693 559.625
165 1  237.764 593.210 303.581
166 1  1473.784 4101.971 1434.297
167 1  178.526 1306.257 295.683
168 1  490.141 835.499 454.906
169 1  457.567 870.055 185.259
170 1  1887.816 3182.392 203.088
171 1  187.292 3801.343 2064.261
172 1  5000.000 2769.757 464.628
173 1  1927.040 320.309 867.261
174 1  348.050 839.145 200.798
175 1  1128.391 256.026 1288.872
176 1  802.015 810.313 1102.953
177 1  986.018 3845.855 1338.677
178 1  3039.612 2700.611 3451.939
179 1  88.650 902.800 663.904
180 1  398.323 901.043 662.892
181 1  371.714 37.547 589.702
182 1  1159.993 0.000 629.574
183 1  148.379 890.793 3525.128
184 1  201.634 510.148 875.355
185 1  286.086 615.293 885.126
186 1  1597.649 697.822 1318.998
187 1  505.606 1286.823 682.211
188 1  0.000 1835.513 194.727
189 1  483.405 1052.687 609.904
190 1  67.788 4184.709 5000.000
191 1  881.594 996.094 4547.239
192 1  251.986 1404.248 544.514
193 1  1088.969 919.999 51.723
194 1  1074.292 3.505 973.928
195 1  427.333 765.015 577.681
196 1  727.960 3.857 1106.365
197 1  92.730 1340.931 583.078
198 1  0.000 2371.962 1660.166
199 1  584.750 1043.670 756.000
200 1  2355.888 4131.357 4851.213
201 1  625.237 49.052 1150.350
202 1  890.586 1053.456 1581.148
203 1  236.655 414.939 989.304
204 1  1019.787 345.215 6.081
205 1  194.114 660.101 1091.884
206 1  0.000 1198.313 867.377
207 1  0.000 261.812 1103.096
208 1  325.241 573.072 166.807
209 1  31.262 218.472 914.249
210 1  440.848 1600.468 30.410
211 1  1170.058 894.309 1073.908
212 1  72.200 198.722 1157.016
213 1  256.282 1982.405 853.463
214 1  2677.727 366.204 3712.140
215 1  1032.255 618.467 1442.591
216 1  247.582 502.286 219.840
217 1  667.270 384.785 535.896
218 1  583.577 1127.224 12.191
219 1  975.098 129.476 1112.107
220 1  179.917 841.520 616.049
221 1  1102.085 1382.618 1236.034
222 1  81.655 88.970 1034.320
223 1  1127.616 0.000 1122.274
224 1  1863.690 3140.090 1778.534
225 1  1461.779 462.844 229.677
226 1  832.670 1048.392 747.841
227 1  0.000 294.302 464.948
228 1  126.849 1290.627 153.194
229 1  394.838 3.476 487.642
230 1  753.660 794.080 627.219
231 1  826.543 783.066 1378.536
232 1  169.288 165.833 997.514
233 1  2528.392 2996.545 3590.290
234 1  508.655 1399.158 573.159
235 1  691.865 1838.472 1044.712
236 1  1600.157 1265.924 4101.583
237 1  119.337 265.880 441.409
238 1  519.687 978.090 1469.075
239 1  862.450 1618.968 340.314
240 1  373.123 181.177 1695.742
241 1  647.633 61.871 288.501
242 1  1180.918 761.969 834.285
243 1  67.811 260.919 131.916
244 1  1011.678 1069.503 777.601
245 1  546.784 1130.047 675.514
246 1  2611.625 1715.557 3952.736
247 1  651.744 1076.632 535.013
248 1  751.245 946.100 1070.415
249 1  539.426 1149.860 1142.960
250 1  313.501 787.314 364.485
251 1  784.302 527.813 1989.266
252 1  354.966 947.089 1229.651
253 1  73.739 137.324 182.448
254 1  945.373 806.372 551.751
255 1  2567.934 4721.798 2682.459
256 1  0.000 664.781 852.440
257 1  228.586 1221.365 1165.239
258 1  1013.764 1396.300 875.151
259 1  2620.937 3082.259 2595.452
260 1  569.850 935.846 490.405
261 1  1005.265 368.400 530.038
262 1  970.762 1229.388 7.259
263 1  1220.871 427.543 728.112
264 1  1115.920 1935.313 3499.955
265 1  602.529 634.779 742.094
266 1  0.000 783.330 925.780
267 1  481.885 1187.894 947.407
268 1  462.026 4.979 1219.536
269 1  580.944 577.778 907.082
270 1  911.687 544.552 726.381
271 1  870.389 328.768 1358.758
272 1  1178.457 136.376 583.519
273 1  59.676 261.855 1258.971
274 1  1567.294 860.905 1252.677
275 1  0.000 161.741 1003.156
276 1  939.913 1147.837 517.793
277 1  1834.827 3278.236 2975.861
278 1  1137.246 1172.030 950.850
279 1  1304.594 3988.042 1427.445
280 1  1297.128 890.196 590.176
281 1  9.978 499.646 1354.094
282 1  853.202 503.541 0.000
283 1  1319.308 1961.042 486.628
284 1  58.935 125.037 471.092
285 1  309.437 2797.729 0.000
286 1  799.542 623.847 1411.082
287 1  843.460 711.811 340.261
288 1  1119.275 700.833 720.337
289 1  62.255 276.298 1012.493
290 1  436.206 1565.390 765.035
291 1  737.948 232.685 744.171
292 1  656.935 165.902 346.673
293 1  799.641 3120.538 0.001
294 1  1250.814 491.099 255.548
295 1  472.013 1189.697 0.000
296 1  239.022 693.575 366.377
297 1  373.602 725.828 71.515
298 1  133.208 799.832 737.908
299 1  118.499 350.241 189.807
300 1  205.467 548.137 1302.290
301 1  817.279 2109.742 3908.760
302 1  663.121 1163.847 1114.866
303 1  841.708 899.321 947.320
304 1  1237.918 732.508 251.786
305 1  121.695 2533.309 243.290
306 1  777.064 454.532 1242.107
307 1  227.685 1540.828 403.359
308 1  3693.771 2633.917 3743.385
309 1  1107.387 588.541 673.497
310 1  886.011 719.760 0.000
311 1  0.008 1591.816 4122.891
312 1  668.975 939.816 1165.752
313 1  1801.452 412.194 431.393
314 1  952.269 1320.597 764.390
315 1  732.017 0.000 2463.453
316 1  932.753 3599.716 5000.000
317 1  83.035 114.089 919.613
318 1  1175.093 460.700 343.078
319 1  189.404 52.461 666.954
320 1  775.240 1137.574 495.802
321 1  1419.269 889.087 1066.654
322 1  626.557 215.841 776.909
323 1  1571.960 2420.076 1554.043
324 1  905.503 601.215 0.308
325 1  1843.330 1113.713 923.188
326 1  4999.999 3476.681 661.746
327 1  123.573 354.772 965.315
328 1  1061.952 437.334 956.094
329 1  1138.979 1153.298 804.820
330 1  531.909 1377.112 829.299
331 1  1420.243 887.517 0.000
332 1  1212.090 1236.671 304.943
333 1  885.493 379.658 37.735
334 1  2233.717 2217.281 0.000
335 1  207.914 1494.325 68.048
336 1  351.328 1165.660 485.295
337 1  1569.797 335.227 0.000
338 1  20.675 577.952 482.585
339 1  868.001 170.874 1087.179
340 1  1304.225 1015.920 968.430
341 1  654.174 617.656 0.000
342 1  825.889 239.363 854.109
343 1  1024.805 297.755 1299.066
344 1  1196.597 1056.384 309.676
345 1  1117.725 1829.220 250.636
346 1  0.000 218.833 210.332
347 1  790.535 1457.168 245.212
348 1  33.672 810.834 1316.183
349 1  96.979 490.449 1261.450
350 1  667.078 974.201 428.324
351 1  756.473 400.686 1114.921
352 1  863.576 392.236 1058.971
353 1  4655.043 96.713 2617.443
354 1  4059.319 641.472 3280.051
355 1  116.875 1194.594 231.450
356 1  89.125 1433.430 244.582
357 1  490.479 4981.680 2754.776
358 1  412.286 915.599 410.815
359 1  686.815 1063.910 1.676
360 1  2716.779 577.583 4592.414
361 1  4.264 462.901 793.100
362 1  239.491 592.100 96.953
363 1  550.692 675.948 1363.109
364 1  995.541 265.261 568.087
365 1  1014.845 519.733 470.765
366 1  456.571 564.824 31.593
367 1  412.562 152.690 1099.717
368 1  2322.677 3099.406 1309.970
369 1  998.722 917.827 1760.512
370 1  872.728 631.653 892.707
371 1  364.142 974.048 757.424
372 1  637.864 659.281 545.190
373 1  1803.505 2199.861 338.500
374 1  2651.287 3768.679 1087.444
375 1  1045.553 534.022 1146.691
376 1  24.197 695.628 497.669
377 1  72.747 398.003 287.948
378 1  1952.941 178.107 663.961
379 1  275.733 1047.751 1075.154
380 1  194.809 987.636 210.782
381 1  782.801 422.332 25.148
382 1  393.978 362.505 780.475
383 1  460.198 786.277 818.408
384 1  1693.876 1651.847 1098.260
385 1  917.595 6.635 799.704
386 1  3875.192 103.775 3394.202
387 1  1828.984 842.698 575.168
388 1  327.995 865.938 875.706
389 1  1337.040 2617.459 3822.245
390 1  3.674 736.401 389.284
391 1  0.000 109.630 1106.844
392 1  475.521 456.326 303.883
393 1  2400.425 0.000 1699.744
394 1  2415.250 2432.266 2581.336
395 1  1126.262 0.000 479.868
396 1  1240.384 746.194 613.802
397 1  1420.140 170.710 1010.378
398 1  1107.061 984.953 849.243
399 1  462.235 471.981 877.833
400 1  0.000 156.100 1511.504
401 1  770.942 157.067 458.017
402 1  2149.017 2940.803 3158.445
403 1  1308.724 651.454 394.937
404 1  2589.063 2394.682 2457.626
405 1  253.679 1226.013 580.423
406 1  899.119 536.335 95.006
407 1  4038.925 598.504 2331.920
408 1  840.992 1489.599 415.495
409 1  144.080 252.440 909.797
410 1  3187.420 2342.134 3504.003
411 1  862.323 24.696 689.353
412 1  861.935 3183.888 1032.038
413 1  1719.868 1527.792 2077.507
414 1  3526.338 3314.000 3352.945
415 1  1033.000 823.441 309.920
416 1  510.614 26.227 757.818
417 1  3175.478 1863.357 1398.529
418 1  270.551 0.000 611.133
419 1  1046.194 866.507 898.958
420 1  757.025 306.230 6.023
421 1  1404.205 3973.372 2143.828
422 1  2918.303 1700.214 2128.974
423 1  633.683 700.900 1250.789
424 1  0.000 1608.338 107.739
425 1  1593.105 880.414 0.000
426 1  172.050 177.468 724.384
427 1  92.222 205.362 810.914
428 1  8.234 1346.688 189.589
429 1  1726.839 1151.874 492.523
430 1  880.974 266.376 1015.673
431 1  482.344 1313.772 497.259
432 1  1042.750 104.541 856.086
433 1  1491.610 448.004 803.946
434 1  857.889 511.402 838.356
435 1  135.284 187.997 84.537
436 1  0.000 1506.947 818.147
437 1  432.047 638.570 109.897
438 1  668.420 875.520 374.766
439 1  0.000 1711.826 2982.751
440 1  2685.770 3031.811 2869.759
441 1  4357.609 1017.374 1030.582
442 1  1165.923 985.855 207.766
443 1  1897.086 781.799 275.292
444 1  276.022 1.000 1896.273
445 1  3920.811 1230.838 2752.670
446 1  1753.194 1389.913 4839.473
447 1  4194.506 823.044 458.022
448 1  3626.278 2733.644 1381.821
449 1  1171.950 0.000 753.901
450 1  733.382 1479.062 1448.624
451 1  1095.710 436.440 505.031
452 1  33.167 132.535 3880.085
453 1  1535.554 3326.190 3888.461
454 1  498.301 944.320 818.110
455 1  176.433 518.466 617.400
456 1  518.496 379.307 1211.878
457 1  572.377 1370.774 403.649
458 1  0.825 961.202 699.567
459 1  2261.982 1296.860 4864.160
460 1  1053.765 688.504 1027.254
461 1  3698.841 0.000 3577.343
462 1  256.909 83.372 535.712
463 1  1140.851 763.128 979.935
464 1  2712.488 1273.038 1369.222
465 1  960.660 342.827 787.774
466 1  1286.851 1009.066 218.966
467 1  878.551 429.695 148.351
468 1  910.557 95.889 470.503
469 1  2234.123 1017.097 1554.528
470 1  686.648 23.277 1249.898
471 1  3084.405 4290.068 1044.511
472 1  622.841 183.148 670.412
473 1  740.642 168.971 210.578
474 1  359.276 4778.560 872.967
475 1  404.856 874.475 782.792
476 1  484.471 1431.854 266.570
477 1  1070.541 336.070 110.496
478 1  402.592 1711.852 29.717
479 1  0.001 0.000 3551.453
480 1  1454.578 3190.424 480.639
481 1  674.828 937.005 6.657
482 1  1680.322 2251.102 1709.847
483 1  571.882 304.734 1100.256
484 1  285.465 1275.512 455.238
485 1  37.264 429.881 130.718
486 1  949.910 1857.509 0.000
487 1  488.773 1036.619 1245.918
488 1  517.584 341.935 21.718
489 1  61.936 310.517 559.444
490 1  764.605 814.241 102.987
491 1  1381.328 138.308 0.443
492 1  966.598 1598.200 259.988
493 1  3007.604 3771.272 2432.705
494 1  1358.819 765.182 470.343
495 1  337.979 551.076 983.446
496 1  2861.902 0.000 355.268
497 1  0.000 1115.664 1111.908
498 1  776.601 1013.272 96.831
499 1  638.223 2202.507 880.774
500 1  1112.154 128.854 132.724
501 1  39.673 1680.203 1212.150
502 1  126.827 0.000 1080.863
503 1  939.143 387.340 244.281
504 1  3608.513 1372.308 2085.226
505 1  658.276 398.180 673.403
506 1  853.353 947.730 683.957
507 1  1365.151 975.017 644.312
508 1  1015.116 223.706 0.292
509 1  0.000 1265.077 579.704
510 1  304.334 468.464 917.881
511 1  924.618 263.382 297.246
512 1  1065.841 451.069 397.553
513 1  761.114 1096.540 1609.370
514 1  485.720 1309.780 0.000
515 1  1343.622 610.468 126.742
516 1  0.000 1015.684 4314.592
517 1  390.019 510.804 1414.749
518 1  1398.626 0.000 1324.317
519 1  430.973 1329.867 1006.054
520 1  151.058 574.676 211.280
521 1  1286.090 928.812 347.088
522 1  1403.362 2421.883 3845.264
523 1  1888.936 2522.035 1834.484
524 1  609.057 139.310 1039.021
525 1  952.939 79.465 617.962
526 1  1215.386 33.026 535.391
527 1  4707.300 2071.479 354.815
528 1  217.504 281.482 200.608
529 1  257.397 235.233 1170.786
530 1  354.002 1361.769 21.754
531 1  1558.403 366.107 454.724
532 1  420.136 270.104 525.145
533 1  118.855 10.187 868.995
534 1  323.781 357.825 488.187
535 1  744.451 349.418 250.933
536 1  88.688 1134.772 841.521
537 1  906.856 513.041 417.712
538 1  561.096 541.165 515.791
539 1  1225.752 84.977 75.179
540 1  717.139 668.127 1333.110
541 1  132.209 1238.446 56.506
542 1  951.061 724.615 640.771
543 1  1670.429 3067.482 203.154
544 1  1185.950 937.390 1.702
545 1  338.875 0.000 1406.245
546 1  1260.006 42.803 1544.384
547 1  863.685 111.725 773.408
548 1  814.863 206.442 1348.687
549 1  1002.844 1070.571 622.852
550 1  1014.523 873.931 1015.508
551 1  1991.945 4265.995 0.000
552 1  186.616 2291.732 811.411
553 1  2523.397 1698.547 719.263
554 1  338.569 1186.396 864.481
555 1  700.526 103.619 767.989
556 1  940.815 1203.349 113.574
557 1  1785.147 1952.500 363.076
558 1  848.798 862.839 597.859
559 1  208.498 117.138 845.107
560 1  524.580 688.196 37.862
561 1  694.735 68.116 1001.973
562 1  1401.646 853.081 2194.101
563 1  779.336 110.362 1061.599
564 1  212.720 73.717 232.879
565 1  1197.217 881.957 136.700
566 1  445.089 0.000 662.611
567 1  70.538 692.818 1264.075
568 1  910.810 67.230 310.411
569 1  709.612 2314.114 3657.100
570 1  471.969 724.354 1250.017
571 1  833.710 3592.099 2348.490
572 1  572.983 314.676 441.961
573 1  577.590 1265.836 826.348
574 1  603.227 1250.878 932.295
575 1  0.000 619.677 1347.705
576 1  1302.964 0.000 1213.032
577 1  78.643 642.790 1123.631
578 1  915.797 2036.246 3265.132
579 1  697.520 287.598 643.754
580 1  1306.273 567.409 1519.427
581 1  177.609 3414.261 2003.585
582 1  703.150 302.117 106.810
583 1  760.718 603.699 1526.451
584 1  269.130 1038.175 1225.171
585 1  577.826 471.955 1303.652
586 1  145.829 881.255 213.695
587 1  901.939 4999.073 1063.878
588 1  880.204 1061.111 637.266
589 1  878.187 1582.382 484.040
590 1  2407.951 448.093 2484.078
591 1  495.249 2376.039 1975.945
592 1  1141.938 266.160 183.669
593 1  110.832 286.480 711.988
594 1  1123.981 1065.391 494.608
595 1  485.442 407.851 1098.295
596 1  2114.658 682.188 2419.308
597 1  1015.359 364.756 1049.694
598 1  1949.413 1545.007 2373.506
599 1  2166.671 982.478 626.133
600 1  2468.096 3815.650 2566.188
601 1  960.751 454.907 0.000
602 1  247.191 759.280 10.347
603 1  1435.256 2475.757 842.635
604 1  1653.692 841.800 1101.608
605 1  1891.980 637.211 695.135
606 1  1501.323 25.398 141.030
607 1  33.689 1337.490 718.133
608 1  985.413 614.986 602.788
609 1  426.996 4007.343 4553.090
610 1  1008.557 0.000 870.983
611 1  3379.402 3012.434 3194.939
612 1  21.970 678.825 1022.978
613 1  2581.732 758.115 504.723
614 1  828.387 899.363 784.136
615 1  13.369 375.137 1257.603
616 1  1483.493 0.000 276.058
617 1  957.540 204.087 443.547
618 1  1083.912 1364.621 591.886
619 1  1792.309 62.911 342.553
620 1  1740.839 1105.164 2424.461
621 1  1745.727 1237.035 618.017
622 1  1198.463 969.325 489.408
623 1  1514.664 555.469 1748.576
624 1  285.161 259.596 441.343
625 1  352.141 3442.849 790.377
626 1  30.824 544.224 138.698
627 1  1058.680 778.528 628.780
628 1  2290.076 480.083 1261.982
629 1  99.671 688.778 319.976
630 1  169.853 180.484 1107.704
631 1  479.646 834.708 1200.984
632 1  53.341 1466.937 937.648
633 1  106.921 497.960 815.857
634 1  0.000 1467.999 0.272
635 1  446.183 1563.151 1127.774
636 1  373.161 485.811 1297.193
637 1  523.509 1534.543 80.677
638 1  320.694 66.884 105.958
639 1  304.721 2973.493 920.189
640 1  616.214 2003.592 1686.854
641 1  1000.780 439.156 102.045
642 1  358.939 684.532 291.513
643 1  1116.538 1883.446 1937.302
644 1  868.628 718.510 108.888
645 1  3525.588 3199.872 1943.988
646 1  1052.783 19.598 563.745
647 1  2797.902 3902.521 2081.537
648 1  128.183 1115.485 148.607
649 1  680.107 823.866 724.887
650 1  233.485 282.019 705.079
651 1  99.880 742.303 947.286
652 1  479.701 1918.536 4535.530
653 1  927.376 767.540 295.629
654 1  310.687 44.056 1012.539
655 1  2115.371 1767.384 2106.290
656 1  210.858 1037.675 830.781
657 1  3264.987 4249.539 606.366
658 1  1289.732 191.138 610.204
659 1  395.741 527.605 657.580
660 1  239.127 835.251 951.875
661 1  291.819 148.796 1092.977
662 1  817.535 888.670 196.331
663 1  2608.053 682.523 2896.069
664 1  3075.195 1054.419 1443.151
665 1  72.504 454.320 914.107
666 1  184.427 452.451 1373.366
667 1  422.795 87.332 998.405
668 1  334.661 113.318 899.088
669 1  300.566 971.015 644.437
670 1  465.339 0.000 1829.599
671 1  1789.664 1588.691 1880.574
672 1  0.000 1077.003 3274.501
673 1  2391.728 566.904 3242.219
674 1  3493.055 314.556 0.000
675 1  254.982 11.912 1174.750
676 1  1528.729 442.462 1813.990
677 1  1904.841 178.573 292.997
678 1  1791.249 0.000 828.250
679 1  0.002 3078.492 3230.424
680 1  1110.818 670.617 902.176
681 1  2631.329 2746.557 3420.556
682 1  3989.555 4156.880 3673.699
683 1  1182.180 1056.210 911.873
684 1  1521.714 1106.323 1123.429
685 1  1274.529 3144.907 574.621
686 1  578.865 546.370 36.703
687 1  4240.877 2476.062 1967.376
688 1  757.936 2716.498 798.090
689 1  286.530 1673.282 303.721
690 1  1141.629 3762.854 4355.057
691 1  2034.396 2256.730 4144.512
692 1  211.724 1076.398 2486.787
693 1  462.615 452.163 596.750
694 1  978.893 982.425 560.754
695 1  3165.230 3421.475 3.861
696 1  3312.208 584.407 3225.496
697 1  2865.007 564.634 1841.692
698 1  3026.904 3609.904 3680.885
699 1  3272.822 1994.895 2392.405
700 1  0.000 1603.105 1120.309
701 2  1871.464 1597.901 1.479
702 2  4584.384 0.048 3503.134
703 2  3906.219 2664.077 1.477
704 2  751.811 3036.484 2633.810
705 2  2113.750 2446.667 4288.511
706 2  4999.445 2497.478 4997.995
707 2  11.604 2781.962 8.258
708 2  2716.662 0.043 3695.999
709 2  1453.728 5000.000 5000.000
710 2  241.480 1719.334 2021.802
711 2  1.059 4691.062 2661.848
712 2  1600.650 4998.934 1.596
713 2  4999.809 3388.769 1.741
714 2  3.213 129.371 1877.313
715 2  1.919 4997.838 1.551
716 2  559.922 131.473 3838.957
717 2  1480.376 1.839 3.495
718 2  0.001 1272.551 1578.371
719 2  1350.991 1091.701 4999.998
720 2  3239.272 1353.769 4999.993
721 2  4999.875 4992.163 7.140
722 2  1433.066 0.014 460.239
723 2  8.724 958.177 4.723
724 2  247.640 4378.676 5000.000
725 2  4977.918 3622.409 2691.686
726 2  2157.502 5000.000 774.722
727 2  1531.949 133.605 2516.902
728 2  451.542 3714.843 0.000
729 2  2848.373 3346.871 459.830
730 2  4054.786 57.682 1872.901
731 2  1801.819 1789.493 1676.690
732 2  1811.996 1629.654 2112.147
733 2  2556.554 429.771 1206.134
734 2  191.395 968.056 1803.610
735 2  1208.741 1893.188 623.713
736 2  688.259 1147.448 348.586
737 2  3077.559 3985.428 4730.978
738 2  875.136 1212.309 372.691
739 2  0.000 4455.348 2079.861
740 2  659.955 586.107 426.031
741 2  0.000 2003.054 154.148
742 2  1678.217 197.795 343.757
743 2  437.699 1026.508 1095.782
744 2  143.036 196.881 297.634
745 2  1067.140 877.148 746.760
746 2  2473.627 3142.210 2341.821
747 2  1041.309 461.546 731.377
748 2  681.740 2087.614 1384.750
749 2  958.536 657.810 403.055
750 2  643.292 550.674 1170.307
751 2  0.000 746.462 0.000
752 2  1114.579 230.930 475.694
753 2  774.717 146.447 640.185
754 2  23.573 1453.208 1453.645
755 2  844.665 280.482 165.145
756 2  722.488 611.931 849.786
757 2  834.488 830.919 441.267
758 2  140.773 357.451 1156.186
759 2  819.265 665.065 526.809
760 2  2828.528 4202.246 1715.821
761 2  370.870 139.290 457.169
762 2  459.112 569.175 1199.496
763 2  1089.611 1112.088 132.481
764 2  1394.411 827.817 300.973
765 2  0.000 981.510 1011.995
766 2  153.882 1107.384 991.123
767 2  833.417 400.412 722.956
768 2  928.641 666.389 1147.004
769 2  179.171 1211.186 766.361
770 2  913.476 364.121 393.938
771 2  784.705 990.117 539.485
772 2  573.798 1241.366 219.914
773 2  129.663 592.136 963.094
774 2  770.682 460.022 464.600
775 2  170.302 1174.994 392.962
776 2  203.167 355.784 348.642
777 2  1055.572 1943.625 1540.054
778 2  1280.343 550.225 643.764
779 2  447.178 1581.017 303.261
780 2  283.705 206.651 5.206
781 2  190.109 985.091 62.742
782 2  1050.896 506.267 233.335
783 2  322.793 507.678 536.138
784 2  753.820 460.148 3827.666
785 2  123.594 1368.275 0.000
786 2  324.074 717.828 666.202
787 2  910.542 235.389 691.008
788 2  1469.727 260.100 345.532
789 2  1182.803 432.148 124.501
790 2  574.577 0.000 1029.347
791 2  749.525 804.474 862.473
792 2  605.765 1229.149 548.146
793 2  355.971 497.865 789.750
794 2  292.753 0.000 750.179
795 2  796.869 1556.630 730.564
796 2  705.225 737.078 361.790
797 2  557.087 950.930 128.661
798 2  676.509 176.866 1632.710
799 2  460.128 2569.084 4119.028
800 2  1095.729 228.819 678.784
801 2  676.847 425.295 820.442
802 2  222.054 588.131 733.659
803 2  1276.167 340.296 257.603
804 2  1122.508 139.901 318.048
805 2  1181.423 330.548 1047.598
806 2  1341.815 1499.844 2638.589
807 2  116.956 2994.508 1475.904
808 2  5000.000 381.639 4638.101
809 2  98.955 1012.944 1148.300
810 2  0.000 33.039 383.425
811 2  209.151 716.813 213.360
812 2  1199.308 798.163 16.170
813 2  0.000 909.870 538.700
814 2  940.457 638.651 212.333
815 2  1030.861 0.000 283.008
816 2  452.395 803.663 309.232
817 2  838.132 497.786 280.568
818 2  84.995 73.145 1621.067
819 2  2540.089 2586.276 1770.992
820 2  727.848 709.149 1010.605
821 2  0.000 4305.450 1982.692
822 2  1310.832 527.828 460.794
823 2  1019.901 739.887 1314.538
824 2  421.826 1200.823 359.344
825 2  760.592 597.756 122.460
826 2  706.595 964.597 821.676
827 2  4908.592 1606.513 1858.202
828 2  420.471 776.388 968.831
829 2  1134.341 607.802 363.485
830 2  369.377 682.841 460.413
831 2  895.135 1210.712 671.610
832 2  57.316 989.510 843.354
833 2  108.843 664.117 632.046
834 2  740.077 20.799 466.886
835 2  4035.241 3766.925 2755.534
836 2  592.605 740.304 885.261
837 2  1643.337 1425.389 936.218
838 2  444.267 0.000 352.624
839 2  1189.933 593.993 177.475
840 2  996.473 652.073 800.699
841 2  945.977 74.579 974.823
842 2  398.592 430.999 83.028
843 2  4064.584 3255.989 338.118
844 2  398.692 294.941 1157.059
845 2  1055.910 3681.691 3170.566
846 2  823.772 670.156 708.202
847 2  82.395 1232.928 2650.584
848 2  443.267 398.665 1545.515
849 2  3222.024 3494.025 642.878
850 2  86.263 2627.738 10.267
851 2  874.006 1508.408 2129.180
852 2  1116.269 666.573 540.087
853 2  768.766 785.990 1830.747
854 2  680.764 546.302 637.756
855 2  1169.745 503.731 860.662
856 2  526.746 323.749 802.186
857 2  997.549 564.485 983.321
858 2  1312.535 832.343 1197.907
859 2  302.595 927.844 324.013
860 2  569.873 122.469 873.476
861 2  503.059 626.981 339.398
862 2  195.793 375.161 808.671
863 2  99.231 547.147 340.724
864 2  467.039 412.383 442.680
865 2  4.304 1134.306 2.330
866 2  1302.017 269.351 429.314
867 2  456.853 1092.481 826.544
868 2  307.637 145.074 662.713
869 2  610.268 1073.273 917.786
870 2  1223.251 360.573 582.814
871 2  431.836 649.156 816.637
872 2  1253.972 106.381 420.735
873 2  31.625 1083.176 293.225
874 2  472.587 596.246 1014.956
875 2  1269.699 1209.859 1608.687
876 2  152.700 191.902 572.289
877 2  512.850 102.324 188.476
878 2  866.259 373.115 905.619
879 2  2969.623 484.843 176.843
880 2  891.530 0.000 1122.450
881 2  787.724 28.642 237.365
882 2  40.055 1326.990 1289.153
883 2  62.642 0.000 2164.542
884 2  45.850 438.471 614.271
885 2  362.890 1120.373 55.304
886 2  1100.036 330.407 852.004
887 2  287.817 1035.878 483.206
888 2  784.190 110.847 890.788
889 2  1172.864 808.112 372.854
890 2  649.761 3843.097 2361.260
891 2  1209.188 1331.051 85.306
892 2  1265.627 910.614 790.020
893 2  177.571 2187.134 0.000
894 2  74.836 2929.281 68.491
895 2  367.180 305.444 651.714
896 2  576.312 434.766 986.367
897 2  630.504 952.005 640.152
898 2  722.374 1453.271 539.618
899 2  703.850 299.712 393.703
900 2  168.890 53.125 101.446
901 2  4997.894 1172.257 5000.000
902 2  478.287 243.464 963.561
903 2  546.818 298.920 625.274
904 2  476.251 629.883 599.116
905 2  2517.868 2832.918 1940.623
906 2  351.891 507.060 360.484
907 2  691.182 1027.863 213.341
908 2  202.577 372.806 582.976
909 2  650.459 821.144 503.989
910 2  528.229 499.331 736.061
911 2  199.877 723.637 850.263
912 2  1075.031 880.789 514.787
913 2  138.096 766.274 431.930
914 2  613.025 794.025 229.435
915 2  717.545 249.106 1039.556
916 2  1392.137 371.042 1865.010
917 2  0.000 643.934 232.400
918 2  560.038 960.151 316.748
919 2  793.779 512.013 1021.330
920 2  618.458 285.779 228.346
921 2  601.988 263.781 1356.317
922 2  0.000 424.979 405.443
923 2  483.750 165.036 710.582
924 2  1064.553 324.223 301.146
925 2  1133.882 2780.085 1757.390
926 2  251.613 279.625 1023.535
927 2  902.270 494.165 577.876
928 2  479.657 1052.224 458.340
929 2  1127.934 1610.993 498.253
930 2  341.959 694.087 1123.293
931 2  797.841 970.903 333.017
932 2  42.222 338.590 18.278
933 2  294.679 878.575 1088.817
934 2  303.158 1098.776 733.170
935 2  1513.788 4620.078 290.435
936 2  2430.718 3203.016 1576.357
937 2  635.702 1534.568 410.208
938 2  765.738 1185.987 158.324
939 2  852.095 1100.127 918.813
940 2  947.738 542.072 1312.775
941 2  334.707 1006.205 939.042
942 2  570.379 722.618 1112.094
943 2  1084.782 788.938 184.237
944 2  395.497 391.696 991.916