ITEM: TIMESTEP
0
ITEM: NUMBER OF ATOMS
1000
ITEM: BOX BOUNDS pp pp pp
-2.0000000000000000e+02 3.2000000000000000e+03
-2.0000000000000000e+02 3.2000000000000000e+03
-2.0000000000000000e+02 3.2000000000000000e+03
ITEM: ATOMS type x y z ix iy iz
1 1987.83 2579.9 178.265 0 0 0
1 1709.33 0.372 1900.32 0 0 0
1 1291.14 877.535 1519.07 0 0 0
1 1368.45 2931.24 603.526 0 0 0
1 2999.93 952.85 0.072 0 0 0
1 2944.3 2872.59 49.24 0 0 0
1 730.946 831.753 141.691 0 0 0
1 1212.12 1449.31 607.365 0 0 0
1 2041.27 1791.97 2007.77 0 0 0
1 874.411 2185.46 734.263 0 0 0
1 761.351 849.402 1934.31 0 0 0
1 2129.15 1635.05 192.428 0 0 0
1 2145.24 1846.22 1696.9 0 0 0
1 2089.2 102.876 1485.95 0 0 0
1 1819.52 525.647 1529.01 0 0 0
1 1372.38 1526.41 1480.43 0 0 0
1 867.399 1539.08 456.436 0 0 0
1 275.404 2136.64 919.593 0 0 0
1 813.06 1898.9 1513.34 0 0 0
1 1301.84 1041.06 158.805 0 0 0
1 2312.71 1198.7 615.554 0 0 0
1 1147.56 508.487 1638.53 0 0 0
1 2903.66 2216.9 2496.05 0 0 0
1 2219.28 1937.38 1123.79 0 0 0
1 592.388 1686.84 2096.48 0 0 0
1 1544.25 2442.08 2687.57 0 0 0
1 1373.96 1777.47 2209.74 0 0 0
1 2675.71 32.813 2222.31 0 0 0
1 1040.88 982.313 1397.39 0 0 0
1 971.634 2678.97 2029.72 0 0 0
1 2594.22 661.832 686.036 0 0 0
1 1986.47 2877.85 2541.92 0 0 0
1 592.224 611.422 1586.01 0 0 0
1 390.205 854.878 1234.25 0 0 0
1 1764.77 1364.45 2166.6 0 0 0
1 776.227 672.569 283.186 0 0 0
1 187.455 2719.67 754.756 0 0 0
1 771.558 119.918 467.219 0 0 0
1 674.198 141.041 789.267 0 0 0
1 1512.67 1525.38 77.693 0 0 0
1 745.724 723.984 81.055 0 0 0
1 532.067 874.995 151.923 0 0 0
1 541.016 875.4 346.59 0 0 0
1 923.132 202.242 967.064 0 0 0
1 1672.41 2641.66 2211.01 0 0 0
1 896.043 7.431 0.665 0 0 0
1 1007.54 833.329 1001.75 0 0 0
1 820.517 340.653 378.827 0 0 0
1 1050.22 2405.09 354.638 0 0 0
1 628.754 660.062 519.185 0 0 0
1 881.099 340.064 931.626 0 0 0
1 953.914 914.636 327.681 0 0 0
1 74.235 244.649 894.832 0 0 0
1 1024.81 887.422 604.631 0 0 0
1 1126.81 225.536 248.45 0 0 0
1 26.047 220.614 1007.22 0 0 0
1 394.016 752.136 786.739 0 0 0
1 1001.6 492.115 675.142 0 0 0
1 790.089 452.791 250.744 0 0 0
1 954.377 371.034 496.228 0 0 0
1 176.024 718.081 608.391 0 0 0
1 328.325 442.875 641.484 0 0 0
1 907.029 267.304 840.379 0 0 0
1 713.577 2356.64 1161.75 0 0 0
1 1716.82 1270.39 1798.77 0 0 0
1 399.142 842.202 444.983 0 0 0
1 256.806 434.84 445.15 0 0 0
1 390.481 380.812 401.783 0 0 0
1 308.051 774.227 937.576 0 0 0
1 989.423 815.229 112.97 0 0 0
1 577.941 353.702 434.491 0 0 0
1 23.518 725.734 326.742 0 0 0
1 1711.97 1968.13 1216.7 0 0 0
1 881.871 826.873 148.475 0 0 0
1 863.561 401.198 86.031 0 0 0
1 739.149 287.87 692.18 0 0 0
1 397.136 514.952 717.476 0 0 0
1 525.712 365.582 301.007 0 0 0
1 327.365 723.728 109.962 0 0 0
1 1842.04 1922.22 289.438 0 0 0
1 789.637 780.055 495.946 0 0 0
1 556.169 485.007 503.709 0 0 0
1 778.668 496.05 952.656 0 0 0
1 955.643 489.276 64.953 0 0 0
1 1567.2 192.402 607.986 0 0 0
1 2374.39 2841.9 1433.08 0 0 0
1 312.654 585.95 1017.88 0 0 0
1 934.124 1622.07 319.118 0 0 0
1 1010.63 697.981 76.782 0 0 0
1 894.724 1504.43 108.926 0 0 0
1 1282.68 2110.21 1607.57 0 0 0
1 944.723 497.989 1028.42 0 0 0
1 695.877 329.783 827.074 0 0 0
1 2274.18 2951.19 1069.58 0 0 0
1 1047.33 649.799 775.839 0 0 0
1 33.888 481.914 603.322 0 0 0
1 746.246 1032.29 899.443 0 0 0
1 712.795 560.994 1021.7 0 0 0
1 196.209 553.321 440.472 0 0 0
1 974.493 756.465 266.595 0 0 0
1 927.89 618.412 320.728 0 0 0
1 663.68 131.042 567.924 0 0 0
1 2413.37 635.285 121.27 0 0 0
1 960.798 333.459 55.724 0 0 0
1 978.507 706.869 644.179 0 0 0
1 987.208 503.1 788.145 0 0 0
1 266.396 239.009 1032.17 0 0 0
1 136.171 637.744 807.794 0 0 0
1 624.549 569.114 448.319 0 0 0
1 195.436 13.187 385.134 0 0 0
1 2034.51 1607.32 0 0 0 0
1 202.85 615.527 561.265 0 0 0
1 1516.24 1187.79 361.959 0 0 0
1 223.503 722.159 481.131 0 0 0
1 21.847 584.497 727.333 0 0 0
1 880.282 114.644 449.242 0 0 0
1 132.734 1076.77 518.913 0 0 0
1 2395.77 243.383 664.375 0 0 0
1 1096.37 1116.57 1492.41 0 0 0
1 823.913 586.411 1021.3 0 0 0
1 809.552 34.834 150.523 0 0 0
1 1162.68 2977.05 2663.3 0 0 0
1 938.205 715.195 749.215 0 0 0
1 657.949 566.069 1478.65 0 0 0
1 1011.09 530.407 941.625 0 0 0
1 300.099 459.62 999.902 0 0 0
1 899.179 640.545 71.629 0 0 0
1 439.775 772.695 127.373 0 0 0
1 1806.04 2051.18 2993.74 0 0 0
1 611.957 248.494 823.036 0 0 0
1 1803.88 1860.96 1297.41 0 0 0
1 157.908 222.229 1024.94 0 0 0
1 745.972 645.934 486.666 0 0 0
1 488.937 25.118 1029.78 0 0 0
1 808.331 512.271 1126.45 0 0 0
1 657.129 126.872 420.306 0 0 0
1 444.484 296.562 468.181 0 0 0
1 944.316 903.978 0 0 0 0
1 864.674 271.565 570.866 0 0 0
1 2838.37 648.136 699.513 0 0 0
1 665.651 462.354 772.809 0 0 0
1 2143.96 712.647 2185.11 0 0 0
1 326.769 313.148 460.681 0 0 0
1 1528.12 1991.37 2840.43 0 0 0
1 1124.84 647.702 494.761 0 0 0
1 358.128 801.919 200.304 0 0 0
1 127.339 4.912 976.611 0 0 0
1 333.008 220.088 939.806 0 0 0
1 782.601 132.799 600.179 0 0 0
1 693.09 588.899 852.78 0 0 0
1 691.694 1758.47 2354.74 0 0 0
1 1033.28 701.068 370.533 0 0 0
1 394.103 805.68 1021.38 0 0 0
1 1032.49 474.136 533.398 0 0 0
1 586.353 263.925 140.682 0 0 0
1 661.444 203.926 926.645 0 0 0
1 1003.42 95.248 1022.73 0 0 0
1 259.727 841.496 652.163 0 0 0
1 2890.68 1410.03 1478.83 0 0 0
1 536.984 383.176 709.714 0 0 0
1 1044.3 2051.55 787.228 0 0 0
1 879.601 379.126 229.902 0 0 0
1 715.457 340.433 15.833 0 0 0
1 793.311 510.425 1697.74 0 0 0
1 1165.71 2850.86 405.93 0 0 0
1 562.811 1097.75 316.962 0 0 0
1 854.218 754.738 61.399 0 0 0
1 554.263 696.678 620.106 0 0 0
1 717.883 405.866 690.172 0 0 0
1 579.702 976.471 366.764 0 0 0
1 417.232 595.213 643.537 0 0 0
1 1479.14 1647.77 524.139 0 0 0
1 209.933 756.709 171.924 0 0 0
1 765.978 848.289 1591.22 0 0 0
1 938.682 527.985 553.438 0 0 0
1 106.982 340.611 674.498 0 0 0
1 197.074 309.885 425.232 0 0 0
1 1035.3 354.473 421.752 0 0 0
1 310.538 560.331 619.578 0 0 0
1 2601.82 1571.75 2556.01 0 0 0
1 1061.97 1105.2 2329.16 0 0 0
1 575.385 399.999 118.592 0 0 0
1 876.227 244.699 35.156 0 0 0
1 1886.11 1129.73 2690.53 0 0 0
1 1277.49 57.625 1758.84 0 0 0
1 734.949 924.324 0.001 0 0 0
1 848.206 722.845 572.788 0 0 0
1 2526.16 1156.34 1779.93 0 0 0
1 424.698 296.79 329.891 0 0 0
1 546.236 409.957 1112.87 0 0 0
1 790.756 311.205 247.13 0 0 0
1 1727.8 819.625 2399.61 0 0 0
1 292.866 772.653 330.373 0 0 0
1 954.762 777.946 2.699 0 0 0
1 724.841 1029.85 579.664 0 0 0
1 73.995 185.507 773.379 0 0 0
1 1120.84 1073.55 2979.5 0 0 0
1 961.114 553.355 162.011 0 0 0
1 2942.85 2813.7 1829.04 0 0 0
1 1259.08 2769.21 912.863 0 0 0
1 557.892 744.347 324.199 0 0 0
1 381.276 479.848 889.45 0 0 0
1 1654.32 1118.19 2527.72 0 0 0
1 210.131 0 276.912 0 0 0
1 137.282 1530.56 871.701 0 0 0
1 890.922 56.312 236.801 0 0 0
1 718.78 922.338 885.163 0 0 0
1 489.995 135.07 736.943 0 0 0
1 2893.15 2352.65 2467.69 0 0 0
1 176.012 955.025 2014.41 0 0 0
1 876.48 200.484 177.473 0 0 0
1 472.846 321.136 186.51 0 0 0
1 564.442 255.591 256.784 0 0 0
1 644.528 672.747 950.3 0 0 0
1 1828.47 97.233 2282.49 0 0 0
1 921.372 724.097 154.075 0 0 0
1 577.775 232.601 388.64 0 0 0
1 184.574 746.75 1044.72 0 0 0
1 2218.66 2673.93 2330.6 0 0 0
1 512.671 881.944 862.262 0 0 0
1 2260.93 2946.66 1593.68 0 0 0
1 192.392 891.486 1038.82 0 0 0
1 1021.28 1368.14 2335.58 0 0 0
1 1022.81 176.318 759.163 0 0 0
1 319.371 2502.39 811.616 0 0 0
1 582.646 47.737 437.373 0 0 0
1 716.056 970.978 741.545 0 0 0
1 807.092 314.889 798.118 0 0 0
1 158.934 747.188 715.93 0 0 0
1 654.908 249.73 0 0 0 0
1 825.634 759.179 226.454 0 0 0
1 215.522 678.858 89.808 0 0 0
1 296.867 710.855 222.302 0 0 0
1 278.234 14.228 816.779 0 0 0
1 422.381 48.05 166.461 0 0 0
1 424.285 2492.82 1598.61 0 0 0
1 443.646 310.205 685.149 0 0 0
1 1573.96 553.552 2803.63 0 0 0
1 2068.74 1672.47 1761.56 0 0 0
1 403.761 1603.54 154.013 0 0 0
1 2242.62 2356.19 1027.17 0 0 0
1 934.877 605.4 687.21 0 0 0
1 580.638 1714.57 1763.37 0 0 0
1 295.2 606.484 484.973 0 0 0
1 1386.43 1916.44 649.209 0 0 0
1 705.481 1286.54 1076.17 0 0 0
1 673.856 1394.85 1714.36 0 0 0
1 1459.22 2919.09 396.812 0 0 0
1 317.879 522.174 1119.96 0 0 0
1 367.732 822.674 706.528 0 0 0
1 704.694 938.018 1018.99 0 0 0
1 396.649 1025.73 536.066 0 0 0
1 776.452 398.576 880.562 0 0 0
1 2372.01 1514.23 2413.86 0 0 0
1 727.105 316.402 971.309 0 0 0
1 742.687 1029.5 256.826 0 0 0
1 570.635 913.428 960.62 0 0 0
1 666.279 840.194 984.84 0 0 0
1 607.876 2080.61 2320.63 0 0 0
1 716.348 2021.88 1494.25 0 0 0
1 162.79 218.291 698.012 0 0 0
1 505.372 445.075 610.67 0 0 0
1 740.193 456.274 470.515 0 0 0
1 595.73 790.107 695.028 0 0 0
1 705.029 571.24 690.399 0 0 0
1 1013.43 557.221 406.965 0 0 0
1 1489.18 2142.5 998.945 0 0 0
1 2547.09 2386.13 1146.16 0 0 0
1 1545.57 754.497 1612.58 0 0 0
1 962.377 984.926 489.583 0 0 0
1 856.208 1547.63 292.369 0 0 0
1 468.293 1046.21 777.095 0 0 0
1 1353.08 2139.59 8.183 0 0 0
1 504.013 435.172 419.678 0 0 0
1 192.769 109.923 326.3 0 0 0
1 1365.17 1156.92 1852.15 0 0 0
1 73.895 699.237 981.467 0 0 0
1 326.543 1109.14 291.444 0 0 0
1 222.105 672.489 374.41 0 0 0
1 697.83 249.31 1088.96 0 0 0
1 219.614 489.024 144.068 0 0 0
1 551.994 729.87 914.984 0 0 0
1 2841.95 1956.57 2986.17 0 0 0
1 622.017 716.23 1977.11 0 0 0
1 643.057 405.24 507.181 0 0 0
1 146.474 886.186 144.054 0 0 0
1 484.118 812.717 230.118 0 0 0
1 1572.44 984.408 1668.34 0 0 0
1 410.398 360.187 580.095 0 0 0
1 472.158 203.175 215.739 0 0 0
1 720.095 2992.72 462.403 0 0 0
1 130.725 183.958 237.552 0 0 0
1 333.002 599.647 190.441 0 0 0
1 457.079 1394.52 1075.17 0 0 0
1 1107.76 1891.68 310.107 0 0 0
1 1019.78 334.439 929.647 0 0 0
1 318.812 618.667 359.975 0 0 0
1 621.023 879.31 783.944 0 0 0
1 1039.9 170.297 917.41 0 0 0
1 301.209 281.197 854.034 0 0 0
1 1024.34 37.696 372.353 0 0 0
1 80.21 371.233 1031.25 0 0 0
1 450.383 729.452 643.425 0 0 0
1 68.73 479.042 291.349 0 0 0
1 501.511 918.078 446.102 0 0 0
1 664.052 650.064 763.145 0 0 0
1 308.802 12.623 185.615 0 0 0
1 999.383 817.561 374.961 0 0 0
1 1718.43 1713.58 1107.84 0 0 0
1 1466.14 549.085 996.321 0 0 0
1 1830.8 1971.98 1193.07 0 0 0
1 414.621 809.463 890.554 0 0 0
1 461.972 249.754 583.178 0 0 0
1 1275.65 1817.16 1047.22 0 0 0
1 551.282 574.177 568.332 0 0 0
1 107.401 827.719 1009.71 0 0 0
1 1483.23 654.467 1443.76 0 0 0
1 198.324 830.662 546.021 0 0 0
1 771.748 85.126 298.284 0 0 0
1 998.815 856.23 227.153 0 0 0
1 884.862 955.233 236.99 0 0 0
1 513.379 903.955 753.556 0 0 0
1 439.519 627.92 771.262 0 0 0
1 106.169 1332.33 765.969 0 0 0
1 921.844 934.053 1035.14 0 0 0
1 1279.59 2528.89 852.987 0 0 0
1 167.556 307.988 231.26 0 0 0
1 510.798 369.642 520.668 0 0 0
1 939.987 335.653 754.92 0 0 0
1 524.778 192.463 881.212 0 0 0
1 914.044 423.433 830.486 0 0 0
1 920.934 109.743 132.142 0 0 0
1 1794.87 312.338 1881.63 0 0 0
1 794.54 620.277 119.874 0 0 0
1 601.122 990.728 476.591 0 0 0
1 209.017 674.882 917.501 0 0 0
1 639.733 384.716 923.81 0 0 0
1 942.34 931.451 130.846 0 0 0
1 11.992 995.206 397.2 0 0 0
1 2295.18 2261.49 1735.27 0 0 0
1 616.323 878.373 449.498 0 0 0
1 298.455 835.644 804.637 0 0 0
1 1288.32 233.847 1009.93 0 0 0
1 1712.01 1565.11 502.265 0 0 0
1 510.397 587.297 437.957 0 0 0
1 2999.19 1915.48 1114.77 0 0 0
1 632.504 344.866 255.861 0 0 0
1 2836.13 598.504 1338.65 0 0 0
1 623.09 750.562 819.686 0 0 0
1 883.074 727.78 342.889 0 0 0
1 1108.93 564.272 1215.56 0 0 0
1 774.58 850.392 955.371 0 0 0
1 1127.14 1493.63 1937.4 0 0 0
1 1211.3 1314.01 811.292 0 0 0
1 39.081 924.77 173.949 0 0 0
1 2819.83 1668.18 1870.45 0 0 0
1 366.793 233.929 526.722 0 0 0
1 50.066 144.425 1632.78 0 0 0
1 717.359 573.337 200.192 0 0 0
1 351.443 490.832 162.722 0 0 0
1 329.193 749.052 442.466 0 0 0
1 2073.43 1029.89 141.823 0 0 0
1 615.588 612.257 274.219 0 0 0
1 1295.93 357.506 466.922 0 0 0
1 1193.05 1642.61 2211.84 0 0 0
1 641.711 334.715 730.404 0 0 0
1 417.221 954.2 880.064 0 0 0
1 1053.44 490.54 306.183 0 0 0
1 869.637 634.543 213.671 0 0 0
1 529.708 540.577 938.963 0 0 0
1 140.668 648.555 444.394 0 0 0
1 841.783 1093.31 622.065 0 0 0
1 808.528 224.641 991.5 0 0 0
1 584.118 648.981 373.411 0 0 0
1 706.884 828.301 1119.94 0 0 0
1 590.571 1025.58 1002.02 0 0 0
1 410.356 795.38 345.598 0 0 0
1 559.816 800.464 1002.61 0 0 0
1 216.943 2881.95 1428.34 0 0 0
1 2655.67 1535.94 1147.7 0 0 0
1 965.033 1011.99 1321.49 0 0 0
1 844.486 519.73 338.042 0 0 0
1 376.288 699.636 300.504 0 0 0
1 1825.87 1045.18 1305.46 0 0 0
1 753.973 2089.36 2596.14 0 0 0
1 827.81 621.784 400.874 0 0 0
1 735.256 224.998 829.952 0 0 0
1 646.453 514.22 941.592 0 0 0
1 932.172 307.116 1037.15 0 0 0
1 929.133 1444.29 1782.18 0 0 0
1 27.756 2596.6 1662.75 0 0 0
1 739.131 574.012 316.511 0 0 0
1 815.619 223.852 408.81 0 0 0
1 716.138 173.612 682.066 0 0 0
1 1334.64 140.986 1494.13 0 0 0
1 895.877 282.684 456.455 0 0 0
1 469.232 76.277 464.025 0 0 0
1 824.364 118.256 919.891 0 0 0
1 748.006 962.256 147.301 0 0 0
1 489.224 1050.04 249.751 0 0 0
1 664.724 176.294 194.061 0 0 0
1 235.133 210.875 264.02 0 0 0
1 2729.68 1333.76 2862 0 0 0
1 854.725 294.173 698.249 0 0 0
1 197.208 710.352 271.857 0 0 0
1 902.192 757.358 1006.62 0 0 0
1 98.528 648.636 572.613 0 0 0
1 0 354.685 948.065 0 0 0
1 524.679 240.242 741.828 0 0 0
1 460.324 701.692 860.173 0 0 0
1 876.178 889.037 450.803 0 0 0
1 2797.97 913.627 967.241 0 0 0
1 308.457 1090.6 1690.27 0 0 0
1 668.353 1127.6 355.463 0 0 0
1 872.288 70.982 1118.46 0 0 0
1 349.411 896.085 954.032 0 0 0
1 968.331 1580.09 1529.6 0 0 0
1 426.69 1469.49 876.424 0 0 0
1 898.642 913.863 563.891 0 0 0
1 683.77 324.304 426.671 0 0 0
1 30.861 738.871 627.021 0 0 0
1 580.018 449.109 1003.54 0 0 0
1 611.302 148.727 100.162 0 0 0
1 3.836 849.888 581.084 0 0 0
1 838.945 1004.12 540.346 0 0 0
1 413.299 873.407 793.171 0 0 0
1 659.654 779.397 524.753 0 0 0
1 407.03 132.608 544.692 0 0 0
1 1322.18 2101.19 266.515 0 0 0
1 266.92 128.34 964.241 0 0 0
1 98.928 649.686 239.996 0 0 0
1 794.644 24.986 552.367 0 0 0
1 1212.84 2133.9 776.348 0 0 0
1 972.02 374.565 307.306 0 0 0
1 1672.15 1510.2 692.529 0 0 0
1 680.915 214.684 489.73 0 0 0
1 1446.38 437.98 1527.01 0 0 0
1 397.33 967.628 441.726 0 0 0
1 835.587 605.882 559.42 0 0 0
1 281.559 107.523 724.302 0 0 0
1 1052.48 782.164 679.24 0 0 0
1 844.111 510.756 133.615 0 0 0
1 1900.37 1366.5 2742.25 0 0 0
1 558.459 684.672 741.407 0 0 0
1 1556.92 223.409 1405.53 0 0 0
1 290.656 698.6 745.738 0 0 0
1 330.489 683.16 1086.2 0 0 0
1 222.689 558.783 814.889 0 0 0
1 280 1009.63 435.508 0 0 0
1 1473.66 2174.22 1984.54 0 0 0
1 801.756 58.897 823.705 0 0 0
1 591.687 842.206 248.701 0 0 0
1 804.332 884.888 75.703 0 0 0
1 926.242 802.38 556.148 0 0 0
1 439.66 270.402 820.64 0 0 0
1 906.041 781.876 437.851 0 0 0
1 973.655 449.814 387.576 0 0 0
1 454.46 948.132 614.705 0 0 0
1 716.438 0.015 625.581 0 0 0
1 1690.13 809.785 1380.57 0 0 0
1 2274.91 1074.29 1883.75 0 0 0
1 855.674 407.636 730.885 0 0 0
1 134.168 443.837 383.223 0 0 0
1 398.412 653.583 447.18 0 0 0
1 2614.71 700.386 185.682 0 0 0
1 509.931 786.27 785.733 0 0 0
1 278.457 1021.78 42.531 0 0 0
1 840.628 551.974 666.433 0 0 0
1 297.002 870.935 398.627 0 0 0
1 106.202 659.988 36.306 0 0 0
1 149.896 992.735 606.316 0 0 0
1 470.389 687.887 360.5 0 0 0
1 916.046 1095.04 519.608 0 0 0
1 853.19 6.526 663.555 0 0 0
1 233.406 867.201 935.591 0 0 0
1 100.247 1079.05 695.167 0 0 0
1 88.811 569.233 366.247 0 0 0
1 1499.67 2910.8 975.87 0 0 0
1 1094.11 508.04 736.071 0 0 0
1 619.765 407.826 624.983 0 0 0
1 834.615 708.411 711.916 0 0 0
1 2209.57 1736.93 732.869 0 0 0
1 2921.88 470.733 1396.78 0 0 0
1 2791.05 402.218 2285.17 0 0 0
1 2310.41 2067.3 449.613 0 0 0
1 787.996 2341.33 1017.47 0 0 0
1 1264.95 2219.95 928.917 0 0 0
1 1773.09 2010.59 44.538 0 0 0
1 1030.4 1336.66 2698.39 0 0 0
1 81.272 2222.56 672.262 0 0 0
1 230.111 963.606 257.064 0 0 0
1 191.703 2259.97 393.306 0 0 0
1 2309.7 688.653 662.818 0 0 0
1 676.19 2683.95 1891.88 0 0 0
1 1197.08 1974.77 1852.88 0 0 0
1 4.851 2999.34 2711.46 0 0 0
1 2999.91 1199.89 2185.07 0 0 0
1 753.939 1561.27 2046.47 0 0 0
1 1934.93 2672.2 1917.99 0 0 0
1 657.796 296.645 2608.64 0 0 0
2 2187.79 1046.6 1707.76 0 0 0
2 3000 3000 261.769 0 0 0
2 2986.98 2563.36 2.739 0 0 0
2 1058.76 2393.13 2999.98 0 0 0
2 2789.36 2559.85 0.61 0 0 0
2 701.027 1177.66 2260.76 0 0 0
2 0.614 2388.59 258.971 0 0 0
2 805.812 2999.99 351.95 0 0 0
2 1987.08 2999.99 2999.99 0 0 0
2 158.002 0.013 0.008 0 0 0
2 1242.2 3000 504.087 0 0 0
2 2688.24 0 960.261 0 0 0
2 0 2091.46 3000 0 0 0
2 919.233 2491.03 3000 0 0 0
2 18.67 1117.63 131.236 0 0 0
2 2637.74 0.008 2091.61 0 0 0
2 3000 2331.81 291.596 0 0 0
2 0.496 2999.08 2999.92 0 0 0
2 2449.51 1574.64 3000 0 0 0
2 403.125 2999.91 1201.53 0 0 0
2 2996.05 2994.08 2.69 0 0 0
2 1389.78 2999.35 1770.95 0 0 0
2 1030.39 1979.59 1345.2 0 0 0
2 1572.43 2107.99 0 0 0 0
2 2998.96 2600.31 2682.04 0 0 0
2 2997.94 2999.35 2998.93 0 0 0
2 2963.67 67.27 2843.39 0 0 0
2 2997.88 2352.78 2169.53 0 0 0
2 0.005 3000 0.005 0 0 0
2 2.744 40.957 58.126 0 0 0
2 3000 1307.49 260.269 0 0 0
2 0 2258.13 1093.8 0 0 0
2 0.75 1720.6 1.223 0 0 0
2 2277.8 2172.51 2967.9 0 0 0
2 1008.7 1712.47 1669.86 0 0 0
2 3000 1735.86 2700.73 0 0 0
2 0 2864.1 708.635 0 0 0
2 1890.74 0 1519.58 0 0 0
2 2999.36 175.409 2139.95 0 0 0
2 1091.94 3000 2544.69 0 0 0
2 0.912 2999.38 1552.97 0 0 0
2 1208.73 0.158 2252.75 0 0 0
2 1036 1.387 0.676 0 0 0
2 0.159 749.339 1.936 0 0 0
2 2957.64 2440.22 2642.46 0 0 0
2 721.952 0.779 2843.5 0 0 0
2 1629.45 2901.47 3000 0 0 0
2 1895.45 1838.61 2999.99 0 0 0
2 0.39 2402.49 0.77 0 0 0
2 2714.01 1915.49 1451.15 0 0 0
2 1392.28 13.69 2986.61 0 0 0
2 3000 2848.74 1205.88 0 0 0
2 0 0 756.829 0 0 0
2 1656.55 0 952.597 0 0 0
2 1769.43 3000 3000 0 0 0
2 2999.69 12.989 889.508 0 0 0
2 2099.63 2676.61 0 0 0 0
2 2718 1355.3 370.984 0 0 0
2 2467.41 0 465.699 0 0 0
2 3000 1610.17 1220.97 0 0 0
2 2998.2 173.587 124.272 0 0 0
2 467.958 3000 2404.42 0 0 0
2 1872.22 0 2016.16 0 0 0
2 2565.86 448.113 2624.97 0 0 0
2 106.19 1558.72 72.174 0 0 0
2 2926.4 2697.97 1354.97 0 0 0
2 1467.33 168.543 164.894 0 0 0
2 1568.76 1104.11 913.613 0 0 0
2 485.136 648.815 1297.52 0 0 0
2 1843.83 1937.62 675.25 0 0 0
2 1527.22 1812.77 97.977 0 0 0
2 2756.79 106.375 703.496 0 0 0
2 2916.32 79.085 2383.62 0 0 0
2 981.445 2727.79 987.07 0 0 0
2 2388.83 19.125 301.826 0 0 0
2 1964.9 273.802 1002.66 0 0 0
2 1831.84 568.032 554.417 0 0 0
2 8.792 2097.11 888.547 0 0 0
2 2590.14 841.013 1.009 0 0 0
2 1224.97 620.686 789.367 0 0 0
2 196.599 780.482 1913.03 0 0 0
2 153.972 785.18 851.112 0 0 0
2 141.776 341.812 1474.45 0 0 0
2 577.503 4.927 1441.94 0 0 0
2 159.066 2886.69 336.304 0 0 0
2 823.184 557.292 811.062 0 0 0
2 660.303 1183.44 925.846 0 0 0
2 737.866 889.347 269.542 0 0 0
2 158.378 922.903 0 0 0 0
2 1786.87 24.457 573.532 0 0 0
2 3000 1917.05 1458.83 0 0 0
2 1124.67 1559.4 1741.73 0 0 0
2 236.056 2219.57 2343.06 0 0 0
2 609.577 1394.03 304.878 0 0 0
2 2604.92 2514.07 889.424 0 0 0
2 52.85 405.169 1731.44 0 0 0
2 1102.85 471.51 1042.51 0 0 0
2 449.252 747.527 1884.57 0 0 0
2 503.956 655.105 1025.34 0 0 0
2 2213.65 2999.97 1276.09 0 0 0
2 393.537 1265.47 490.732 0 0 0
2 1102.25 1433.07 2968.93 0 0 0
2 208.324 1458.25 742.487 0 0 0
2 85.461 922.04 1485.36 0 0 0
2 1241.42 902.402 5.644 0 0 0
2 1490.23 1343.34 599.426 0 0 0
2 209.006 1009.71 944.044 0 0 0
2 704.848 705.904 635.108 0 0 0
2 594.533 984.855 668.398 0 0 0
2 535.343 1290.35 705.675 0 0 0
2 717.81 283.012 1316.26 0 0 0
2 801.288 1404.29 305.634 0 0 0
2 2828.15 708.098 134.203 0 0 0
2 1290.57 626.572 946.191 0 0 0
2 692.654 739.461 392.616 0 0 0
2 201.009 563.141 282.73 0 0 0
2 700.681 424.418 1194.57 0 0 0
2 1025.48 1014.39 966.565 0 0 0
2 2999.09 1.679 2996.17 0 0 0
2 428.698 98.641 298.454 0 0 0
2 2395.28 2506.01 1421.74 0 0 0
2 1036.36 353.748 621.998 0 0 0
2 266.157 2841.93 1028.2 0 0 0
2 1185.36 788.355 499.497 0 0 0
2 353.732 1126 807.685 0 0 0
2 109.023 1666.04 451.628 0 0 0
2 1186.82 222.747 1648.59 0 0 0
2 0 1011.07 781.405 0 0 0
2 234.751 1144.95 415.58 0 0 0
2 2889.92 2860.27 302.312 0 0 0
2 244.438 862.313 1474.97 0 0 0
2 1619.95 468.294 0 0 0 0
2 483.63 906.269 1325.09 0 0 0
2 352.307 0 416.38 0 0 0
2 489.377 487.868 186.822 0 0 0
2 1887.65 1351.82 780.238 0 0 0
2 1078.65 366.816 798.519 0 0 0
2 1455.1 814.113 746.099 0 0 0
2 5.14 2.243 1045.67 0 0 0
2 735.209 888.606 587.838 0 0 0
2 948.101 975.351 718.704 0 0 0
2 319.341 166.826 412.367 0 0 0
2 1818.35 744.891 1483.57 0 0 0
2 256.981 551.074 2531.55 0 0 0
2 1317.22 590.276 67.573 0 0 0
2 1056.6 1069.41 581.133 0 0 0
2 670.357 123.615 1230.53 0 0 0
2 493.185 1343.15 173.169 0 0 0
2 569.289 1257.25 2555.89 0 0 0
2 0 2751.79 2538.58 0 0 0
2 1481.94 246.077 320.838 0 0 0
2 2229.48 220.744 976.294 0 0 0
2 1621.28 538.356 966.11 0 0 0
2 1486.16 244.163 1965.64 0 0 0
2 1342.38 1181.46 2611.41 0 0 0
2 2184.03 3000 584.71 0 0 0
2 1197.13 1030.26 931.539 0 0 0
2 3000 1736.07 1795.34 0 0 0
2 440.11 1588.38 527.47 0 0 0
2 648.054 727.921 189.812 0 0 0
2 808.066 1310.65 956.063 0 0 0
2 920.497 1520.51 849.513 0 0 0
2 1666.85 1730.98 2923.39 0 0 0
2 1982.59 808.172 781.652 0 0 0
2 2716.54 0.004 175.795 0 0 0
2 0.175 2377.71 2999.33 0 0 0
2 254.695 784.294 1288.57 0 0 0
2 982.67 1501.54 0 0 0 0
2 609.983 254.52 614.366 0 0 0
2 411.723 901.703 80.676 0 0 0
2 2541.7 2406.12 518.886 0 0 0
2 621.697 250.489 1539.73 0 0 0
2 996.511 216.952 357.076 0 0 0
2 163.408 389.175 551.72 0 0 0
2 226.995 364.527 1080.18 0 0 0
2 597.713 643.47 1169.98 0 0 0
2 435.436 486.917 1052.57 0 0 0
2 979.876 2768.74 2857.64 0 0 0
2 68.35 1701.67 2633.33 0 0 0
2 614.187 1010.39 854.821 0 0 0
2 891.945 1273.99 774.119 0 0 0
2 1147.99 352.718 305.404 0 0 0
2 1373.58 424.373 920.311 0 0 0
2 1370.98 187.602 4.885 0 0 0
2 667.811 1590.69 96.047 0 0 0
2 1173.8 279.695 502.833 0 0 0
2 2468.97 392.547 2924.41 0 0 0
2 1131.86 2289.84 1525.31 0 0 0
2 498.696 1096.61 1218.99 0 0 0
2 548.623 454.347 1268.05 0 0 0
2 562.495 254.82 1041.01 0 0 0
2 1399.75 928.652 2936.38 0 0 0
2 1281.64 190.854 1260.24 0 0 0
2 2279.62 2880.09 2864.27 0 0 0
2 2990.42 2409.62 681.077 0 0 0
2 1755.68 367.63 167.116 0 0 0
2 2942.16 1852.88 2985.66 0 0 0
2 558.815 1195.83 451.705 0 0 0
2 367.462 637.275 1421.01 0 0 0
2 148.48 499.571 690.89 0 0 0
2 1375.46 763.039 392.623 0 0 0
2 942.958 2883.96 563.696 0 0 0
2 2442.25 62.682 2848.23 0 0 0
2 1230.1 2112.03 1039.88 0 0 0
2 524.814 759.494 468.953 0 0 0
2 250.191 1521.65 589.792 0 0 0
2 361.832 393.138 781.179 0 0 0
2 1134.89 387.565 2562.54 0 0 0
2 673.275 1254.99 230.348 0 0 0
2 604.506 89.783 293.995 0 0 0
2 708.002 113.56 1053.2 0 0 0
2 72.487 271.541 2896.41 0 0 0
2 177.758 1077.57 1490.12 0 0 0
2 1908.8 407.867 1468.28 0 0 0
2 91.103 2293.41 141.953 0 0 0
2 514.473 1751.4 180.792 0 0 0
2 2895.36 2950.96 1611.72 0 0 0
2 2225.42 65.889 2970.34 0 0 0
2 1019.87 760.167 1886.61 0 0 0
2 1360.34 2954.93 2988.63 0 0 0
2 493.563 25.419 0 0 0 0
2 606.238 482.038 330.509 0 0 0
2 1849.68 495.079 1209.91 0 0 0
2 284.231 1058.51 641.777 0 0 0
2 749.842 3000 1479.66 0 0 0
2 143.272 2081.18 1351.69 0 0 0
2 2124.89 2152.05 1260.01 0 0 0
2 1023.74 418.757 167.469 0 0 0
2 1836.34 896.101 1342.16 0 0 0
2 771.957 825.029 763.471 0 0 0
2 42.647 767.977 184.183 0 0 0
2 666.662 9.041 154.79 0 0 0
2 2914.75 532.386 2838.04 0 0 0
2 1400.28 0 862.553 0 0 0
2 193.442 1326.33 455.904 0 0 0
2 284.805 364.837 144.436 0 0 0
2 612.114 993.636 213.22 0 0 0
2 421.189 1435.67 728.093 0 0 0
2 249.346 2197.05 52.552 0 0 0
2 108.046 593.611 1202.27 0 0 0
2 483.394 669.573 211.508 0 0 0
2 781.193 1427.35 137.456 0 0 0
2 1927.82 852.92 301.967 0 0 0
2 8.522 988.933 605.05 0 0 0
2 2250.72 415.362 207.26 0 0 0
2 2448.61 1221.96 1572.11 0 0 0
2 2789.32 2.03 2998.91 0 0 0
2 2818.43 3000 1049.08 0 0 0
2 1071.42 1266.37 86.414 0 0 0
2 775.071 2424.67 2934.57 0 0 0
2 104.428 1381.9 1902.85 0 0 0
2 688.388 1130.68 1162.27 0 0 0
2 156.491 936.699 771.238 0 0 0
2 1888.15 765.686 2976.19 0 0 0
2 655.363 2923.59 2826.44 0 0 0
2 400.638 497.178 510.427 0 0 0
2 877.78 1141.73 880.146 0 0 0
2 144.832 1380.62 985.298 0 0 0
2 2879.09 88.808 558.561 0 0 0
2 2839.44 1370.37 2953.7 0 0 0
2 523.281 616.701 1.7 0 0 0
2 545.806 2629.09 392.313 0 0 0
2 2946.14 988.547 2884.36 0 0 0
2 0.059 2779.32 1250.85 0 0 0
2 1338.52 1661.5 1332.63 0 0 0
2 1817.63 1892.53 1750.36 0 0 0
2 2955.96 2142.29 1724.27 0 0 0
2 2324.48 2275.56 5.437 0 0 0
2 168.533 818.681 375.928 0 0 0
2 2250.21 370.478 0 0 0 0
2 1273.95 187.77 146.223 0 0 0
2 1495.85 422.539 147.884 0 0 0
2 1728.54 328.567 2961.76 0 0 0
2 2413.68 2900.57 248.013 0 0 0
2 1744.79 961.32 103.213 0 0 0
2 275.459 195.077 1164.85 0 0 0
2 1839.07 1524.95 1641.32 0 0 0
2 2621.92 937.47 731.666 0 0 0
2 1247.48 1142.08 497.084 0 0 0
2 635.08 1863.25 4.651 0 0 0
2 1433.86 80.328 673.768 0 0 0
2 1095.03 623.532 631.628 0 0 0
2 601.844 1384.01 1094.23 0 0 0
2 1713.16 993.256 1197.16 0 0 0
2 625.693 635.384 1762.43 0 0 0
2 446.419 1646.36 1404.35 0 0 0
2 2558.09 0 1228.37 0 0 0
2 179.214 1333.63 270.048 0 0 0
2 2049.51 1221.74 7.561 0 0 0
2 0 419.309 752.663 0 0 0
2 1148.63 1042.16 1305.87 0 0 0
2 471.189 1078.01 923.414 0 0 0
2 494.178 1787.46 1571.45 0 0 0
2 1315.35 134.086 323.122 0 0 0
2 258.552 1667.4 204.08 0 0 0
2 2990.93 86.324 1112.98 0 0 0
2 2103.32 285.809 1405.01 0 0 0
2 637.629 1489.47 1617.22 0 0 0
2 1968.86 151.24 506.592 0 0 0
2 1433.37 938.931 547.493 0 0 0
2 390.902 404.87 1647.57 0 0 0
2 741.76 1203.82 1476.14 0 0 0
2 2105.82 437.177 1496.43 0 0 0
2 72.874 893.464 2686.1 0 0 0
2 1457.07 66.005 407.777 0 0 0
2 1493.14 129.08 1838.05 0 0 0
2 1382.33 414.804 614.693 0 0 0
2 581.851 1011.49 3000 0 0 0
2 376.273 1237.09 1186.99 0 0 0
2 44.455 1146.86 425.432 0 0 0
2 1104.23 692.473 999.292 0 0 0
2 407.067 161.252 1566.94 0 0 0
2 20.628 2986.02 1721.31 0 0 0
2 327.588 1083.7 2096.57 0 0 0
2 960.621 1657.23 1063.82 0 0 0
2 2068.05 2985.38 413.417 0 0 0
2 1144.36 1300.89 1057.83 0 0 0
2 4.317 173.811 2035 0 0 0
2 35.013 2157.25 1480.9 0 0 0
2 382.988 351.209 944.691 0 0 0
2 531.17 14.87 2013.15 0 0 0
2 359.83 1667.6 1188.07 0 0 0
2 2952.33 2918.76 2251.48 0 0 0
2 937.22 60.747 1579.33 0 0 0
2 312.461 888.61 1121.06 0 0 0
2 1508.1 289.332 17.645 0 0 0
2 1826.8 1162.68 548.996 0 0 0
2 1098.12 924.332 399.783 0 0 0
2 58.008 2000.45 1745.67 0 0 0
2 267.329 1433.13 2660.52 0 0 0
2 146.619 2013.29 2940.17 0 0 0
2 66.739 1200.22 1288.11 0 0 0
2 451.425 146.964 1129.05 0 0 0
2 872.518 1219.38 349.545 0 0 0
2 8.933 750.615 1621.05 0 0 0
2 770.403 1717.08 6.124 0 0 0
2 2111.76 155.094 2131.62 0 0 0
2 1221.65 52.828 670.22 0 0 0
2 1397.15 457.327 406.938 0 0 0
2 1144.71 459.916 450.889 0 0 0
2 316.265 1026.3 1369.11 0 0 0
2 655.995 208.349 1749.76 0 0 0
2 232.17 1220.51 671.803 0 0 0
2 502.169 306.979 0 0 0 0
2 156.702 1965.72 656.93 0 0 0
2 1473.64 621.898 469.605 0 0 0
2 1749.16 934.555 1884.81 0 0 0
2 2020.92 1291.58 2881.83 0 0 0
2 174.681 65.341 2286.54 0 0 0
2 466.399 2344.52 1347.59 0 0 0
2 1036.05 1327.37 554.198 0 0 0
2 377.626 1090.76 1551.67 0 0 0
2 1688.93 1595.9 1553.62 0 0 0
2 643.105 1314.95 538.957 0 0 0
2 18.619 709.895 1420.92 0 0 0
2 101.496 299.604 2591.88 0 0 0
2 819.448 389.707 1047.18 0 0 0
2 1216.49 714.65 1212.31 0 0 0
2 2883.83 1050.19 90.084 0 0 0
2 1202.08 224.025 673.629 0 0 0
2 724.98 765.626 1475.31 0 0 0
2 415.288 1955.77 1410.44 0 0 0
2 737.679 1133.19 477.024 0 0 0
2 2210.72 1632.99 2849.5 0 0 0
2 1049.17 1490.3 607.883 0 0 0
2 1632.31 943.54 574.361 0 0 0
2 2584.4 1050.87 995.315 0 0 0
2 1264.2 1845.63 107.893 0 0 0
2 170.629 573.585 1006.66 0 0 0
2 1399.41 792.612 923.817 0 0 0
2 1203.35 0 919.568 0 0 0
2 1038.17 1038.61 251.592 0 0 0
2 1081.05 397.133 1228.4 0 0 0
2 961.151 2080.84 1099.5 0 0 0
2 1938.4 648.499 2111.75 0 0 0
2 35.949 1523.44 694.732 0 0 0
2 1080.45 32.729 161.77 0 0 0
2 1529.41 610.631 23.712 0 0 0
2 881.949 1032.04 385.074 0 0 0
2 2990.45 1494.54 582.091 0 0 0
2 535.121 936.647 1126.87 0 0 0
2 1528.99 1893.03 970.02 0 0 0
2 1453.61 0 1955.6 0 0 0
2 1295.78 1035.23 621.554 0 0 0
2 474.772 1592.42 332.424 0 0 0
2 1726.45 0 346.173 0 0 0
2 1536.1 3000 2625.31 0 0 0
2 183.303 484.842 1341.07 0 0 0
2 1699.04 2106.74 1075.19 0 0 0
2 0 1269.21 832.232 0 0 0
2 548.749 784.93 0 0 0 0
2 2452.11 1587.92 886.738 0 0 0
2 447.629 320.587 1156.5 0 0 0
2 147.5 1948.78 1522.61 0 0 0
2 2251 1518.78 2637.83 0 0 0
2 30.796 1022 983.385 0 0 0
2 1510.85 195.128 978.934 0 0 0
2 384.027 357.463 1319.61 0 0 0
2 914.607 907.177 1215.66 0 0 0
2 2014.62 699.004 0 0 0 0
2 584.906 2740.32 1.614 0 0 0
2 2100.14 1370.08 849.196 0 0 0
2 583.095 2261.02 60.836 0 0 0
2 2731.77 1170.45 141.538 0 0 0
2 314.022 912.533 544.31 0 0 0
2 454.898 2582.18 1732.32 0 0 0
2 268.646 1.481 1663 0 0 0
2 1363.43 1000.81 378.94 0 0 0
2 195.688 1501.38 365.568 0 0 0
2 857.069 16.352 2123.33 0 0 0
2 1688.65 433.977 633.218 0 0 0
2 26.037 2994.71 2442.47 0 0 0
2 1756.56 2186.8 500.196 0 0 0
2 686.266 1781.55 914.997 0 0 0
2 2466.97 4.001 2549.4 0 0 0
2 922.403 1199.62 1117.44 0 0 0
2 1017.63 1437.88 2589.34 0 0 0
2 39.36 343.87 325.427 0 0 0
2 2789.32 2997.71 1.789 0 0 0
2 315.842 709.975 585.784 0 0 0
2 468.12 1158.59 621.84 0 0 0
2 987.555 687.857 503.641 0 0 0
2 1699.04 574.773 1875.08 0 0 0
2 24.902 2710.56 1439.34 0 0 0
2 1256.51 2781.47 2188.89 0 0 0
2 2954.4 823.919 30.158 0 0 0