LAMMPS (23 Jun 2022 - Update 1)
# Read restart
read_restart ${read_res}
read_restart ./pgnpmf/37/equpmf12.res
Reading restart file ...
  restart file = 23 Jun 2022, LAMMPS = 23 Jun 2022
  restoring atom style atomic from restart
  orthogonal box = (1863.5604 1863.5604 1863.5604) to (3136.4396 3136.4396 3136.4396)
  1 by 2 by 2 MPI processor grid
  restoring pair style table from restart
  1000 atoms
  read_restart CPU = 0.016 seconds

# Settings

pair_style table spline 9941

pair_coeff 1 1 ./pgnpmf/N20.txt DE_GNP 75.6
pair_coeff 2 2 ./pgnpmf/N100.txt DE_GNP 115.92
WARNING: 3 of 9941 force values in table DE_GNP are inconsistent with -dE/dr.
WARNING:  Should only be flagged at inflection points (../pair_table.cpp:463)
pair_coeff 1 2 ./pgnpmf/mixed_potential.txt DE_GNP 95.66
WARNING: 1562 of 9941 force values in table DE_GNP are inconsistent with -dE/dr.
WARNING:  Should only be flagged at inflection points (../pair_table.cpp:463)

#Neigh_list Calc Frequency

neigh_modify delay 0 every 1 check yes

# Saving Frequency (50 frames)

variable ts_save equal ${steps_equ}
variable ts_save equal 5000

# Dump
#dump 1 all custom ${ts_save} ./pgnpmf/${folder}/equilibration/trajectory/trajectory_${usic}_${trial}.equ.custom type x y z ix iy iz
#dump_modify 1 first no sort id
#dump 2 all cfg 50000 ./equilibration/trajectory/ovito/dumpgen.tens_*.cfg mass type xs ys zs fx fy fz

# thermo_style
thermo_style custom step temp press pe density ke etotal lx ly lz xlo xhi ylo yhi zlo zhi vol dt time cpu tpcpu spcpu cpuremain

# run info
timestep ${ts}
timestep 0.5
thermo 200

# fix

fix 1 all momentum 1000 linear 1 1 1 angular
variable T equal ${temp}
variable T equal 300
fix 2 all nvt temp ${T} 370000 100.0
fix 2 all nvt temp 300 370000 100.0

run 100000
Generated 0 of 1 mixed pair_coeff terms from geometric mixing rule
Unused restart file global fix info:
  fix style: npt, fix ID: 5
Neighbor list info ...
  update every 1 steps, delay 0 steps, check yes
  max neighbors/atom: 2000, page size: 100000
  master list distance cutoff = 117.92
  ghost atom cutoff = 117.92
  binsize = 58.96, bins = 22 22 22
  1 neighbor lists, perpetual/occasional/extra = 1 0 0
  (1) pair table, perpetual
      attributes: half, newton on
      pair build: half/bin/atomonly/newton
      stencil: half/bin/3d
      bin: standard
Per MPI rank memory allocation (min/avg/max) = 3.089 | 3.09 | 3.092 Mbytes
   Step          Temp          Press          PotEng        Density         KinEng         TotEng           Lx             Ly             Lz            Xlo            Xhi            Ylo            Yhi            Zlo            Zhi           Volume           Dt            Time           CPU           T/CPU          S/CPU         CPULeft    
   8405000   309.96891      1.5360131     -22378595       0.29146426     923.03448     -22377672       1272.8792      1272.8792      1272.8792      1863.5604      3136.4396      1863.5604      3136.4396      1863.5604      3136.4396      2.062346e+09   0.5            4205000        0              0              0              0            
   8405200   410.44106      1.3722673     -22378726       0.29146426     1222.2234     -22377503       1272.8792      1272.8792      1272.8792      1863.5604      3136.4396      1863.5604      3136.4396      1863.5604      3136.4396      2.062346e+09   0.5            4205100        0.014172255    7055.5587      14110.213      7.073311     
   8405400   623.75633      1.1941434     -22378882       0.29146426     1857.4398     -22377025       1272.8792      1272.8792      1272.8792      1863.5604      3136.4396      1863.5604      3136.4396      1863.5604      3136.4396      2.062346e+09   0.5            4205200        0.028314349    7071.2711      14142.658      7.0508267    
   8405600   983.65122      0.98903995    -22379077       0.29146426     2929.1454     -22376148       1272.8792      1272.8792      1272.8792      1863.5604      3136.4396      1863.5604      3136.4396      1863.5604      3136.4396      2.062346e+09   0.5            4205300        0.042454893    7071.8537      14143.738      7.0337229    
   8405800   1555.6134      0.73765016    -22379320       0.29146426     4632.3512     -22374688       1272.8792      1272.8792      1272.8792      1863.5604      3136.4396      1863.5604      3136.4396      1863.5604      3136.4396      2.062346e+09   0.5            4205400        0.056866284    6938.9424      13877.872      7.0517018    
   8406000   2413.3834      0.41233893    -22379621       0.29146426     7186.6437     -22372435       1272.8792      1272.8792      1272.8792      1863.5604      3136.4396      1863.5604      3136.4396      1863.5604      3136.4396      2.062346e+09   0.5            4205500        0.071290071    6932.9622      13865.801      7.0579683    
   8406200   3595.9453     -0.0044265252  -22379991       0.29146426     10708.111     -22369283       1272.8792      1272.8792      1272.8792      1863.5604      3136.4396      1863.5604      3136.4396      1863.5604      3136.4396      2.062346e+09   0.5            4205600        0.085435609    7069.4175      14138.964      7.0343793    
   8406400   5020.564      -0.40276297    -22373053       0.29146426     14950.382     -22358103       1272.8792      1272.8792      1272.8792      1863.5604      3136.4396      1863.5604      3136.4396      1863.5604      3136.4396      2.062346e+09   0.5            4205700        0.10015715     6792.7621      13585.511      7.0540844    
   8406600   6392.4399     -1.0787887     -22373559       0.29146426     19035.594     -22354523       1272.8792      1272.8792      1272.8792      1863.5604      3136.4396      1863.5604      3136.4396      1863.5604      3136.4396      2.062346e+09   0.5            4205800        0.11427665     7082.4198      14164.881      7.0281503    
   8406800   7271.985      -1.7707798     -22372217       0.29146426     21654.73      -22350562       1272.8792      1272.8792      1272.8792      1863.5604      3136.4396      1863.5604      3136.4396      1863.5604      3136.4396      2.062346e+09   0.5            4205900        0.12839564     7082.7353      14165.457      7.0048096    
   8407000   7605.5691     -2.5126114     -22372777       0.29146426     22648.086     -22350129       1272.8792      1272.8792      1272.8792      1863.5604      3136.4396      1863.5604      3136.4396      1863.5604      3136.4396      2.062346e+09   0.5            4206000        0.1425836      7048.178       14096.253      6.9867138    
   8407200   8091.8323     -3.2590549     -22375233       0.29146426     24096.095     -22351137       1272.8792      1272.8792      1272.8792      1863.5604      3136.4396      1863.5604      3136.4396      1863.5604      3136.4396      2.062346e+09   0.5            4206100        0.15729265     6798.5629      13597.119      6.9924725    
   8407400   9154.3178     -4.0178492     -22368811       0.29146426     27259.995     -22341551       1272.8792      1272.8792      1272.8792      1863.5604      3136.4396      1863.5604      3136.4396      1863.5604      3136.4396      2.062346e+09   0.5            4206200        0.1717222      6930.1851      13860.431      6.9834602    
   8407600   10236.622     -4.6684297     -22369433       0.29146426     30482.912     -22338950       1272.8792      1272.8792      1272.8792      1863.5604      3136.4396      1863.5604      3136.4396      1863.5604      3136.4396      2.062346e+09   0.5            4206300        0.18584431     7081.1099      14162.185      6.9620964    
   8407800   10775.551     -5.474106      -22377444       0.29146426     32087.75      -22345356       1272.8792      1272.8792      1272.8792      1863.5604      3136.4396      1863.5604      3136.4396      1863.5604      3136.4396      2.062346e+09   0.5            4206400        0.19997389     7077.3878      14154.829      6.9420228    
   8408000   11109.375     -6.3141135     -22378075       0.29146426     33081.821     -22344993       1272.8792      1272.8792      1272.8792      1863.5604      3136.4396      1863.5604      3136.4396      1863.5604      3136.4396      2.062346e+09   0.5            4206500        0.21412163     7068.2467      14136.433      6.9233422    
   8408200   11929.333     -7.1435365     -22378719       0.29146426     35523.518     -22343196       1272.8792      1272.8792      1272.8792      1863.5604      3136.4396      1863.5604      3136.4396      1863.5604      3136.4396      2.062346e+09   0.5            4206600        0.22889676     6768.1538      13536.413      6.9241879    
   8408400   13104.348     -7.855242      -22387120       0.29146426     39022.51      -22348097       1272.8792      1272.8792      1272.8792      1863.5604      3136.4396      1863.5604      3136.4396      1863.5604      3136.4396      2.062346e+09   0.5            4206700        0.24331398     6936.1302      13872.235      6.9130395    
   8408600   13898.971     -8.6548879     -22389678       0.29146426     41388.763     -22348289       1272.8792      1272.8792      1272.8792      1863.5604      3136.4396      1863.5604      3136.4396      1863.5604      3136.4396      2.062346e+09   0.5            4206800        0.2576873      6957.3285      13914.619      6.9003503    
   8408800   14211.181     -9.373309      -22397720       0.29146426     42318.47      -22355401       1272.8792      1272.8792      1272.8792      1863.5604      3136.4396      1863.5604      3136.4396      1863.5604      3136.4396      2.062346e+09   0.5            4206900        0.27206036     6957.4568      13914.89       6.8874771    
   8409000   14758.766     -9.9987699     -22391002       0.29146426     43949.086     -22347053       1272.8792      1272.8792      1272.8792      1863.5604      3136.4396      1863.5604      3136.4396      1863.5604      3136.4396      2.062346e+09   0.5            4207000        0.28624097     7051.8565      14103.709      6.8698373    
   8409200   15880.202     -10.802072     -22399049       0.29146426     47288.528     -22351761       1272.8792      1272.8792      1272.8792      1863.5604      3136.4396      1863.5604      3136.4396      1863.5604      3136.4396      2.062346e+09   0.5            4207100        0.30043442     7045.5545      14091.174      6.8528129    
   8409400   16936.395     -11.530198     -22399722       0.29146426     50433.692     -22349289       1272.8792      1272.8792      1272.8792      1863.5604      3136.4396      1863.5604      3136.4396      1863.5604      3136.4396      2.062346e+09   0.5            4207200        0.31458225     7068.2323      14136.476      6.835058     
   8409600   17378.475     -12.223217     -22400387       0.29146426     51750.13      -22348636       1272.8792      1272.8792      1272.8792      1863.5604      3136.4396      1863.5604      3136.4396      1863.5604      3136.4396      2.062346e+09   0.5            4207300        0.32900995     6931.0785      13862.143      6.8234236    
   8409800   17700.748     -13.058464     -22401050       0.29146426     52709.806     -22348340       1272.8792      1272.8792      1272.8792      1863.5604      3136.4396      1863.5604      3136.4396      1863.5604      3136.4396      2.062346e+09   0.5            4207400        0.34315355     7070.3587      14140.717      6.8059186    
   8410000   18615.153     -13.874352     -22401711       0.29146426     55432.748     -22346279       1272.8792      1272.8792      1272.8792      1863.5604      3136.4396      1863.5604      3136.4396      1863.5604      3136.4396      2.062346e+09   0.5            4207500        0.35758821     6927.763       13855.372      6.7942211    
   8410200   19843.641     -14.559328     -22402377       0.29146426     59090.975     -22343286       1272.8792      1272.8792      1272.8792      1863.5604      3136.4396      1863.5604      3136.4396      1863.5604      3136.4396      2.062346e+09   0.5            4207600        0.37203977     6919.6629      13839.48       6.7826115    
   8410400   20556.366     -15.360604     -22412325       0.29146426     61213.348     -22351112       1272.8792      1272.8792      1272.8792      1863.5604      3136.4396      1863.5604      3136.4396      1863.5604      3136.4396      2.062346e+09   0.5            4207700        0.3861729      7075.5715      14151.128      6.765214     
   8410600   20775.674     -16.010038     -22412985       0.29146426     61866.409     -22351119       1272.8792      1272.8792      1272.8792      1863.5604      3136.4396      1863.5604      3136.4396      1863.5604      3136.4396      2.062346e+09   0.5            4207800        0.40062754     6918.1631      13836.327      6.7534735    
   8410800   21378.921     -16.560165     -22411741       0.29146426     63662.777     -22348078       1272.8792      1272.8792      1272.8792      1863.5604      3136.4396      1863.5604      3136.4396      1863.5604      3136.4396      2.062346e+09   0.5            4207900        0.41479439     7058.782       14117.513      6.7368671    
   8411000   22614.981     -17.155524     -22412383       0.29146426     67343.553     -22345040       1272.8792      1272.8792      1272.8792      1863.5604      3136.4396      1863.5604      3136.4396      1863.5604      3136.4396      2.062346e+09   0.5            4208000        0.42901512     7031.9443      14063.813      6.7212736    
   8411200   23653.974     -17.642758     -22413023       0.29146426     70437.497     -22342585       1272.8792      1272.8792      1272.8792      1863.5604      3136.4396      1863.5604      3136.4396      1863.5604      3136.4396      2.062346e+09   0.5            4208100        0.44317847     7060.5199      14121.19       6.7048922    
   8411400   23970.03      -18.171546     -22406271       0.29146426     71378.656     -22334892       1272.8792      1272.8792      1272.8792      1863.5604      3136.4396      1863.5604      3136.4396      1863.5604      3136.4396      2.062346e+09   0.5            4208200        0.45749884     6983.0642      13966.118      6.6909503    
   8411600   24268.221     -18.729376     -22397984       0.29146426     72266.619     -22325718       1272.8792      1272.8792      1272.8792      1863.5604      3136.4396      1863.5604      3136.4396      1863.5604      3136.4396      2.062346e+09   0.5            4208300        0.47212212     6838.3765      13676.766      6.6812729    
   8411800   25305.096     -19.307569     -22405966       0.29146426     75354.253     -22330612       1272.8792      1272.8792      1272.8792      1863.5604      3136.4396      1863.5604      3136.4396      1863.5604      3136.4396      2.062346e+09   0.5            4208400        0.48621589     7095.3653      14190.716      6.6640468    
   8412000   26599.469     -19.692858     -22406567       0.29146426     79208.677     -22327358       1272.8792      1272.8792      1272.8792      1863.5604      3136.4396      1863.5604      3136.4396      1863.5604      3136.4396      2.062346e+09   0.5            4208500        0.50033097     7084.5714      14169.083      6.647286     
   8412200   27201.101     -20.227149     -22409045       0.29146426     81000.233     -22328045       1272.8792      1272.8792      1272.8792      1863.5604      3136.4396      1863.5604      3136.4396      1863.5604      3136.4396      2.062346e+09   0.5            4208600        0.51445205     7081.6615      14163.384      6.6307423    
   8412400   27323.091     -20.884658     -22409614       0.29146426     81363.5       -22328250       1272.8792      1272.8792      1272.8792      1863.5604      3136.4396      1863.5604      3136.4396      1863.5604      3136.4396      2.062346e+09   0.5            4208700        0.52853996     7098.2779      14196.546      6.613918     
   8412600   28010.949     -21.361023     -22417550       0.29146426     83411.823     -22334138       1272.8792      1272.8792      1272.8792      1863.5604      3136.4396      1863.5604      3136.4396      1863.5604      3136.4396      2.062346e+09   0.5            4208800        0.54295588     6936.7447      13873.487      6.6012264    
   8412800   29374.036     -21.785639     -22418089       0.29146426     87470.864     -22330618       1272.8792      1272.8792      1272.8792      1863.5604      3136.4396      1863.5604      3136.4396      1863.5604      3136.4396      2.062346e+09   0.5            4208900        0.55717286     7033.8881      14067.745      6.5860934    
   8413000   30362.909     -22.164648     -22411234       0.29146426     90415.559     -22320818       1272.8792      1272.8792      1272.8792      1863.5604      3136.4396      1863.5604      3136.4396      1863.5604      3136.4396      2.062346e+09   0.5            4209000        0.57176503     6852.9467      13705.796      6.5753245    
   8413200   30534.828     -22.439197     -22411736       0.29146426     90927.504     -22320808       1272.8792      1272.8792      1272.8792      1863.5604      3136.4396      1863.5604      3136.4396      1863.5604      3136.4396      2.062346e+09   0.5            4209100        0.58589037     7079.4826      14159.133      6.5591373    
   8413400   30832.488     -22.957562     -22421479       0.29146426     91813.885     -22329665       1272.8792      1272.8792      1272.8792      1863.5604      3136.4396      1863.5604      3136.4396      1863.5604      3136.4396      2.062346e+09   0.5            4209200        0.59997786     7098.5349      14197.024      6.5426387    
   8413600   32026.414     -23.169044     -22421930       0.29146426     95369.193     -22326560       1272.8792      1272.8792      1272.8792      1863.5604      3136.4396      1863.5604      3136.4396      1863.5604      3136.4396      2.062346e+09   0.5            4209300        0.61436708     6949.6176      13899.277      6.5294583    
   8413800   33361.476     -23.390564     -22422349       0.29146426     99344.777     -22323004       1272.8792      1272.8792      1272.8792      1863.5604      3136.4396      1863.5604      3136.4396      1863.5604      3136.4396      2.062346e+09   0.5            4209400        0.62903814     6816.1647      13632.32       6.5191437    
   8414000   33819.439     -23.570828     -22422731       0.29146426     100708.51     -22322023       1272.8792      1272.8792      1272.8792      1863.5604      3136.4396      1863.5604      3136.4396      1863.5604      3136.4396      2.062346e+09   0.5            4209500        0.64327014     7026.3951      14052.703      6.5041984    
   8414200   33851.229     -24.148837     -22437836       0.29146426     100803.18     -22337032       1272.8792      1272.8792      1272.8792      1863.5604      3136.4396      1863.5604      3136.4396      1863.5604      3136.4396      2.062346e+09   0.5            4209600        0.65754707     7004.2917      14008.669      6.4897243    
   8414400   34666.385     -24.40228      -22440059       0.29146426     103230.58     -22336829       1272.8792      1272.8792      1272.8792      1863.5604      3136.4396      1863.5604      3136.4396      1863.5604      3136.4396      2.062346e+09   0.5            4209700        0.67240521     6730.3112      13460.601      6.4808622    
   8414600   36163.679     -24.506768     -22440360       0.29146426     107689.26     -22332671       1272.8792      1272.8792      1272.8792      1863.5604      3136.4396      1863.5604      3136.4396      1863.5604      3136.4396      2.062346e+09   0.5            4209800        0.68655976     7064.8686      14129.74       6.4651247    
   8414800   37060.839     -24.822863     -22448018       0.29146426     110360.85     -22337658       1272.8792      1272.8792      1272.8792      1863.5604      3136.4396      1863.5604      3136.4396      1863.5604      3136.4396      2.062346e+09   0.5            4209900        0.70074197     7051.1071      14102.152      6.4497065    
   8415000   37069.085     -25.012568     -22450173       0.29146426     110385.4      -22339787       1272.8792      1272.8792      1272.8792      1863.5604      3136.4396      1863.5604      3136.4396      1863.5604      3136.4396      2.062346e+09   0.5            4210000        0.7153142      6862.322       13724.522      6.4378504    
   8415200   37406.164     -25.201255     -22450406       0.29146426     111389.17     -22339017       1272.8792      1272.8792      1272.8792      1863.5604      3136.4396      1863.5604      3136.4396      1863.5604      3136.4396      2.062346e+09   0.5            4210100        0.7310184      6367.7172      12735.503      6.4358504    
   8415400   38804.906     -25.293906     -22454412       0.29146426     115554.38     -22338857       1272.8792      1272.8792      1272.8792      1863.5604      3136.4396      1863.5604      3136.4396      1863.5604      3136.4396      2.062346e+09   0.5            4210200        0.74527474     7014.4777      14028.953      6.4208486    
   8415600   40147.37      -25.314712     -22454623       0.29146426     119552.01     -22335071       1272.8792      1272.8792      1272.8792      1863.5604      3136.4396      1863.5604      3136.4396      1863.5604      3136.4396      2.062346e+09   0.5            4210300        0.75971504     6925.0869      13850.236      6.4074258    
   8415800   40410.643     -25.26172      -22455198       0.29146426     120335.99     -22334862       1272.8792      1272.8792      1272.8792      1863.5604      3136.4396      1863.5604      3136.4396      1863.5604      3136.4396      2.062346e+09   0.5            4210400        0.77413711     6933.8097      13867.678      6.3938164    
   8416000   40344.598     -25.523231     -22462774       0.29146426     120139.32     -22342635       1272.8792      1272.8792      1272.8792      1863.5604      3136.4396      1863.5604      3136.4396      1863.5604      3136.4396      2.062346e+09   0.5            4210500        0.78860376     6912.3925      13824.704      6.380541     
   8416200   41385.221     -25.471314     -22462983       0.29146426     123238.12     -22339745       1272.8792      1272.8792      1272.8792      1863.5604      3136.4396      1863.5604      3136.4396      1863.5604      3136.4396      2.062346e+09   0.5            4210600        0.80280047     7043.9064      14087.86       6.3650786    
   8416400   43066.699     -25.354427     -22463203       0.29146426     128245.28     -22334958       1272.8792      1272.8792      1272.8792      1863.5604      3136.4396      1863.5604      3136.4396      1863.5604      3136.4396      2.062346e+09   0.5            4210700        0.81694749     7068.6604      14137.381      6.3492752    
   8416600   43745.09      -25.430515     -22463434       0.29146426     130265.41     -22333168       1272.8792      1272.8792      1272.8792      1863.5604      3136.4396      1863.5604      3136.4396      1863.5604      3136.4396      2.062346e+09   0.5            4210800        0.83113527     7048.3315      14096.575      6.3338402    
   8416800   43425.623     -25.448781     -22463670       0.29146426     129314.09     -22334356       1272.8792      1272.8792      1272.8792      1863.5604      3136.4396      1863.5604      3136.4396      1863.5604      3136.4396      2.062346e+09   0.5            4210900        0.84557958     6923.1001      13846.277      6.3203651    
   8417000   43856.781     -25.353918     -22463927       0.29146426     130598        -22333329       1272.8792      1272.8792      1272.8792      1863.5604      3136.4396      1863.5604      3136.4396      1863.5604      3136.4396      2.062346e+09   0.5            4211000        0.85999215     6938.3907      13876.687      6.3066262    
   8417200   46399.389     -25.25041      -22464208       0.29146426     138169.46     -22326039       1272.8792      1272.8792      1272.8792      1863.5604      3136.4396      1863.5604      3136.4396      1863.5604      3136.4396      2.062346e+09   0.5            4211100        0.8744558      6913.9138      13827.901      6.2932294    
   8417400   47110.288     -25.30463      -22469991       0.29146426     140286.39     -22329705       1272.8792      1272.8792      1272.8792      1863.5604      3136.4396      1863.5604      3136.4396      1863.5604      3136.4396      2.062346e+09   0.5            4211200        0.88890806     6919.3057      13838.602      6.2797206    
   8417600   45915.397     -25.418856     -22470290       0.29146426     136728.21     -22333561       1272.8792      1272.8792      1272.8792      1863.5604      3136.4396      1863.5604      3136.4396      1863.5604      3136.4396      2.062346e+09   0.5            4211300        0.90308928     7051.578       14103.069      6.264301     
   8417800   44944.908     -25.386722     -22470593       0.29146426     133838.26     -22336754       1272.8792      1272.8792      1272.8792      1863.5604      3136.4396      1863.5604      3136.4396      1863.5604      3136.4396      2.062346e+09   0.5            4211400        0.917273       7050.3336      14100.768      6.2489368    
   8418000   47969.238     -25.042182     -22470904       0.29146426     142844.2      -22328060       1272.8792      1272.8792      1272.8792      1863.5604      3136.4396      1863.5604      3136.4396      1863.5604      3136.4396      2.062346e+09   0.5            4211500        0.93149245     7032.6366      14065.2        6.2338492    
   8418200   50086.011     -24.797095     -22463839       0.29146426     149147.59     -22314691       1272.8792      1272.8792      1272.8792      1863.5604      3136.4396      1863.5604      3136.4396      1863.5604      3136.4396      2.062346e+09   0.5            4211600        0.94607869     6855.7731      13711.615      6.2211981    
   8418400   50001.733     -24.760881     -22464132       0.29146426     148896.62     -22315236       1272.8792      1272.8792      1272.8792      1863.5604      3136.4396      1863.5604      3136.4396      1863.5604      3136.4396      2.062346e+09   0.5            4211700        0.96051621     6926.3978      13852.803      6.2075288    
   8418600   49321.517     -24.839046     -22471775       0.29146426     146871.06     -22324904       1272.8792      1272.8792      1272.8792      1863.5604      3136.4396      1863.5604      3136.4396      1863.5604      3136.4396      2.062346e+09   0.5            4211800        0.97495601     6925.32        13850.554      6.1938518    
   8418800   50965.737     -24.779489     -22471993       0.29146426     151767.26     -22320226       1272.8792      1272.8792      1272.8792      1863.5604      3136.4396      1863.5604      3136.4396      1863.5604      3136.4396      2.062346e+09   0.5            4211900        0.98942099     6913.2374      13826.516      6.1803099    
   8419000   53643.221     -24.312157     -22466720       0.29146426     159740.35     -22306979       1272.8792      1272.8792      1272.8792      1863.5604      3136.4396      1863.5604      3136.4396      1863.5604      3136.4396      2.062346e+09   0.5            4212000        1.0036369      7034.3612      14068.663      6.1652125    
   8419200   53044.583     -24.29626      -22459499       0.29146426     157957.71     -22301541       1272.8792      1272.8792      1272.8792      1863.5604      3136.4396      1863.5604      3136.4396      1863.5604      3136.4396      2.062346e+09   0.5            4212100        1.0179024      7009.9279      14019.878      6.1504377    
   8419400   52120.157     -24.189267     -22457718       0.29146426     155204.93     -22302513       1272.8792      1272.8792      1272.8792      1863.5604      3136.4396      1863.5604      3136.4396      1863.5604      3136.4396      2.062346e+09   0.5            4212200        1.0323837      6905.4774      13810.956      6.1369605    
   8419600   54937.202     -23.876923     -22457767       0.29146426     163593.61     -22294174       1272.8792      1272.8792      1272.8792      1863.5604      3136.4396      1863.5604      3136.4396      1863.5604      3136.4396      2.062346e+09   0.5            4212300        1.0465911      7038.5786      14077.146      6.121854     
   8419800   57252.277     -23.626371     -22457764       0.29146426     170487.5      -22287277       1272.8792      1272.8792      1272.8792      1863.5604      3136.4396      1863.5604      3136.4396      1863.5604      3136.4396      2.062346e+09   0.5            4212400        1.0610229      6929.1378      13858.372      6.108063     
   8420000   55154.085     -23.566438     -22457704       0.29146426     164239.45     -22293464       1272.8792      1272.8792      1272.8792      1863.5604      3136.4396      1863.5604      3136.4396      1863.5604      3136.4396      2.062346e+09   0.5            4212500        1.0755542      6881.684       13763.167      6.0948209    
   8420200   54507.46      -23.315398     -22450211       0.29146426     162313.91     -22287897       1272.8792      1272.8792      1272.8792      1863.5604      3136.4396      1863.5604      3136.4396      1863.5604      3136.4396      2.062346e+09   0.5            4212600        1.0900893      6879.8612      13759.795      6.0815644    
   8420400   57523.077     -22.903227     -22457445       0.29146426     171293.9      -22286152       1272.8792      1272.8792      1272.8792      1863.5604      3136.4396      1863.5604      3136.4396      1863.5604      3136.4396      2.062346e+09   0.5            4212700        1.104344       7015.2542      14030.593      6.0667329    
   8420600   58702.468     -22.839259     -22464653       0.29146426     174805.92     -22289847       1272.8792      1272.8792      1272.8792      1863.5604      3136.4396      1863.5604      3136.4396      1863.5604      3136.4396      2.062346e+09   0.5            4212800        1.1185588      7034.9783      14069.982      6.0517011    
   8420800   58253.288     -22.699095     -22471846       0.29146426     173468.34     -22298378       1272.8792      1272.8792      1272.8792      1863.5604      3136.4396      1863.5604      3136.4396      1863.5604      3136.4396      2.062346e+09   0.5            4212900        1.1330309      6909.7923      13819.526      6.0380627    
   8421000   58736.3       -22.317459     -22471299       0.29146426     174906.67     -22296393       1272.8792      1272.8792      1272.8792      1863.5604      3136.4396      1863.5604      3136.4396      1863.5604      3136.4396      2.062346e+09   0.5            4213000        1.1473313      6992.8036      13985.536      6.023502     
   8421200   62003.117     -21.784935     -22471118       0.29146426     184634.69     -22286483       1272.8792      1272.8792      1272.8792      1863.5604      3136.4396      1863.5604      3136.4396      1863.5604      3136.4396      2.062346e+09   0.5            4213100        1.1618945      6866.6637      13733.443      6.0103047    
   8421400   63126.731     -21.532458     -22478311       0.29146426     187980.62     -22290330       1272.8792      1272.8792      1272.8792      1863.5604      3136.4396      1863.5604      3136.4396      1863.5604      3136.4396      2.062346e+09   0.5            4213200        1.1767498      6731.6137      13463.237      5.9985645    
   8421600   60349.035     -21.527405     -22492916       0.29146426     179709.12     -22313207       1272.8792      1272.8792      1272.8792      1863.5604      3136.4396      1863.5604      3136.4396      1863.5604      3136.4396      2.062346e+09   0.5            4213300        1.1910252      7005.0675      14010.157      5.9838356    
   8421800   60105.515     -21.287585     -22492789       0.29146426     178983.96     -22313805       1272.8792      1272.8792      1272.8792      1863.5604      3136.4396      1863.5604      3136.4396      1863.5604      3136.4396      2.062346e+09   0.5            4213400        1.2052401      7034.857       14069.69       5.9688184    
   8422000   61889.557     -20.856879     -22500065       0.29146426     184296.53     -22315768       1272.8792      1272.8792      1272.8792      1863.5604      3136.4396      1863.5604      3136.4396      1863.5604      3136.4396      2.062346e+09   0.5            4213500        1.219528       6998.8527      13997.622      5.9541779    
   8422200   64530.71      -20.554432     -22514736       0.29146426     192161.43     -22322575       1272.8792      1272.8792      1272.8792      1863.5604      3136.4396      1863.5604      3136.4396      1863.5604      3136.4396      2.062346e+09   0.5            4213600        1.2340657      6878.7453      13757.556      5.9407452    
   8422400   65675.673     -20.279087     -22514681       0.29146426     195570.94     -22319110       1272.8792      1272.8792      1272.8792      1863.5604      3136.4396      1863.5604      3136.4396      1863.5604      3136.4396      2.062346e+09   0.5            4213700        1.2482975      7026.5146      14053.06       5.925836     
   8422600   64801.158     -19.945659     -22531278       0.29146426     192966.78     -22338311       1272.8792      1272.8792      1272.8792      1863.5604      3136.4396      1863.5604      3136.4396      1863.5604      3136.4396      2.062346e+09   0.5            4213800        1.2627756      6906.9627      13813.585      5.9120974    
   8422800   63377.602     -19.776906     -22544104       0.29146426     188727.68     -22355376       1272.8792      1272.8792      1272.8792      1863.5604      3136.4396      1863.5604      3136.4396      1863.5604      3136.4396      2.062346e+09   0.5            4213900        1.2776587      6719.0411      13438.292      5.9002095    
   8423000   66425.121     -19.446017     -22551464       0.29146426     197802.67     -22353662       1272.8792      1272.8792      1272.8792      1863.5604      3136.4396      1863.5604      3136.4396      1863.5604      3136.4396      2.062346e+09   0.5            4214000        1.2919442      7000.0864      14000.142      5.8855341    
   8423200   69171.222     -19.079048     -22558822       0.29146426     205980.09     -22352842       1272.8792      1272.8792      1272.8792      1863.5604      3136.4396      1863.5604      3136.4396      1863.5604      3136.4396      2.062346e+09   0.5            4214100        1.3062796      6975.754       13951.621      5.8710905    
   8423400   68322.197     -18.803314     -22558777       0.29146426     203451.84     -22355326       1272.8792      1272.8792      1272.8792      1863.5604      3136.4396      1863.5604      3136.4396      1863.5604      3136.4396      2.062346e+09   0.5            4214200        1.3205523      7006.3863      14012.833      5.8563714    
   8423600   66966.086     -18.430655     -22551336       0.29146426     199413.57     -22351922       1272.8792      1272.8792      1272.8792      1863.5604      3136.4396      1863.5604      3136.4396      1863.5604      3136.4396      2.062346e+09   0.5            4214300        1.3351529      6849.0341      13698.04       5.8430978    
   8423800   69739.063     -17.769829     -22551259       0.29146426     207671.02     -22343588       1272.8792      1272.8792      1272.8792      1863.5604      3136.4396      1863.5604      3136.4396      1863.5604      3136.4396      2.062346e+09   0.5            4214400        1.3494429      6997.9168      13995.829      5.828454     
   8424000   72963.728     -17.202259     -22558523       0.29146426     217273.52     -22341250       1272.8792      1272.8792      1272.8792      1863.5604      3136.4396      1863.5604      3136.4396      1863.5604      3136.4396      2.062346e+09   0.5            4214500        1.3641283      6809.4671      13618.852      5.815504     
   8424200   71173.349     -17.025373     -22565734       0.29146426     211942.08     -22353792       1272.8792      1272.8792      1272.8792      1863.5604      3136.4396      1863.5604      3136.4396      1863.5604      3136.4396      2.062346e+09   0.5            4214600        1.3787568      6835.9896      13672.05       5.8022768    
   8424400   69573.994     -16.741364     -22565193       0.29146426     207179.47     -22358013       1272.8792      1272.8792      1272.8792      1863.5604      3136.4396      1863.5604      3136.4396      1863.5604      3136.4396      2.062346e+09   0.5            4214700        1.3933497      6852.6161      13705.222      5.7888741    
   8424600   73495.832     -16.092937     -22564993       0.29146426     218858.04     -22346135       1272.8792      1272.8792      1272.8792      1863.5604      3136.4396      1863.5604      3136.4396      1863.5604      3136.4396      2.062346e+09   0.5            4214800        1.4076191      7008.0228      14016.073      5.7741192    
   8424800   75959.198     -15.474888     -22566660       0.29146426     226193.52     -22340466       1272.8792      1272.8792      1272.8792      1863.5604      3136.4396      1863.5604      3136.4396      1863.5604      3136.4396      2.062346e+09   0.5            4214900        1.4219291      6988.1153      13976.225      5.7595395    
   8425000   73765.119     -15.416117     -22566396       0.29146426     219659.93     -22346736       1272.8792      1272.8792      1272.8792      1863.5604      3136.4396      1863.5604      3136.4396      1863.5604      3136.4396      2.062346e+09   0.5            4215000        1.4365287      6849.4797      13698.868      5.7461243    
   8425200   72865.533     -15.261507     -22580875       0.29146426     216981.12     -22363894       1272.8792      1272.8792      1272.8792      1863.5604      3136.4396      1863.5604      3136.4396      1863.5604      3136.4396      2.062346e+09   0.5            4215100        1.4509083      6954.3123      13908.723      5.7318148    
   8425400   76580.509     -14.355614     -22580593       0.29146426     228043.68     -22352550       1272.8792      1272.8792      1272.8792      1863.5604      3136.4396      1863.5604      3136.4396      1863.5604      3136.4396      2.062346e+09   0.5            4215200        1.4655147      6846.3069      13692.551      5.7183894    
   8425600   78847.601     -13.716309     -22572906       0.29146426     234794.69     -22338112       1272.8792      1272.8792      1272.8792      1863.5604      3136.4396      1863.5604      3136.4396      1863.5604      3136.4396      2.062346e+09   0.5            4215300        1.4801023      6855.1241      13710.299      5.704869     
   8425800   77226.209     -13.281916     -22565187       0.29146426     229966.46     -22335220       1272.8792      1272.8792      1272.8792      1863.5604      3136.4396      1863.5604      3136.4396      1863.5604      3136.4396      2.062346e+09   0.5            4215400        1.4946986      6851.0522      13702.112      5.6913608    
   8426000   76600.771     -13.035965     -22564848       0.29146426     228104.02     -22336744       1272.8792      1272.8792      1272.8792      1863.5604      3136.4396      1863.5604      3136.4396      1863.5604      3136.4396      2.062346e+09   0.5            4215500        1.5089981      6993.2227      13986.312      5.6767164    
   8426200   78611.353     -12.583881     -22579245       0.29146426     234091.18     -22345154       1272.8792      1272.8792      1272.8792      1863.5604      3136.4396      1863.5604      3136.4396      1863.5604      3136.4396      2.062346e+09   0.5            4215600        1.5233313      6976.8787      13953.918      5.6622013    
   8426400   83001.671     -11.878331     -22576980       0.29146426     247164.8      -22329816       1272.8792      1272.8792      1272.8792      1863.5604      3136.4396      1863.5604      3136.4396      1863.5604      3136.4396      2.062346e+09   0.5            4215700        1.5378887      6869.3246      13738.637      5.6485151    
   8426600   82118.397     -11.791209     -22593224       0.29146426     244534.56     -22348689       1272.8792      1272.8792      1272.8792      1863.5604      3136.4396      1863.5604      3136.4396      1863.5604      3136.4396      2.062346e+09   0.5            4215800        1.552161       7006.5718      14013.162      5.6337773    
   8426800   76175.3       -11.782293     -22585459       0.29146426     226837.04     -22358622       1272.8792      1272.8792      1272.8792      1863.5604      3136.4396      1863.5604      3136.4396      1863.5604      3136.4396      2.062346e+09   0.5            4215900        1.5667724      6843.9983      13687.866      5.6202649    
   8427000   79629.807     -11.372925     -22585095       0.29146426     237123.97     -22347971       1272.8792      1272.8792      1272.8792      1863.5604      3136.4396      1863.5604      3136.4396      1863.5604      3136.4396      2.062346e+09   0.5            4216000        1.5816837      6706.2703      13412.528      5.6077963    
   8427200   83326.845     -10.758149     -22584724       0.29146426     248133.12     -22336591       1272.8792      1272.8792      1272.8792      1863.5604      3136.4396      1863.5604      3136.4396      1863.5604      3136.4396      2.062346e+09   0.5            4216100        1.596049       6961.2321      13922.533      5.5933686    
   8427400   83997.773     -10.639778     -22591743       0.29146426     250131.02     -22341612       1272.8792      1272.8792      1272.8792      1863.5604      3136.4396      1863.5604      3136.4396      1863.5604      3136.4396      2.062346e+09   0.5            4216200        1.6103651      6985.167       13970.331      5.5787724    
   8427600   82829.159     -10.186751     -22591407       0.29146426     246651.09     -22344756       1272.8792      1272.8792      1272.8792      1863.5604      3136.4396      1863.5604      3136.4396      1863.5604      3136.4396      2.062346e+09   0.5            4216300        1.6246829      6984.3542      13968.774      5.5641865    
   8427800   82377.01      -9.7191833     -22583712       0.29146426     245304.67     -22338408       1272.8792      1272.8792      1272.8792      1863.5604      3136.4396      1863.5604      3136.4396      1863.5604      3136.4396      2.062346e+09   0.5            4216400        1.6392797      6850.7885      13701.539      5.550551     
   8428000   86790.53      -9.354975      -22590806       0.29146426     258447.38     -22332359       1272.8792      1272.8792      1272.8792      1863.5604      3136.4396      1863.5604      3136.4396      1863.5604      3136.4396      2.062346e+09   0.5            4216500        1.6536376      6964.8117      13929.583      5.536099     
   8428200   88473.261     -8.9332618     -22590540       0.29146426     263458.26     -22327082       1272.8792      1272.8792      1272.8792      1863.5604      3136.4396      1863.5604      3136.4396      1863.5604      3136.4396      2.062346e+09   0.5            4216600        1.6683559      6794.2929      13588.614      5.5228403    
   8428400   85543.052     -8.919799      -22597660       0.29146426     254732.6      -22342927       1272.8792      1272.8792      1272.8792      1863.5604      3136.4396      1863.5604      3136.4396      1863.5604      3136.4396      2.062346e+09   0.5            4216700        1.683235       6720.8122      13441.491      5.5100844    
   8428600   83775.867     -8.6620349     -22597407       0.29146426     249470.23     -22347937       1272.8792      1272.8792      1272.8792      1863.5604      3136.4396      1863.5604      3136.4396      1863.5604      3136.4396      2.062346e+09   0.5            4216800        1.6975569      6982.2982      13964.736      5.495488     
   8428800   90570.617     -7.8399791     -22597161       0.29146426     269703.83     -22327458       1272.8792      1272.8792      1272.8792      1863.5604      3136.4396      1863.5604      3136.4396      1863.5604      3136.4396      2.062346e+09   0.5            4216900        1.7118818      6980.8929      13961.82       5.4809055    
   8429000   91301.821     -7.5672548     -22596865       0.29146426     271881.23     -22324984       1272.8792      1272.8792      1272.8792      1863.5604      3136.4396      1863.5604      3136.4396      1863.5604      3136.4396      2.062346e+09   0.5            4217000        1.7265057      6838.0688      13676.02       5.4672758    
   8429200   87958.075     -7.2724489     -22596537       0.29146426     261924.13     -22334612       1272.8792      1272.8792      1272.8792      1863.5604      3136.4396      1863.5604      3136.4396      1863.5604      3136.4396      2.062346e+09   0.5            4217100        1.7408748      6959.4261      13918.966      5.4528292    
   8429400   87759.492     -6.9945686     -22598063       0.29146426     261332.78     -22336730       1272.8792      1272.8792      1272.8792      1863.5604      3136.4396      1863.5604      3136.4396      1863.5604      3136.4396      2.062346e+09   0.5            4217200        1.7551643      6998.1533      13996.346      5.4381382    
   8429600   93246.682     -6.2647178     -22605022       0.29146426     277672.7      -22327349       1272.8792      1272.8792      1272.8792      1863.5604      3136.4396      1863.5604      3136.4396      1863.5604      3136.4396      2.062346e+09   0.5            4217300        1.7700196      6731.5303      13463.074      5.4251886    
   8429800   93764.969     -5.7993413     -22597152       0.29146426     279216.07     -22317936       1272.8792      1272.8792      1272.8792      1863.5604      3136.4396      1863.5604      3136.4396      1863.5604      3136.4396      2.062346e+09   0.5            4217400        1.7846066      6855.4723      13710.856      5.411394     
   8430000   91885.152     -5.5553872     -22591085       0.29146426     273618.29     -22317467       1272.8792      1272.8792      1272.8792      1863.5604      3136.4396      1863.5604      3136.4396      1863.5604      3136.4396      2.062346e+09   0.5            4217500        1.7992117      6846.8976      13693.729      5.3976421    
   8430200   91900.305     -5.031815      -22590416       0.29146426     273663.42     -22316753       1272.8792      1272.8792      1272.8792      1863.5604      3136.4396      1863.5604      3136.4396      1863.5604      3136.4396      2.062346e+09   0.5            4217600        1.8136058      6947.3261      13894.785      5.3832488    
   8430400   96868.352     -4.3947863     -22597030       0.29146426     288457.41     -22308573       1272.8792      1272.8792      1272.8792      1863.5604      3136.4396      1863.5604      3136.4396      1863.5604      3136.4396      2.062346e+09   0.5            4217700        1.8279591      6967.0545      13934.011      5.3687365    
   8430600   99372.333     -3.7275276     -22596164       0.29146426     295913.84     -22300251       1272.8792      1272.8792      1272.8792      1863.5604      3136.4396      1863.5604      3136.4396      1863.5604      3136.4396      2.062346e+09   0.5            4217800        1.8425928      6833.5226      13667.056      5.3550416    
   8430800   95999.916     -3.5089557     -22595210       0.29146426     285871.36     -22309338       1272.8792      1272.8792      1272.8792      1863.5604      3136.4396      1863.5604      3136.4396      1863.5604      3136.4396      2.062346e+09   0.5            4217900        1.8569344      6972.746       13945.524      5.3404918    
   8431000   94984.993     -3.1439197     -22594189       0.29146426     282849.09     -22311340       1272.8792      1272.8792      1272.8792      1863.5604      3136.4396      1863.5604      3136.4396      1863.5604      3136.4396      2.062346e+09   0.5            4218000        1.8718458      6706.2721      13412.492      5.3275674    
   8431200   96700.223     -2.5731181     -22593125       0.29146426     287956.75     -22305168       1272.8792      1272.8792      1272.8792      1863.5604      3136.4396      1863.5604      3136.4396      1863.5604      3136.4396      2.062346e+09   0.5            4218100        1.8865194      6814.9467      13629.963      5.3139422    
   8431400   100295.61     -1.8257914     -22595808       0.29146426     298663.2      -22297144       1272.8792      1272.8792      1272.8792      1863.5604      3136.4396      1863.5604      3136.4396      1863.5604      3136.4396      2.062346e+09   0.5            4218200        1.9008858      6960.6783      13921.361      5.299445     
   8431600   101125.46     -0.99775366    -22594645       0.29146426     301134.35     -22293511       1272.8792      1272.8792      1272.8792      1863.5604      3136.4396      1863.5604      3136.4396      1863.5604      3136.4396      2.062346e+09   0.5            4218300        1.915261       6956.4143      13912.807      5.2849743    
   8431800   95145.817     -0.83185491    -22578704       0.29146426     283328        -22295376       1272.8792      1272.8792      1272.8792      1863.5604      3136.4396      1863.5604      3136.4396      1863.5604      3136.4396      2.062346e+09   0.5            4218400        1.9299195      6821.9618      13643.894      5.2712788    
   8432000   95209.397     -0.30477952    -22577578       0.29146426     283517.33     -22294061       1272.8792      1272.8792      1272.8792      1863.5604      3136.4396      1863.5604      3136.4396      1863.5604      3136.4396      2.062346e+09   0.5            4218500        1.9443363      6936.3453      13872.7        5.2569156    
   8432200   100828.05      0.61072155    -22576481       0.29146426     300248.71     -22276232       1272.8792      1272.8792      1272.8792      1863.5604      3136.4396      1863.5604      3136.4396      1863.5604      3136.4396      2.062346e+09   0.5            4218600        1.9592292      6714.5986      13429.241      5.2438253    
   8432400   102358.31      1.0444078     -22582764       0.29146426     304805.58     -22277959       1272.8792      1272.8792      1272.8792      1863.5604      3136.4396      1863.5604      3136.4396      1863.5604      3136.4396      2.062346e+09   0.5            4218700        1.9740378      6752.8643      13505.744      5.2304853    
   8432600   102282.78      1.5480873     -22583600       0.29146426     304580.65     -22279019       1272.8792      1272.8792      1272.8792      1863.5604      3136.4396      1863.5604      3136.4396      1863.5604      3136.4396      2.062346e+09   0.5            4218800        1.9884438      6941.5767      13883.167      5.2160682    
   8432800   102542.72      2.0013976     -22588050       0.29146426     305354.7      -22282695       1272.8792      1272.8792      1272.8792      1863.5604      3136.4396      1863.5604      3136.4396      1863.5604      3136.4396      2.062346e+09   0.5            4218900        2.0030779      6833.3326      13666.641      5.2022439    
   8433000   105807.66      2.6701176     -22576086       0.29146426     315077.13     -22261009       1272.8792      1272.8792      1272.8792      1863.5604      3136.4396      1863.5604      3136.4396      1863.5604      3136.4396      2.062346e+09   0.5            4219000        2.0174581      6954.0115      13907.923      5.1877555    
   8433200   107653         3.1589145     -22575082       0.29146426     320572.25     -22254510       1272.8792      1272.8792      1272.8792      1863.5604      3136.4396      1863.5604      3136.4396      1863.5604      3136.4396      2.062346e+09   0.5            4219100        2.0321645      6799.7459      13599.545      5.1740982    
   8433400   103289.98      3.241185      -22566712       0.29146426     307579.94     -22259132       1272.8792      1272.8792      1272.8792      1863.5604      3136.4396      1863.5604      3136.4396      1863.5604      3136.4396      2.062346e+09   0.5            4219200        2.0465398      6956.4133      13912.857      5.1595916    
   8433600   100538.31      3.5440153     -22565748       0.29146426     299385.92     -22266362       1272.8792      1272.8792      1272.8792      1863.5604      3136.4396      1863.5604      3136.4396      1863.5604      3136.4396      2.062346e+09   0.5            4219300        2.0611255      6856.0128      13712.042      5.1456123    
   8433800   107485.81      4.3899179     -22572184       0.29146426     320074.38     -22252110       1272.8792      1272.8792      1272.8792      1863.5604      3136.4396      1863.5604      3136.4396      1863.5604      3136.4396      2.062346e+09   0.5            4219400        2.0760338      6707.6702      13415.3        5.1324224    
   8434000   108646.09      4.6251332     -22571218       0.29146426     323529.51     -22247688       1272.8792      1272.8792      1272.8792      1863.5604      3136.4396      1863.5604      3136.4396      1863.5604      3136.4396      2.062346e+09   0.5            4219500        2.090436       6943.3398      13886.597      5.11797      
   8434200   107226.29      4.9395292     -22570248       0.29146426     319301.58     -22250947       1272.8792      1272.8792      1272.8792      1863.5604      3136.4396      1863.5604      3136.4396      1863.5604      3136.4396      2.062346e+09   0.5            4219600        2.1051487      6796.8772      13593.754      5.1042702    
   8434400   107467.38      5.0986829     -22571165       0.29146426     320019.49     -22251145       1272.8792      1272.8792      1272.8792      1863.5604      3136.4396      1863.5604      3136.4396      1863.5604      3136.4396      2.062346e+09   0.5            4219700        2.1195416      6947.9073      13895.879      5.0897888    
   8434600   112445.92      5.6420101     -22577563       0.29146426     334844.74     -22242718       1272.8792      1272.8792      1272.8792      1863.5604      3136.4396      1863.5604      3136.4396      1863.5604      3136.4396      2.062346e+09   0.5            4219800        2.1342147      6815.1734      13630.357      5.0759752    
   8434800   114026.52      5.9409954     -22583931       0.29146426     339551.52     -22244380       1272.8792      1272.8792      1272.8792      1863.5604      3136.4396      1863.5604      3136.4396      1863.5604      3136.4396      2.062346e+09   0.5            4219900        2.1486839      6911.245       13822.466      5.0616699    
   8435000   107652.24      5.7731764     -22582945       0.29146426     320569.98     -22262375       1272.8792      1272.8792      1272.8792      1863.5604      3136.4396      1863.5604      3136.4396      1863.5604      3136.4396      2.062346e+09   0.5            4220000        2.163337       6824.4027      13648.813      5.0477921    
   8435200   105859.69      5.7166228     -22576539       0.29146426     315232.07     -22261307       1272.8792      1272.8792      1272.8792      1863.5604      3136.4396      1863.5604      3136.4396      1863.5604      3136.4396      2.062346e+09   0.5            4220100        2.1783858      6645.106       13290.206      5.0348173    
   8435400   109931.65      6.2863633     -22575688       0.29146426     327357.69     -22248330       1272.8792      1272.8792      1272.8792      1863.5604      3136.4396      1863.5604      3136.4396      1863.5604      3136.4396      2.062346e+09   0.5            4220200        2.1928102      6932.7325      13865.528      5.0203861    
   8435600   113249.39      6.6260982     -22574874       0.29146426     337237.35     -22237636       1272.8792      1272.8792      1272.8792      1863.5604      3136.4396      1863.5604      3136.4396      1863.5604      3136.4396      2.062346e+09   0.5            4220300        2.2074832      6815.205       13630.394      5.006519     
   8435800   116188.21      6.8607169     -22583382       0.29146426     345988.65     -22237393       1272.8792      1272.8792      1272.8792      1863.5604      3136.4396      1863.5604      3136.4396      1863.5604      3136.4396      2.062346e+09   0.5            4220400        2.2218394      6965.6558      13931.351      4.9919297    
   8436000   115781.58      6.9242462     -22591930       0.29146426     344777.77     -22247152       1272.8792      1272.8792      1272.8792      1863.5604      3136.4396      1863.5604      3136.4396      1863.5604      3136.4396      2.062346e+09   0.5            4220500        2.2365399      6802.4532      13604.769      4.9781104    
   8436200   112151.97      6.9408128     -22578427       0.29146426     333969.42     -22244458       1272.8792      1272.8792      1272.8792      1863.5604      3136.4396      1863.5604      3136.4396      1863.5604      3136.4396      2.062346e+09   0.5            4220600        2.2509953      6917.9104      13835.975      4.9637377    
   8436400   112145.84      7.0276167     -22585239       0.29146426     333951.17     -22251287       1272.8792      1272.8792      1272.8792      1863.5604      3136.4396      1863.5604      3136.4396      1863.5604      3136.4396      2.062346e+09   0.5            4220700        2.2656215      6837.0342      13674.036      4.9497381    
   8436600   119784.61      7.4633779     -22592070       0.29146426     356698.13     -22235372       1272.8792      1272.8792      1272.8792      1863.5604      3136.4396      1863.5604      3136.4396      1863.5604      3136.4396      2.062346e+09   0.5            4220800        2.2805331      6706.1412      13412.319      4.9363484    
   8436800   119829.36      7.6815744     -22596993       0.29146426     356831.38     -22240161       1272.8792      1272.8792      1272.8792      1863.5604      3136.4396      1863.5604      3136.4396      1863.5604      3136.4396      2.062346e+09   0.5            4220900        2.294922       6949.7832      13899.555      4.9218186    
   8437000   116404.61      7.6014801     -22618559       0.29146426     346633.04     -22271926       1272.8792      1272.8792      1272.8792      1863.5604      3136.4396      1863.5604      3136.4396      1863.5604      3136.4396      2.062346e+09   0.5            4221000        2.3095988      6813.518       13626.855      4.9079025    
   8437200   116288.46      7.6753425     -22627252       0.29146426     346287.18     -22280965       1272.8792      1272.8792      1272.8792      1863.5604      3136.4396      1863.5604      3136.4396      1863.5604      3136.4396      2.062346e+09   0.5            4221100        2.3240243      6932.1817      13864.497      4.893447     
   8437400   124946.16      8.3762297     -22634001       0.29146426     372068.33     -22261933       1272.8792      1272.8792      1272.8792      1863.5604      3136.4396      1863.5604      3136.4396      1863.5604      3136.4396      2.062346e+09   0.5            4221200        2.3387543      6788.8354      13577.679      4.8796276    
   8437600   123709.27      8.5255448     -22633264       0.29146426     368385.09     -22264879       1272.8792      1272.8792      1272.8792      1863.5604      3136.4396      1863.5604      3136.4396      1863.5604      3136.4396      2.062346e+09   0.5            4221300        2.353128       6957.1727      13914.389      4.8650603    
   8437800   118982.02      8.3188669     -22639820       0.29146426     354308.13     -22285512       1272.8792      1272.8792      1272.8792      1863.5604      3136.4396      1863.5604      3136.4396      1863.5604      3136.4396      2.062346e+09   0.5            4221400        2.3679548      6744.5387      13489.044      4.851424     
   8438000   119649.69      8.6696872     -22640825       0.29146426     356296.33     -22284529       1272.8792      1272.8792      1272.8792      1863.5604      3136.4396      1863.5604      3136.4396      1863.5604      3136.4396      2.062346e+09   0.5            4221500        2.3826242      6816.8854      13633.646      4.837454     
   8438200   124485.61      9.1673914     -22647224       0.29146426     370696.88     -22276527       1272.8792      1272.8792      1272.8792      1863.5604      3136.4396      1863.5604      3136.4396      1863.5604      3136.4396      2.062346e+09   0.5            4221600        2.3973183      6805.4627      13611          4.8235245    
   8438400   125166.98      9.5006303     -22638743       0.29146426     372725.9      -22266017       1272.8792      1272.8792      1272.8792      1863.5604      3136.4396      1863.5604      3136.4396      1863.5604      3136.4396      2.062346e+09   0.5            4221700        2.4116819      6962.0759      13924.193      4.8089268    
   8438600   123875.96      9.5663604     -22637541       0.29146426     368881.46     -22268659       1272.8792      1272.8792      1272.8792      1863.5604      3136.4396      1863.5604      3136.4396      1863.5604      3136.4396      2.062346e+09   0.5            4221800        2.4263005      6840.5713      13681.111      4.7948362    
   8438800   123979.98      9.6961733     -22643664       0.29146426     369191.21     -22274473       1272.8792      1272.8792      1272.8792      1863.5604      3136.4396      1863.5604      3136.4396      1863.5604      3136.4396      2.062346e+09   0.5            4221900        2.4407151      6937.4174      13874.91       4.7803397    
   8439000   127839.15      10.063028     -22638541       0.29146426     380683.17     -22257858       1272.8792      1272.8792      1272.8792      1863.5604      3136.4396      1863.5604      3136.4396      1863.5604      3136.4396      2.062346e+09   0.5            4222000        2.4558579      6603.7719      13207.479      4.7672582    
   8439200   131815.07      10.568083     -22639003       0.29146426     392522.76     -22246480       1272.8792      1272.8792      1272.8792      1863.5604      3136.4396      1863.5604      3136.4396      1863.5604      3136.4396      2.062346e+09   0.5            4222100        2.4708387      6675.2363      13350.556      4.7538399    
   8439400   126084.95      10.697116     -22620857       0.29146426     375459.45     -22245398       1272.8792      1272.8792      1272.8792      1863.5604      3136.4396      1863.5604      3136.4396      1863.5604      3136.4396      2.062346e+09   0.5            4222200        2.4854469      6845.4727      13690.925      4.7396935    
   8439600   120991.75      10.837649     -22611998       0.29146426     360292.78     -22251705       1272.8792      1272.8792      1272.8792      1863.5604      3136.4396      1863.5604      3136.4396      1863.5604      3136.4396      2.062346e+09   0.5            4222300        2.5001829      6786.0952      13572.112      4.7257834    
   8439800   126479.51      11.372495     -22612069       0.29146426     376634.39     -22235435       1272.8792      1272.8792      1272.8792      1863.5604      3136.4396      1863.5604      3136.4396      1863.5604      3136.4396      2.062346e+09   0.5            4222400        2.5145855      6943.186       13886.381      4.7112391    
   8440000   129922.03      11.636487     -22625359       0.29146426     386885.61     -22238473       1272.8792      1272.8792      1272.8792      1863.5604      3136.4396      1863.5604      3136.4396      1863.5604      3136.4396      2.062346e+09   0.5            4222500        2.5293351      6779.6468      13559.274      4.6973417    
   8440200   131185.44      12.235153     -22623908       0.29146426     390647.84     -22233260       1272.8792      1272.8792      1272.8792      1863.5604      3136.4396      1863.5604      3136.4396      1863.5604      3136.4396      2.062346e+09   0.5            4222600        2.543821       6903.4437      13806.935      4.6829473    
   8440400   131462.98      12.327293     -22622478       0.29146426     391474.32     -22231004       1272.8792      1272.8792      1272.8792      1863.5604      3136.4396      1863.5604      3136.4396      1863.5604      3136.4396      2.062346e+09   0.5            4222700        2.5585207      6802.8474      13605.654      4.668943     
   8440600   132328.52      12.995115     -22613686       0.29146426     394051.75     -22219634       1272.8792      1272.8792      1272.8792      1863.5604      3136.4396      1863.5604      3136.4396      1863.5604      3136.4396      2.062346e+09   0.5            4222800        2.5734773      6686.0428      13372.162      4.6553954    
   8440800   134513.98      13.275524     -22616110       0.29146426     400559.68     -22215550       1272.8792      1272.8792      1272.8792      1863.5604      3136.4396      1863.5604      3136.4396      1863.5604      3136.4396      2.062346e+09   0.5            4222900        2.5879014      6932.8574      13865.729      4.6408772    
   8441000   134758.13      13.652081     -22614769       0.29146426     401286.69     -22213482       1272.8792      1272.8792      1272.8792      1863.5604      3136.4396      1863.5604      3136.4396      1863.5604      3136.4396      2.062346e+09   0.5            4223000        2.6026575      6776.8207      13553.232      4.6269515    
   8441200   131883.71      13.701698     -22622726       0.29146426     392727.18     -22229999       1272.8792      1272.8792      1272.8792      1863.5604      3136.4396      1863.5604      3136.4396      1863.5604      3136.4396      2.062346e+09   0.5            4223100        2.6171673      6891.9522      13784.346      4.6125803    
   8441400   131211         14.134434     -22614069       0.29146426     390723.95     -22223345       1272.8792      1272.8792      1272.8792      1863.5604      3136.4396      1863.5604      3136.4396      1863.5604      3136.4396      2.062346e+09   0.5            4223200        2.6318812      6796.2669      13592.497      4.5985654    
   8441600   138493.53      14.957893     -22627563       0.29146426     412410.07     -22215153       1272.8792      1272.8792      1272.8792      1863.5604      3136.4396      1863.5604      3136.4396      1863.5604      3136.4396      2.062346e+09   0.5            4223300        2.6463149      6928.2717      13856.542      4.5840572    
   8441800   139817         15.157149     -22633621       0.29146426     416351.14     -22217270       1272.8792      1272.8792      1272.8792      1863.5604      3136.4396      1863.5604      3136.4396      1863.5604      3136.4396      2.062346e+09   0.5            4223400        2.6611612      6735.6786      13471.381      4.5702586    
   8442000   135033.54      14.933903     -22654393       0.29146426     402106.82     -22252286       1272.8792      1272.8792      1272.8792      1863.5604      3136.4396      1863.5604      3136.4396      1863.5604      3136.4396      2.062346e+09   0.5            4223500        2.6760044      6737.0073      13473.916      4.5564441    
   8442200   133557.41      15.165835     -22653027       0.29146426     397711.16     -22255316       1272.8792      1272.8792      1272.8792      1863.5604      3136.4396      1863.5604      3136.4396      1863.5604      3136.4396      2.062346e+09   0.5            4223600        2.6907881      6764.245       13528.494      4.5425171    
   8442400   144787.51      16.310036     -22651560       0.29146426     431152.49     -22220407       1272.8792      1272.8792      1272.8792      1863.5604      3136.4396      1863.5604      3136.4396      1863.5604      3136.4396      2.062346e+09   0.5            4223700        2.7052339      6922.4694      13844.969      4.5280154    
   8442600   142860.72      16.569755     -22651850       0.29146426     425414.82     -22226435       1272.8792      1272.8792      1272.8792      1863.5604      3136.4396      1863.5604      3136.4396      1863.5604      3136.4396      2.062346e+09   0.5            4223800        2.7196742      6925.0624      13850.201      4.5135053    
   8442800   136377.94      16.356654     -22655643       0.29146426     406110.22     -22249533       1272.8792      1272.8792      1272.8792      1863.5604      3136.4396      1863.5604      3136.4396      1863.5604      3136.4396      2.062346e+09   0.5            4223900        2.7343992      6791.13        13582.158      4.4994648    
   8443000   137307.63      16.624447     -22660919       0.29146426     408878.68     -22252040       1272.8792      1272.8792      1272.8792      1863.5604      3136.4396      1863.5604      3136.4396      1863.5604      3136.4396      2.062346e+09   0.5            4224000        2.7489224      6885.56        13771.1        4.4850876    
   8443200   144045.29      17.355716     -22673853       0.29146426     428942.27     -22244910       1272.8792      1272.8792      1272.8792      1863.5604      3136.4396      1863.5604      3136.4396      1863.5604      3136.4396      2.062346e+09   0.5            4224100        2.7639454      6656.453       13312.98       4.4715173    
   8443400   143962.51      17.600289     -22664561       0.29146426     428695.77     -22235865       1272.8792      1272.8792      1272.8792      1863.5604      3136.4396      1863.5604      3136.4396      1863.5604      3136.4396      2.062346e+09   0.5            4224200        2.7786944      6780.1349      13560.281      4.4574923    
   8443600   141832.35      17.751446     -22664503       0.29146426     422352.51     -22242151       1272.8792      1272.8792      1272.8792      1863.5604      3136.4396      1863.5604      3136.4396      1863.5604      3136.4396      2.062346e+09   0.5            4224300        2.7934313      6785.6964      13571.413      4.4434406    
   8443800   142181.19      17.83047      -22671477       0.29146426     423391.31     -22248086       1272.8792      1272.8792      1272.8792      1863.5604      3136.4396      1863.5604      3136.4396      1863.5604      3136.4396      2.062346e+09   0.5            4224400        2.8079023      6910.3185      13820.6        4.4289629    
   8444000   148673.8       18.194425     -22691718       0.29146426     442725.19     -22248993       1272.8792      1272.8792      1272.8792      1863.5604      3136.4396      1863.5604      3136.4396      1863.5604      3136.4396      2.062346e+09   0.5            4224500        2.8224163      6889.8894      13779.715      4.4145524    
   8444200   153642.04      19.088902     -22682441       0.29146426     457519.77     -22224921       1272.8792      1272.8792      1272.8792      1863.5604      3136.4396      1863.5604      3136.4396      1863.5604      3136.4396      2.062346e+09   0.5            4224600        2.837255       6739.1303      13478.359      4.4006438    
   8444400   144473.93      18.738037     -22678725       0.29146426     430218.68     -22248507       1272.8792      1272.8792      1272.8792      1863.5604      3136.4396      1863.5604      3136.4396      1863.5604      3136.4396      2.062346e+09   0.5            4224700        2.8517155      6915.4395      13830.866      4.3861444    
   8444600   143237.38      18.916558     -22684450       0.29146426     426536.46     -22257914       1272.8792      1272.8792      1272.8792      1863.5604      3136.4396      1863.5604      3136.4396      1863.5604      3136.4396      2.062346e+09   0.5            4224800        2.8664596      6782.3717      13564.753      4.3720781    
   8444800   147510.66      19.29041      -22682936       0.29146426     439261.56     -22243674       1272.8792      1272.8792      1272.8792      1863.5604      3136.4396      1863.5604      3136.4396      1863.5604      3136.4396      2.062346e+09   0.5            4224900        2.8816018      6604.044       13208.067      4.3586069    
   8445000   151276.75      19.510701     -22694401       0.29146426     450476.32     -22243924       1272.8792      1272.8792      1272.8792      1863.5604      3136.4396      1863.5604      3136.4396      1863.5604      3136.4396      2.062346e+09   0.5            4225000        2.8961104      6892.4776      13784.87       4.3441692    
   8445200   149489.79      19.466273     -22700485       0.29146426     445155.08     -22255330       1272.8792      1272.8792      1272.8792      1863.5604      3136.4396      1863.5604      3136.4396      1863.5604      3136.4396      2.062346e+09   0.5            4225100        2.9106658      6870.3152      13740.748      4.3297995    
   8445400   142091.46      19.188377     -22707098       0.29146426     423124.1      -22283974       1272.8792      1272.8792      1272.8792      1863.5604      3136.4396      1863.5604      3136.4396      1863.5604      3136.4396      2.062346e+09   0.5            4225200        2.9254544      6761.9493      13523.898      4.3157725    
   8445600   144392.41      19.171073     -22713502       0.29146426     429975.94     -22283526       1272.8792      1272.8792      1272.8792      1863.5604      3136.4396      1863.5604      3136.4396      1863.5604      3136.4396      2.062346e+09   0.5            4225300        2.9399107      6917.4099      13834.793      4.3012518    
   8445800   153363.6       19.828298     -22714507       0.29146426     456690.63     -22257816       1272.8792      1272.8792      1272.8792      1863.5604      3136.4396      1863.5604      3136.4396      1863.5604      3136.4396      2.062346e+09   0.5            4225400        2.9544007      6901.3232      13802.618      4.2867805    
   8446000   152974.3       19.828324     -22711390       0.29146426     455531.35     -22255859       1272.8792      1272.8792      1272.8792      1863.5604      3136.4396      1863.5604      3136.4396      1863.5604      3136.4396      2.062346e+09   0.5            4225500        2.9694676      6637.031       13273.99       4.2731398    
   8446200   150210.06      19.456789     -22710210       0.29146426     447299.91     -22262910       1272.8792      1272.8792      1272.8792      1863.5604      3136.4396      1863.5604      3136.4396      1863.5604      3136.4396      2.062346e+09   0.5            4225600        2.9843899      6701.3807      13402.887      4.259278     
   8446400   150967.83      19.173407     -22733444       0.29146426     449556.4      -22283887       1272.8792      1272.8792      1272.8792      1863.5604      3136.4396      1863.5604      3136.4396      1863.5604      3136.4396      2.062346e+09   0.5            4225700        2.99888        6901.2389      13802.442      4.2447947    
   8446600   159342.25      20.031397     -22723382       0.29146426     474494.02     -22248888       1272.8792      1272.8792      1272.8792      1863.5604      3136.4396      1863.5604      3136.4396      1863.5604      3136.4396      2.062346e+09   0.5            4225800        3.013675       6759.0343      13518.077      4.2307392    
   8446800   159028.39      19.9623       -22729857       0.29146426     473559.38     -22256297       1272.8792      1272.8792      1272.8792      1863.5604      3136.4396      1863.5604      3136.4396      1863.5604      3136.4396      2.062346e+09   0.5            4225900        3.0281616      6903.0029      13806.026      4.216247     
   8447000   151372.45      19.586004     -22728858       0.29146426     450761.32     -22278097       1272.8792      1272.8792      1272.8792      1863.5604      3136.4396      1863.5604      3136.4396      1863.5604      3136.4396      2.062346e+09   0.5            4226000        3.0429693      6753.1484      13506.244      4.2021992    
   8447200   151659.2       19.47359      -22727754       0.29146426     451615.22     -22276138       1272.8792      1272.8792      1272.8792      1863.5604      3136.4396      1863.5604      3136.4396      1863.5604      3136.4396      2.062346e+09   0.5            4226100        3.0575489      6858.9867      13718.025      4.1878306    
   8447400   155111.22      19.898413     -22733931       0.29146426     461894.74     -22272036       1272.8792      1272.8792      1272.8792      1863.5604      3136.4396      1863.5604      3136.4396      1863.5604      3136.4396      2.062346e+09   0.5            4226200        3.0723418      6759.9988      13519.992      4.1737503    
   8447600   158722.84      20.213566     -22717808       0.29146426     472649.5      -22245159       1272.8792      1272.8792      1272.8792      1863.5604      3136.4396      1863.5604      3136.4396      1863.5604      3136.4396      2.062346e+09   0.5            4226300        3.0874136      6634.8719      13269.75       4.1600392    
   8447800   160618.42      20.529027     -22716285       0.29146426     478294.22     -22237990       1272.8792      1272.8792      1272.8792      1863.5604      3136.4396      1863.5604      3136.4396      1863.5604      3136.4396      2.062346e+09   0.5            4226400        3.1019217      6892.7346      13785.492      4.1455617    
   8448000   158873.46      20.664619     -22714594       0.29146426     473098.02     -22241496       1272.8792      1272.8792      1272.8792      1863.5604      3136.4396      1863.5604      3136.4396      1863.5604      3136.4396      2.062346e+09   0.5            4226500        3.1167371      6749.6846      13499.265      4.1314919    
   8448200   154100.22      20.495597     -22705419       0.29146426     458884.14     -22246535       1272.8792      1272.8792      1272.8792      1863.5604      3136.4396      1863.5604      3136.4396      1863.5604      3136.4396      2.062346e+09   0.5            4226600        3.131293       6870.1094      13740.311      4.1170731    
   8448400   158143.27      20.862399     -22710925       0.29146426     470923.65     -22240001       1272.8792      1272.8792      1272.8792      1863.5604      3136.4396      1863.5604      3136.4396      1863.5604      3136.4396      2.062346e+09   0.5            4226700        3.1465601      6549.999       13099.914      4.1035814    
   8448600   165393.86      21.450923     -22708978       0.29146426     492514.68     -22216464       1272.8792      1272.8792      1272.8792      1863.5604      3136.4396      1863.5604      3136.4396      1863.5604      3136.4396      2.062346e+09   0.5            4226800        3.161277       6794.9226      13589.89       4.0893613    
   8448800   163524.39      21.353582     -22706598       0.29146426     486947.7      -22219651       1272.8792      1272.8792      1272.8792      1863.5604      3136.4396      1863.5604      3136.4396      1863.5604      3136.4396      2.062346e+09   0.5            4226900        3.1765354      6553.762       13107.495      4.0758314    
   8449000   158752.33      21.279235     -22712002       0.29146426     472737.32     -22239265       1272.8792      1272.8792      1272.8792      1863.5604      3136.4396      1863.5604      3136.4396      1863.5604      3136.4396      2.062346e+09   0.5            4227000        3.1910823      6874.3296      13748.558      4.0613806    
   8449200   160057.17      21.132481     -22719385       0.29146426     476622.91     -22242762       1272.8792      1272.8792      1272.8792      1863.5604      3136.4396      1863.5604      3136.4396      1863.5604      3136.4396      2.062346e+09   0.5            4227100        3.2056542      6862.5212      13725.18       4.04696      
   8449400   170303.55      21.782043     -22726849       0.29146426     507134.88     -22219714       1272.8792      1272.8792      1272.8792      1863.5604      3136.4396      1863.5604      3136.4396      1863.5604      3136.4396      2.062346e+09   0.5            4227200        3.2205025      6734.7723      13469.568      4.0328843    
   8449600   167728.61      21.755524     -22717714       0.29146426     499467.17     -22218247       1272.8792      1272.8792      1272.8792      1863.5604      3136.4396      1863.5604      3136.4396      1863.5604      3136.4396      2.062346e+09   0.5            4227300        3.2350114      6892.3217      13784.621      4.0183801    
   8449800   160949.25      21.346284     -22701338       0.29146426     479279.39     -22222059       1272.8792      1272.8792      1272.8792      1863.5604      3136.4396      1863.5604      3136.4396      1863.5604      3136.4396      2.062346e+09   0.5            4227400        3.2495332      6886.2243      13772.503      4.0038917    
[...]
   9094400   309.7209       0.70525529    -24156517       0.30783258     922.29595     -24155594       1249.9062      1249.9062      1249.9062      1875.0469      3124.9531      1875.0469      3124.9531      1875.0469      3124.9531      1.9526852e+09  0.5            4549700        26.869838      5438.7627      10877.527      0.9841752    
   9094600   309.72863      0.5759025     -24156635       0.30783279     922.31896     -24155713       1249.9059      1249.9059      1249.9059      1875.047       3124.953       1875.047       3124.953       1875.047       3124.953       1.952684e+09   0.5            4549800        26.888293      5418.6107      10837.252      0.96560175   
   9094800   309.62224      0.53506697    -24156753       0.30783646     922.00215     -24155831       1249.9009      1249.9009      1249.9009      1875.0495      3124.9505      1875.0495      3124.9505      1875.0495      3124.9505      1.9526606e+09  0.5            4549900        26.906888      5377.5471      10755.075      0.94703342   
   9095000   309.34315      0.60274861    -24156871       0.30784453     921.17107     -24155950       1249.89        1249.89        1249.89        1875.055       3124.945       1875.055       3124.945       1875.055       3124.945       1.9526095e+09  0.5            4550000        26.925589      5347.4086      10694.744      0.92846868   
   9095200   309.33499      0.94179142    -24156986       0.30786463     921.14677     -24156065       1249.8628      1249.8628      1249.8628      1875.0686      3124.9314      1875.0686      3124.9314      1875.0686      3124.9314      1.952482e+09   0.5            4550100        26.944101      5401.8274      10803.721      0.90989737   
   9095400   309.48035      1.5878875     -24157099       0.30789917     921.57965     -24156177       1249.8161      1249.8161      1249.8161      1875.092       3124.908       1875.092       3124.908       1875.092       3124.908       1.952263e+09   0.5            4550200        26.962519      5429.6097      10859.218      0.89132301   
   9095600   309.69661      1.6996913     -24164592       0.3079145      922.22361     -24163670       1249.7953      1249.7953      1249.7953      1875.1023      3124.8977      1875.1023      3124.8977      1875.1023      3124.8977      1.9521658e+09  0.5            4550300        26.980963      5421.8362      10843.673      0.87274973   
   9095800   309.85         1.7830789     -24164710       0.30792587     922.68038     -24163787       1249.7799      1249.7799      1249.7799      1875.11        3124.89        1875.11        3124.89        1875.11        3124.89        1.9520937e+09  0.5            4550400        26.999402      5423.1447      10846.287      0.85417649   
   9096000   309.66228      0.20982617    -24162940       0.30786433     922.1214      -24162018       1249.8632      1249.8632      1249.8632      1875.0684      3124.9316      1875.0684      3124.9316      1875.0684      3124.9316      1.9524839e+09  0.5            4550500        27.018499      5236.5935      10473.098      0.83562375   
   9096200   309.7178       1.9360061     -24163050       0.30794626     922.28673     -24162128       1249.7524      1249.7524      1249.7524      1875.1238      3124.8762      1875.1238      3124.8762      1875.1238      3124.8762      1.9519644e+09  0.5            4550600        27.037013      5401.3217      10802.755      0.81705265   
   9096400   309.71572      1.1618476     -24163174       0.30792016     922.28054     -24162252       1249.7877      1249.7877      1249.7877      1875.1062      3124.8938      1875.1062      3124.8938      1875.1062      3124.8938      1.9521299e+09  0.5            4550700        27.055469      5418.1829      10836.359      0.79847994   
   9096600   309.72442     -0.020326394   -24163296       0.30787679     922.30645     -24162373       1249.8464      1249.8464      1249.8464      1875.0768      3124.9232      1875.0768      3124.9232      1875.0768      3124.9232      1.9524049e+09  0.5            4550800        27.073918      5420.3733      10840.72       0.77990717   
   9096800   309.7692       0.61755607    -24163414       0.30791144     922.43979     -24162491       1249.7995      1249.7995      1249.7995      1875.1003      3124.8997      1875.1003      3124.8997      1875.1003      3124.8997      1.9521851e+09  0.5            4550900        27.092346      5426.5231      10853.033      0.76133398   
   9097000   309.64067      1.704145      -24163528       0.30796502     922.05704     -24162606       1249.727       1249.727       1249.727       1875.1365      3124.8635      1875.1365      3124.8635      1875.1365      3124.8635      1.9518455e+09  0.5            4551000        27.11105       5346.2799      10692.559      0.74276858   
   9097200   309.69626      1.9018737     -24163645       0.30798002     922.22257     -24162723       1249.7067      1249.7067      1249.7067      1875.1467      3124.8533      1875.1467      3124.8533      1875.1467      3124.8533      1.9517505e+09  0.5            4551100        27.130832      5055.2041      10110.273      0.72423173   
   9097400   309.72637      1.4941013     -24163767       0.30796878     922.31223     -24162845       1249.7219      1249.7219      1249.7219      1875.139       3124.861       1875.139       3124.861       1875.139       3124.861       1.9518217e+09  0.5            4551200        27.149295      5416.1543      10832.433      0.70565891   
   9097600   309.71568      1.0094457     -24163889       0.3079541      922.28042     -24162966       1249.7418      1249.7418      1249.7418      1875.1291      3124.8709      1875.1291      3124.8709      1875.1291      3124.8709      1.9519147e+09  0.5            4551300        27.167694      5435.2904      10870.611      0.68708459   
   9097800   309.67301      0.7136759     -24164008       0.3079473      922.15334     -24163086       1249.751       1249.751       1249.751       1875.1245      3124.8755      1875.1245      3124.8755      1875.1245      3124.8755      1.9519578e+09  0.5            4551400        27.186136      5422.3166      10844.683      0.6685116    
   9098000   309.49479      0.61398631    -24164127       0.30794885     921.62263     -24163206       1249.7489      1249.7489      1249.7489      1875.1256      3124.8744      1875.1256      3124.8744      1875.1256      3124.8744      1.951948e+09   0.5            4551500        27.204755      5370.7325      10741.396      0.64994302   
   9098200   309.65573      0.95300864    -24156867       0.30796656     922.10189     -24155945       1249.7249      1249.7249      1249.7249      1875.1375      3124.8625      1875.1375      3124.8625      1875.1375      3124.8625      1.9518358e+09  0.5            4551600        27.223632      5297.5785      10595.219      0.63138033   
   9098400   309.84891      1.1732904     -24156985       0.30798237     922.67715     -24156062       1249.7035      1249.7035      1249.7035      1875.1482      3124.8518      1875.1482      3124.8518      1875.1482      3124.8518      1.9517356e+09  0.5            4551700        27.242055      5427.8992      10855.803      0.61280702   
   9098600   309.90342      1.2588987     -24157104       0.30799212     922.83948     -24156181       1249.6903      1249.6903      1249.6903      1875.1548      3124.8452      1875.1548      3124.8452      1875.1548      3124.8452      1.9516738e+09  0.5            4551800        27.26051       5418.6712      10837.336      0.5942346    
   9098800   309.82333      1.2345192     -24157224       0.30799667     922.60096     -24156301       1249.6842      1249.6842      1249.6842      1875.1579      3124.8421      1875.1579      3124.8421      1875.1579      3124.8421      1.951645e+09   0.5            4551900        27.278918      5432.4263      10864.858      0.57566136   
   9099000   309.5751       1.1802773     -24157344       0.30799952     921.86179     -24156422       1249.6803      1249.6803      1249.6803      1875.1598      3124.8402      1875.1598      3124.8402      1875.1598      3124.8402      1.9516269e+09  0.5            4552000        27.297358      5422.8653      10845.668      0.557089     
   9099200   309.56695      1.1345328     -24157463       0.30800257     921.83751     -24156541       1249.6762      1249.6762      1249.6762      1875.1619      3124.8381      1875.1619      3124.8381      1875.1619      3124.8381      1.9516076e+09  0.5            4552100        27.316215      5303.1653      10606.296      0.53852503   
   9099400   309.59287      1.0764805     -24157582       0.30800525     921.91471     -24156660       1249.6726      1249.6726      1249.6726      1875.1637      3124.8363      1875.1637      3124.8363      1875.1637      3124.8363      1.9515906e+09  0.5            4552200        27.334793      5382.5957      10765.28       0.51995536   
   9099600   309.59784      0.97957128    -24157700       0.30800649     921.92949     -24156778       1249.6709      1249.6709      1249.6709      1875.1646      3124.8354      1875.1646      3124.8354      1875.1646      3124.8354      1.9515827e+09  0.5            4552300        27.353197      5433.6764      10867.358      0.50138248   
   9099800   309.57129      0.8319079     -24157818       0.30800586     921.85044     -24156896       1249.6717      1249.6717      1249.6717      1875.1641      3124.8359      1875.1641      3124.8359      1875.1641      3124.8359      1.9515867e+09  0.5            4552400        27.37158       5439.9464      10879.889      0.48280945   
   9100000   309.46418      0.70818528    -24157936       0.30800685     921.53149     -24157015       1249.6704      1249.6704      1249.6704      1875.1648      3124.8352      1875.1648      3124.8352      1875.1648      3124.8352      1.9515805e+09  0.5            4552500        27.389974      5436.4836      10872.909      0.46423689   
   9100200   309.63859      0.84924944    -24158053       0.30801975     922.05086     -24157131       1249.653       1249.653       1249.653       1875.1735      3124.8265      1875.1735      3124.8265      1875.1735      3124.8265      1.9514987e+09  0.5            4552600        27.408815      5307.5663      10615.164      0.44567183   
   9100400   309.79687      1.2255158     -24158170       0.30804285     922.52219     -24157247       1249.6217      1249.6217      1249.6217      1875.1891      3124.8109      1875.1891      3124.8109      1875.1891      3124.8109      1.9513523e+09  0.5            4552700        27.427495      5353.3936      10706.777      0.42710388   
   9100600   309.81548      0.67439149    -24158291       0.30802595     922.57759     -24157368       1249.6446      1249.6446      1249.6446      1875.1777      3124.8223      1875.1777      3124.8223      1875.1777      3124.8223      1.9514595e+09  0.5            4552800        27.445878      5439.6653      10879.374      0.40853138   
   9100800   309.76734      0.63910442    -24160305       0.30803202     922.43425     -24159382       1249.6364      1249.6364      1249.6364      1875.1818      3124.8182      1875.1818      3124.8182      1875.1818      3124.8182      1.951421e+09   0.5            4552900        27.464918      5252.1309      10504.263      0.38996845   
   9101000   309.54579      0.91572959    -24160423       0.30804971     921.77451     -24159501       1249.6124      1249.6124      1249.6124      1875.1938      3124.8062      1875.1938      3124.8062      1875.1938      3124.8062      1.9513089e+09  0.5            4553000        27.483346      5426.3923      10852.74       0.37139661   
   9101200   309.54897      1.2932879     -24160539       0.30807185     921.78397     -24159617       1249.5825      1249.5825      1249.5825      1875.2087      3124.7913      1875.2087      3124.7913      1875.2087      3124.7913      1.9511687e+09  0.5            4553100        27.501883      5394.6703      10789.387      0.35282635   
   9101400   309.65819      1.6411791     -24160655       0.30809329     922.10922     -24159733       1249.5535      1249.5535      1249.5535      1875.2232      3124.7768      1875.2232      3124.7768      1875.2232      3124.7768      1.9510329e+09  0.5            4553200        27.520818      5281.281       10562.54       0.33426098   
   9101600   309.73429      0.60075021    -24158884       0.30805405     922.33582     -24157961       1249.6066      1249.6066      1249.6066      1875.1967      3124.8033      1875.1967      3124.8033      1875.1967      3124.8033      1.9512814e+09  0.5            4553300        27.53924       5428.4558      10856.956      0.31568922   
   9101800   309.79189      2.0909909     -24160888       0.30812544     922.50735     -24159966       1249.5101      1249.5101      1249.5101      1875.245       3124.755       1875.245       3124.755       1875.245       3124.755       1.9508293e+09  0.5            4553400        27.557654      5430.6052      10861.167      0.29711759   
   9102000   309.49923      0.037921377   -24159121       0.30804226     921.63586     -24158200       1249.6225      1249.6225      1249.6225      1875.1887      3124.8113      1875.1887      3124.8113      1875.1887      3124.8113      1.9513561e+09  0.5            4553500        27.576073      5429.1622      10858.29       0.27854622   
   9102200   309.48928      0.57080332    -24161133       0.30807255     921.60623     -24160211       1249.5816      1249.5816      1249.5816      1875.2092      3124.7908      1875.2092      3124.7908      1875.2092      3124.7908      1.9511643e+09  0.5            4553600        27.594574      5405.1801      10810.366      0.25997582   
   9102400   309.60247      1.8600836     -24161244       0.30813502     921.94329     -24160322       1249.4971      1249.4971      1249.4971      1875.2514      3124.7486      1875.2514      3124.7486      1875.2514      3124.7486      1.9507687e+09  0.5            4553700        27.61348       5289.2931      10578.627      0.24140906   
   9102600   309.73736      1.5353518     -24161364       0.3081286      922.34497     -24160442       1249.5058      1249.5058      1249.5058      1875.2471      3124.7529      1875.2471      3124.7529      1875.2471      3124.7529      1.9508093e+09  0.5            4553800        27.632428      5277.5946      10555.185      0.22284218   
   9102800   309.84034      0.14912442    -24161488       0.3080766      922.65162     -24160565       1249.5761      1249.5761      1249.5761      1875.212       3124.788       1875.212       3124.788       1875.212       3124.788       1.9511386e+09  0.5            4553900        27.650888      5416.9256      10833.768      0.20427119   
   9103000   309.79237      0.66409889    -24161606       0.30810605     922.50876     -24160684       1249.5363      1249.5363      1249.5363      1875.2319      3124.7681      1875.2319      3124.7681      1875.2319      3124.7681      1.9509521e+09  0.5            4554000        27.669349      5416.9599      10833.941      0.18570035   
   9103200   309.82058      1.6522568     -24161721       0.30815507     922.59279     -24160798       1249.47        1249.47        1249.47        1875.265       3124.735       1875.265       3124.735       1875.265       3124.735       1.9506418e+09  0.5            4554100        27.687891      5393.1609      10786.362      0.16713014   
   9103400   309.76409      1.6976689     -24161840       0.30816299     922.42457     -24160918       1249.4593      1249.4593      1249.4593      1875.2703      3124.7297      1875.2703      3124.7297      1875.2703      3124.7297      1.9505916e+09  0.5            4554200        27.706457      5386.2119      10772.456      0.1485601    
   9103600   309.70882      1.1419513     -24161963       0.30814497     922.25999     -24161041       1249.4837      1249.4837      1249.4837      1875.2582      3124.7418      1875.2582      3124.7418      1875.2582      3124.7418      1.9507057e+09  0.5            4554300        27.725205      5333.8408      10667.671      0.12999093   
   9103800   309.70355      0.5804145     -24162084       0.30812677     922.24428     -24161162       1249.5083      1249.5083      1249.5083      1875.2459      3124.7541      1875.2459      3124.7541      1875.2459      3124.7541      1.9508209e+09  0.5            4554400        27.743629      5427.64        10855.215      0.11142021   
   9104000   309.61235      0.33758017    -24162204       0.30812216     921.97272     -24161282       1249.5145      1249.5145      1249.5145      1875.2427      3124.7573      1875.2427      3124.7573      1875.2427      3124.7573      1.9508501e+09  0.5            4554500        27.762062      5425.2713      10850.561      0.092849713  
   9104200   309.67837      0.5026966     -24162323       0.30813494     922.1693      -24161401       1249.4972      1249.4972      1249.4972      1875.2514      3124.7486      1875.2514      3124.7486      1875.2514      3124.7486      1.9507692e+09  0.5            4554600        27.780586      5398.3589      10796.724      0.074279648  
   9104400   309.70243      0.65752559    -24162441       0.30814729     922.24095     -24161519       1249.4805      1249.4805      1249.4805      1875.2597      3124.7403      1875.2597      3124.7403      1875.2597      3124.7403      1.950691e+09   0.5            4554700        27.799075      5408.4719      10816.978      0.055709574  
   9104600   309.72494      1.4508261     -24169934       0.3081901      922.30798     -24169012       1249.4227      1249.4227      1249.4227      1875.2887      3124.7113      1875.2887      3124.7113      1875.2887      3124.7113      1.9504201e+09  0.5            4554800        27.818061      5267.0161      10534.028      0.037140272  
   9104800   309.72312      1.3855926     -24162676       0.30819026     922.30255     -24161754       1249.4225      1249.4225      1249.4225      1875.2888      3124.7112      1875.2888      3124.7112      1875.2888      3124.7112      1.950419e+09   0.5            4554900        27.836482      5428.5693      10857.151      0.018570037  
   9105000   309.59992      0.80737905    -24162798       0.30817148     921.93569     -24161876       1249.4478      1249.4478      1249.4478      1875.2761      3124.7239      1875.2761      3124.7239      1875.2761      3124.7239      1.9505379e+09  0.5            4555000        27.85504       5388.5828      10777.13       0            
Loop time of 27.8551 on 4 procs for 300000 steps with 1000 atoms

Performance: 465.265 ns/day, 0.052 hours/ns, 10770.021 timesteps/s
99.6% CPU use with 4 MPI tasks x no OpenMP threads

MPI task timing breakdown:
Section |  min time  |  avg time  |  max time  |%varavg| %total
---------------------------------------------------------------
Pair    | 1.9673     | 5.5137     | 12.833     | 182.7 | 19.79
Neigh   | 0.005589   | 0.012872   | 0.028334   |   8.0 |  0.05
Comm    | 6.6555     | 12.927     | 15.554     | 101.2 | 46.41
Output  | 0.056188   | 0.076055   | 0.13252    |  11.8 |  0.27
Modify  | 6.7026     | 7.1249     | 7.5023     |  10.7 | 25.58
Other   |            | 2.2        |            |       |  7.90

Nlocal:            250 ave         455 max         157 min
Histogram: 2 1 0 0 0 0 0 0 0 1
Nghost:         313.75 ave         347 max         270 min
Histogram: 1 0 0 0 0 1 0 1 0 1
Neighs:         777.25 ave        1973 max         201 min
Histogram: 1 2 0 0 0 0 0 0 0 1

Total # of neighbors = 3109
Ave neighs/atom = 3.109
Neighbor list builds = 119
Dangerous builds = 28

# run_style
run_style verlet

# write restart
write_restart ${write_res}
write_restart ./pgnpmf/37/equpmf13.res
System init for write_restart ...
Generated 0 of 1 mixed pair_coeff terms from geometric mixing rule

Total wall time: 0:00:57
