LAMMPS (23 Jun 2022 - Update 1)
OMP_NUM_THREADS environment is not set. Defaulting to 1 thread. (src/comm.cpp:98)
  using 1 OpenMP thread(s) per MPI task
# Read restart
read_restart ${read_res}
read_restart ./pgnpmf/37/equpmf98.res
Reading restart file ...
  restart file = 23 Jun 2022, LAMMPS = 23 Jun 2022
  restoring atom style atomic from restart
  orthogonal box = (2148.007 2148.007 2148.007) to (2851.993 2851.993 2851.993)
  1 by 1 by 1 MPI processor grid
  restoring pair style table from restart
  1000 atoms
  read_restart CPU = 0.004 seconds

# Settings

pair_style table spline 9941

pair_coeff 1 1 ./pgnpmf/N20.txt DE_GNP 75.6
pair_coeff 2 2 ./pgnpmf/N100.txt DE_GNP 115.92
WARNING: 3 of 9941 force values in table DE_GNP are inconsistent with -dE/dr.
WARNING:  Should only be flagged at inflection points (src/pair_table.cpp:463)
pair_coeff 1 2 ./pgnpmf/mixed_potential.txt DE_GNP 95.66
WARNING: 1562 of 9941 force values in table DE_GNP are inconsistent with -dE/dr.
WARNING:  Should only be flagged at inflection points (src/pair_table.cpp:463)

#Neigh_list Calc Frequency

neigh_modify delay 0 every 1 check yes

# Saving Frequency (50 frames)

variable ts_save equal ${steps_equ}
variable ts_save equal 5000

# Dump
#dump 1 all custom ${ts_save} ./pgnpmf/${folder}/equilibration/trajectory/trajectory_${usic}_${trial}.equ.custom type x y z ix iy iz
#dump_modify 1 first no sort id
#dump 2 all cfg 50000 ./equilibration/trajectory/ovito/dumpgen.tens_*.cfg mass type xs ys zs fx fy fz

# thermo_style
thermo_style custom step temp press pe density ke etotal lx ly lz xlo xhi ylo yhi zlo zhi vol dt time cpu tpcpu spcpu cpuremain

# run info
timestep ${ts}
timestep 0.1
thermo 200

# fix

fix 1 all momentum 1000 linear 1 1 1 angular
variable T equal ${temp}
variable T equal 300
fix 2 all nvt temp ${T} 370000 100.0
fix 2 all nvt temp 300 370000 100.0

run 100000
Generated 0 of 1 mixed pair_coeff terms from geometric mixing rule
Unused restart file global fix info:
  fix style: npt, fix ID: 5
Neighbor list info ...
  update every 1 steps, delay 0 steps, check yes
  max neighbors/atom: 2000, page size: 100000
  master list distance cutoff = 117.92
  ghost atom cutoff = 117.92
  binsize = 58.96, bins = 12 12 12
  1 neighbor lists, perpetual/occasional/extra = 1 0 0
  (1) pair table, perpetual
      attributes: half, newton on
      pair build: half/bin/atomonly/newton
      stencil: half/bin/3d
      bin: standard
Per MPI rank memory allocation (min/avg/max) = 3.111 | 3.111 | 3.111 Mbytes
   Step          Temp          Press          PotEng        Density         KinEng         TotEng           Lx             Ly             Lz            Xlo            Xhi            Ylo            Yhi            Zlo            Zhi           Volume           Dt            Time           CPU           T/CPU          S/CPU         CPULeft    
  68605000   305.28357      2.0739681     -44028698       1.7228787      909.08234     -44027789       703.98604      703.98604      703.98604      2148.007       2851.993       2148.007       2851.993       2148.007       2851.993       3.488929e+08   0.1            17785000       0              0              0              0            
  68605200   332.60414      1.9332049     -44028765       1.7228787      990.43834     -44027774       703.98604      703.98604      703.98604      2148.007       2851.993       2148.007       2851.993       2148.007       2851.993       3.488929e+08   0.1            17785020       0.040987013    487.94807      4879.375       20.453841    
  68605400   373.42744      1.7872513     -44028835       1.7228787      1112.0031     -44027723       703.98604      703.98604      703.98604      2148.007       2851.993       2148.007       2851.993       2148.007       2851.993       3.488929e+08   0.1            17785040       0.081938422    488.38673      4883.8603      20.403282    
  68605600   417.64829      1.6304528     -44028910       1.7228787      1243.6853     -44027666       703.98604      703.98604      703.98604      2148.007       2851.993       2148.007       2851.993       2148.007       2851.993       3.488929e+08   0.1            17785060       0.12285686     488.77764      4887.7777      20.353693    
  68605800   471.33547      1.4640203     -44028989       1.7228787      1403.5565     -44027586       703.98604      703.98604      703.98604      2148.007       2851.993       2148.007       2851.993       2148.007       2851.993       3.488929e+08   0.1            17785080       0.16380306     488.44522      4884.4549      20.31188     
  68606000   533.85858      1.2858244     -44029073       1.7228787      1589.7397     -44027484       703.98604      703.98604      703.98604      2148.007       2851.993       2148.007       2851.993       2148.007       2851.993       3.488929e+08   0.1            17785100       0.2048136      487.68048      4876.8048      20.276778    
  68606200   605.7511       1.0948254     -44029163       1.7228787      1803.8233     -44027359       703.98604      703.98604      703.98604      2148.007       2851.993       2148.007       2851.993       2148.007       2851.993       3.488929e+08   0.1            17785120       0.2457278      488.82829      4888.2601      20.231795    
  68606400   687.9167       0.88927583    -44029258       1.7228787      2048.4985     -44027209       703.98604      703.98604      703.98604      2148.007       2851.993       2148.007       2851.993       2148.007       2851.993       3.488929e+08   0.1            17785140       0.28765908     476.96717      4769.6989      20.259601    
  68606600   781.47661      0.66795117    -44029359       1.7228787      2327.1039     -44027032       703.98604      703.98604      703.98604      2148.007       2851.993       2148.007       2851.993       2148.007       2851.993       3.488929e+08   0.1            17785160       0.32861689     488.31157      4883.1085      20.21008     
  68606800   887.74605      0.42978343    -44029467       1.7228787      2643.5561     -44026824       703.98604      703.98604      703.98604      2148.007       2851.993       2148.007       2851.993       2148.007       2851.993       3.488929e+08   0.1            17785180       0.36960061     487.9983       4879.9765      20.163901    
  68607000   1007.9788      0.28899474    -44029214       1.7228787      3001.5886     -44026212       703.98604      703.98604      703.98604      2148.007       2851.993       2148.007       2851.993       2148.007       2851.993       3.488929e+08   0.1            17785200       0.41064101     487.32451      4873.2549      20.121523    
  68607200   1144.2497      0.013757547   -44029336       1.7228787      3407.3801     -44025928       703.98604      703.98604      703.98604      2148.007       2851.993       2148.007       2851.993       2148.007       2851.993       3.488929e+08   0.1            17785220       0.45155779     488.7977       4887.9723      20.073899    
  68607400   1298.3082     -0.28091849    -44029465       1.7228787      3866.1401     -44025599       703.98604      703.98604      703.98604      2148.007       2851.993       2148.007       2851.993       2148.007       2851.993       3.488929e+08   0.1            17785240       0.49249905     488.50463      4885.0511      20.028386    
  68607600   1472.272      -0.59489642    -44029604       1.7228787      4384.1745     -44025219       703.98604      703.98604      703.98604      2148.007       2851.993       2148.007       2851.993       2148.007       2851.993       3.488929e+08   0.1            17785260       0.53339435     489.05366      4890.5261      19.981862    
  68607800   1668.4961     -0.92722168    -44029751       1.7228787      4968.4965     -44024782       703.98604      703.98604      703.98604      2148.007       2851.993       2148.007       2851.993       2148.007       2851.993       3.488929e+08   0.1            17785280       0.57432286     488.65625      4886.5712      19.937297    
  68608000   1889.3361     -1.2761395     -44029907       1.7228787      5626.1202     -44024281       703.98604      703.98604      703.98604      2148.007       2851.993       2148.007       2851.993       2148.007       2851.993       3.488929e+08   0.1            17785300       0.61531231     487.9304       4879.2998      19.895175    
  68608200   2138.0587     -1.6392354     -44030073       1.7228787      6366.7737     -44023706       703.98604      703.98604      703.98604      2148.007       2851.993       2148.007       2851.993       2148.007       2851.993       3.488929e+08   0.1            17785320       0.6574224      474.94609      4749.4717      19.887095    
  68608400   2417.6828     -2.0157796     -44030249       1.7228787      7199.4465     -44023049       703.98604      703.98604      703.98604      2148.007       2851.993       2148.007       2851.993       2148.007       2851.993       3.488929e+08   0.1            17785340       0.69836458     488.49262      4884.9093      19.841842    
  68608600   2731.6752     -2.4041243     -44030436       1.7228787      8134.4622     -44022301       703.98604      703.98604      703.98604      2148.007       2851.993       2148.007       2851.993       2148.007       2851.993       3.488929e+08   0.1            17785360       0.73923988     489.2947       4892.9527      19.795263    
  68608800   3083.8152     -2.8026184     -44030634       1.7228787      9183.075      -44021451       703.98604      703.98604      703.98604      2148.007       2851.993       2148.007       2851.993       2148.007       2851.993       3.488929e+08   0.1            17785380       0.78024445     487.74867      4877.487       19.752565    
  68609000   3477.946      -3.2112992     -44030844       1.7228787      10356.729     -44020487       703.98604      703.98604      703.98604      2148.007       2851.993       2148.007       2851.993       2148.007       2851.993       3.488929e+08   0.1            17785400       0.82117143     488.67731      4886.7755      19.708169    
  68609200   3918.8742     -3.6294182     -44031067       1.7228787      11669.738     -44019397       703.98604      703.98604      703.98604      2148.007       2851.993       2148.007       2851.993       2148.007       2851.993       3.488929e+08   0.1            17785420       0.86257829     483.01027      4830.112       19.675052    
  68609400   4411.1789     -4.0586671     -44031302       1.7228787      13135.737     -44018166       703.98604      703.98604      703.98604      2148.007       2851.993       2148.007       2851.993       2148.007       2851.993       3.488929e+08   0.1            17785440       0.90351105     488.60586      4886.0483      19.630883    
  68609600   4959.8711     -4.5014521     -44031552       1.7228787      14769.649     -44016782       703.98604      703.98604      703.98604      2148.007       2851.993       2148.007       2851.993       2148.007       2851.993       3.488929e+08   0.1            17785460       0.94435123     489.71495      4897.1467      19.585072    
  68609800   5570.2414     -4.5749189     -44024438       1.7228787      16587.228     -44007851       703.98604      703.98604      703.98604      2148.007       2851.993       2148.007       2851.993       2148.007       2851.993       3.488929e+08   0.1            17785480       0.98546334     486.47553      4864.7607      19.545067    
  68610000   6247.5831     -4.6673955     -44017339       1.7228787      18604.236     -43998735       703.98604      703.98604      703.98604      2148.007       2851.993       2148.007       2851.993       2148.007       2851.993       3.488929e+08   0.1            17785500       1.026372       488.89348      4888.9323      19.501112    
  68610200   6997.7713     -5.5566321     -44025012       1.7228787      20838.168     -44004174       703.98604      703.98604      703.98604      2148.007       2851.993       2148.007       2851.993       2148.007       2851.993       3.488929e+08   0.1            17785520       1.0672432      489.34208      4893.4263      19.456706    
  68610400   7826.2337     -6.2234137     -44025692       1.7228787      23305.188     -44002387       703.98604      703.98604      703.98604      2148.007       2851.993       2148.007       2851.993       2148.007       2851.993       3.488929e+08   0.1            17785540       1.1080023      490.68768      4906.8786      19.410598    
  68610600   8738.3496     -6.8387055     -44026020       1.7228787      26021.313     -43999999       703.98604      703.98604      703.98604      2148.007       2851.993       2148.007       2851.993       2148.007       2851.993       3.488929e+08   0.1            17785560       1.1487999      490.22536      4902.2482      19.365522    
  68610800   9739.2381     -7.5152745     -44026365       1.7228787      29001.788     -43997364       703.98604      703.98604      703.98604      2148.007       2851.993       2148.007       2851.993       2148.007       2851.993       3.488929e+08   0.1            17785580       1.1896266      489.87492      4898.7473      19.321214    
  68611000   10833.247     -8.3793327     -44028624       1.7228787      32259.56      -43996364       703.98604      703.98604      703.98604      2148.007       2851.993       2148.007       2851.993       2148.007       2851.993       3.488929e+08   0.1            17785600       1.2304471      489.95184      4899.5157      19.277038    
  68611200   12024.571     -9.2230837     -44030900       1.7228787      35807.118     -43995093       703.98604      703.98604      703.98604      2148.007       2851.993       2148.007       2851.993       2148.007       2851.993       3.488929e+08   0.1            17785620       1.2722361      478.59448      4785.9478      19.247735    
  68611400   13315.737     -9.8502207     -44031301       1.7228787      39651.992     -43991649       703.98604      703.98604      703.98604      2148.007       2851.993       2148.007       2851.993       2148.007       2851.993       3.488929e+08   0.1            17785640       1.3130315      490.2504       4902.5074      19.203118    
  68611600   14708.01      -10.670389     -44038732       1.7228787      43797.942     -43994934       703.98604      703.98604      703.98604      2148.007       2851.993       2148.007       2851.993       2148.007       2851.993       3.488929e+08   0.1            17785660       1.3538367      490.1326       4901.3258      19.158873    
  68611800   16200.456     -11.111727     -44039172       1.7228787      48242.191     -43990930       703.98604      703.98604      703.98604      2148.007       2851.993       2148.007       2851.993       2148.007       2851.993       3.488929e+08   0.1            17785680       1.3946746      489.74393      4897.435       19.115275    
  68612000   17789.409     -11.591787     -44041528       1.7228787      52973.823     -43988554       703.98604      703.98604      703.98604      2148.007       2851.993       2148.007       2851.993       2148.007       2851.993       3.488929e+08   0.1            17785700       1.4355196      489.6553       4896.5521      19.071933    
  68612200   19468.992     -11.664165     -44040112       1.7228787      57975.333     -43982137       703.98604      703.98604      703.98604      2148.007       2851.993       2148.007       2851.993       2148.007       2851.993       3.488929e+08   0.1            17785720       1.4764662      488.44148      4884.4139      19.030037    
  68612400   21229.35      -11.887616     -44040610       1.7228787      63217.38      -43977393       703.98604      703.98604      703.98604      2148.007       2851.993       2148.007       2851.993       2148.007       2851.993       3.488929e+08   0.1            17785740       1.5176957      485.08651      4850.8699      18.991737    
  68612600   23057.056     -12.177047     -44041127       1.7228787      68659.976     -43972467       703.98604      703.98604      703.98604      2148.007       2851.993       2148.007       2851.993       2148.007       2851.993       3.488929e+08   0.1            17785760       1.5586563      488.27628      4882.7529      18.950008    
  68612800   24934.404     -12.590284     -44041663       1.7228787      74250.398     -43967413       703.98604      703.98604      703.98604      2148.007       2851.993       2148.007       2851.993       2148.007       2851.993       3.488929e+08   0.1            17785780       1.5996179      488.26103      4882.6139      18.908334    
  68613000   26838.631     -13.123818     -44042219       1.7228787      79920.861     -43962298       703.98604      703.98604      703.98604      2148.007       2851.993       2148.007       2851.993       2148.007       2851.993       3.488929e+08   0.1            17785800       1.6406968      486.8687       4868.6939      18.868039    
  68613200   28742.518     -13.309084     -44035414       1.7228787      85590.311     -43949824       703.98604      703.98604      703.98604      2148.007       2851.993       2148.007       2851.993       2148.007       2851.993       3.488929e+08   0.1            17785820       1.6816062      488.8851       4888.8468      18.825812    
  68613400   30613.099     -13.845461     -44036004       1.7228787      91160.58      -43944843       703.98604      703.98604      703.98604      2148.007       2851.993       2148.007       2851.993       2148.007       2851.993       3.488929e+08   0.1            17785840       1.7226099      487.76078      4877.6169      18.784676    
  68613600   32413.071     -14.338035     -44036607       1.7228787      96520.59      -43940086       703.98604      703.98604      703.98604      2148.007       2851.993       2148.007       2851.993       2148.007       2851.993       3.488929e+08   0.1            17785860       1.7636177      487.71011      4877.0595      18.743599    
  68613800   34101.977     -14.798016     -44037223       1.7228787      101549.86     -43935673       703.98604      703.98604      703.98604      2148.007       2851.993       2148.007       2851.993       2148.007       2851.993       3.488929e+08   0.1            17785880       1.8045487      488.62862      4886.3218      18.701711    
  68614000   35637.572     -15.292682     -44037849       1.7228787      106122.6      -43931726       703.98604      703.98604      703.98604      2148.007       2851.993       2148.007       2851.993       2148.007       2851.993       3.488929e+08   0.1            17785900       1.8455456      487.84251      4878.4232      18.66054     
  68614200   36979.25      -15.834338     -44038483       1.7228787      110117.89     -43928365       703.98604      703.98604      703.98604      2148.007       2851.993       2148.007       2851.993       2148.007       2851.993       3.488929e+08   0.1            17785920       1.886526       488.03857      4880.3852      18.619214    
  68614400   38090.745     -16.448078     -44039122       1.7228787      113427.73     -43925695       703.98604      703.98604      703.98604      2148.007       2851.993       2148.007       2851.993       2148.007       2851.993       3.488929e+08   0.1            17785940       1.9274089      489.20205      4892.0227      18.576963    
  68614600   38945.949     -17.307623     -44039765       1.7228787      115974.38     -43923791       703.98604      703.98604      703.98604      2148.007       2851.993       2148.007       2851.993       2148.007       2851.993       3.488929e+08   0.1            17785960       1.9683309      488.73371      4887.3391      18.535138    
  68614800   39535.014     -18.711731     -44042303       1.7228787      117728.52     -43924575       703.98604      703.98604      703.98604      2148.007       2851.993       2148.007       2851.993       2148.007       2851.993       3.488929e+08   0.1            17785980       2.0092203      489.12348      4891.2339      18.49305     
  68615000   39868.685     -20.286741     -44042947       1.7228787      118722.14     -43924225       703.98604      703.98604      703.98604      2148.007       2851.993       2148.007       2851.993       2148.007       2851.993       3.488929e+08   0.1            17786000       2.05016        488.52365      4885.235       18.451461    
  68615200   39981.322     -21.393401     -44034315       1.7228787      119057.55     -43915257       703.98604      703.98604      703.98604      2148.007       2851.993       2148.007       2851.993       2148.007       2851.993       3.488929e+08   0.1            17786020       2.0911163      488.32659      4883.263       18.410043    
  68615400   39927.498     -22.84858      -44034952       1.7228787      118897.27     -43916054       703.98604      703.98604      703.98604      2148.007       2851.993       2148.007       2851.993       2148.007       2851.993       3.488929e+08   0.1            17786040       2.132037       488.74961      4887.4976      18.368339    
  68615600   39776.191     -23.909934     -44033687       1.7228787      118446.7      -43915241       703.98604      703.98604      703.98604      2148.007       2851.993       2148.007       2851.993       2148.007       2851.993       3.488929e+08   0.1            17786060       2.1740418      476.13506      4761.3471      18.335808    
  68615800   39601.995     -24.947755     -44034312       1.7228787      117927.98     -43916384       703.98604      703.98604      703.98604      2148.007       2851.993       2148.007       2851.993       2148.007       2851.993       3.488929e+08   0.1            17786080       2.2149487      488.91707      4889.1726      18.293854    
  68616000   39476.586     -25.933044     -44034931       1.7228787      117554.53     -43917376       703.98604      703.98604      703.98604      2148.007       2851.993       2148.007       2851.993       2148.007       2851.993       3.488929e+08   0.1            17786100       2.2558878      488.53082      4885.3137      18.252201    
  68616200   39464.487     -26.808979     -44033650       1.7228787      117518.5      -43916132       703.98604      703.98604      703.98604      2148.007       2851.993       2148.007       2851.993       2148.007       2851.993       3.488929e+08   0.1            17786120       2.2977602      477.64144      4776.3847      18.217976    
  68616400   39619.386     -27.875793     -44034260       1.7228787      117979.77     -43916280       703.98604      703.98604      703.98604      2148.007       2851.993       2148.007       2851.993       2148.007       2851.993       3.488929e+08   0.1            17786140       2.3386646      488.94461      4889.4719      18.175955    
  68616600   39983.651     -28.795158     -44034866       1.7228787      119064.48     -43915802       703.98604      703.98604      703.98604      2148.007       2851.993       2148.007       2851.993       2148.007       2851.993       3.488929e+08   0.1            17786160       2.3795228      489.49754      4894.9761      18.133622    
  68616800   40586.481     -29.33586      -44033576       1.7228787      120859.61     -43912716       703.98604      703.98604      703.98604      2148.007       2851.993       2148.007       2851.993       2148.007       2851.993       3.488929e+08   0.1            17786180       2.4204964      488.11937      4881.1933      18.092202    
  68617000   41440.494     -29.978004     -44034178       1.7228787      123402.72     -43910776       703.98604      703.98604      703.98604      2148.007       2851.993       2148.007       2851.993       2148.007       2851.993       3.488929e+08   0.1            17786200       2.4614703      488.11568      4881.1561      18.050799    
  68617200   42539.919     -30.344469     -44027405       1.7228787      126676.62     -43900729       703.98604      703.98604      703.98604      2148.007       2851.993       2148.007       2851.993       2148.007       2851.993       3.488929e+08   0.1            17786220       2.5023848      488.82459      4888.2476      18.008982    
  68617400   43857.059     -30.856946     -44020638       1.7228787      130598.83     -43890039       703.98604      703.98604      703.98604      2148.007       2851.993       2148.007       2851.993       2148.007       2851.993       3.488929e+08   0.1            17786240       2.5431891      490.14423      4901.4408      17.966416    
  68617600   45344.426     -31.78906      -44021253       1.7228787      135027.96     -43886226       703.98604      703.98604      703.98604      2148.007       2851.993       2148.007       2851.993       2148.007       2851.993       3.488929e+08   0.1            17786260       2.5840234      489.78476      4897.8515      17.924114    
  68617800   46940.32      -32.749274     -44021873       1.7228787      139780.26     -43882093       703.98604      703.98604      703.98604      2148.007       2851.993       2148.007       2851.993       2148.007       2851.993       3.488929e+08   0.1            17786280       2.624911       489.14485      4891.4445      17.882222    
  68618000   48576.333     -33.538651     -44022496       1.7228787      144652.03     -43877844       703.98604      703.98604      703.98604      2148.007       2851.993       2148.007       2851.993       2148.007       2851.993       3.488929e+08   0.1            17786300       2.6658069      489.04733      4890.4751      17.840415    
  68618200   50184.184     -33.86052      -44021228       1.7228787      149439.93     -43871788       703.98604      703.98604      703.98604      2148.007       2851.993       2148.007       2851.993       2148.007       2851.993       3.488929e+08   0.1            17786320       2.7066028      490.24584      4902.4634      17.797978    
  68618400   51697.927     -34.043446     -44021857       1.7228787      153947.6      -43867909       703.98604      703.98604      703.98604      2148.007       2851.993       2148.007       2851.993       2148.007       2851.993       3.488929e+08   0.1            17786340       2.7474475      489.65994      4896.5953      17.755906    
  68618600   53058.803     -34.207847     -44022485       1.7228787      158000.05     -43864485       703.98604      703.98604      703.98604      2148.007       2851.993       2148.007       2851.993       2148.007       2851.993       3.488929e+08   0.1            17786360       2.7883061      489.49277      4894.9288      17.713958    
  68618800   54218.521     -35.008985     -44030493       1.7228787      161453.5      -43869040       703.98604      703.98604      703.98604      2148.007       2851.993       2148.007       2851.993       2148.007       2851.993       3.488929e+08   0.1            17786380       2.8291413      489.77279      4897.7217      17.671897    
  68619000   55141.723     -35.675536     -44031122       1.7228787      164202.63     -43866919       703.98604      703.98604      703.98604      2148.007       2851.993       2148.007       2851.993       2148.007       2851.993       3.488929e+08   0.1            17786400       2.87053        483.22286      4832.2347      17.63327     
  68619200   55811.023     -36.777088     -44033642       1.7228787      166195.7      -43867447       703.98604      703.98604      703.98604      2148.007       2851.993       2148.007       2851.993       2148.007       2851.993       3.488929e+08   0.1            17786420       2.911375       489.65622      4896.5618      17.59128     
  68619400   56229.663     -38.013513     -44034264       1.7228787      167442.33     -43866822       703.98604      703.98604      703.98604      2148.007       2851.993       2148.007       2851.993       2148.007       2851.993       3.488929e+08   0.1            17786440       2.9521786      490.1526       4901.5284      17.549075    
  68619600   56423.455     -39.53493      -44036777       1.7228787      168019.41     -43868757       703.98604      703.98604      703.98604      2148.007       2851.993       2148.007       2851.993       2148.007       2851.993       3.488929e+08   0.1            17786460       2.9930443      489.40605      4894.0614      17.507273    
  68619800   56438.077     -40.786212     -44037390       1.7228787      168062.96     -43869327       703.98604      703.98604      703.98604      2148.007       2851.993       2148.007       2851.993       2148.007       2851.993       3.488929e+08   0.1            17786480       3.0337917      490.83059      4908.3074      17.464814    
  68620000   56334.045     -42.069089     -44037997       1.7228787      167753.17     -43870243       703.98604      703.98604      703.98604      2148.007       2851.993       2148.007       2851.993       2148.007       2851.993       3.488929e+08   0.1            17786500       3.0746847      489.08247      4890.8182      17.423226    
  68620200   56181.259     -43.408133     -44038594       1.7228787      167298.2      -43871296       703.98604      703.98604      703.98604      2148.007       2851.993       2148.007       2851.993       2148.007       2851.993       3.488929e+08   0.1            17786520       3.1155251      489.7115       4897.1148      17.381363    
  68620400   56050.861     -44.443764     -44040709       1.7228787      166909.89     -43873799       703.98604      703.98604      703.98604      2148.007       2851.993       2148.007       2851.993       2148.007       2851.993       3.488929e+08   0.1            17786540       3.1571119      480.9198       4809.1886      17.343628    
  68620600   56009.325     -45.066032     -44041288       1.7228787      166786.2      -43874501       703.98604      703.98604      703.98604      2148.007       2851.993       2148.007       2851.993       2148.007       2851.993       3.488929e+08   0.1            17786560       3.1979463      489.78498      4897.8564      17.301722    
  68620800   56115.442     -45.623798     -44041858       1.7228787      167102.2      -43874755       703.98604      703.98604      703.98604      2148.007       2851.993       2148.007       2851.993       2148.007       2851.993       3.488929e+08   0.1            17786580       3.2387665      489.95312      4899.535       17.259767    
  68621000   56417.121     -45.973195     -44042422       1.7228787      168000.55     -43874422       703.98604      703.98604      703.98604      2148.007       2851.993       2148.007       2851.993       2148.007       2851.993       3.488929e+08   0.1            17786600       3.2805816      478.29637      4782.9637      17.223066    
  68621200   56948.351     -46.15473      -44042981       1.7228787      169582.46     -43873398       703.98604      703.98604      703.98604      2148.007       2851.993       2148.007       2851.993       2148.007       2851.993       3.488929e+08   0.1            17786620       3.3213914      490.07773      4900.7773      17.181036    
  68621400   57726.798     -46.638855     -44043902       1.7228787      171900.55     -43872001       703.98604      703.98604      703.98604      2148.007       2851.993       2148.007       2851.993       2148.007       2851.993       3.488929e+08   0.1            17786640       3.3621712      490.43987      4904.3998      17.138884    
  68621600   58752.82      -47.662421     -44051829       1.7228787      174955.87     -43876873       703.98604      703.98604      703.98604      2148.007       2851.993       2148.007       2851.993       2148.007       2851.993       3.488929e+08   0.1            17786660       3.4030376      489.39745      4893.9743      17.097201    
  68621800   60006.874     -48.722975     -44059754       1.7228787      178690.22     -43881064       703.98604      703.98604      703.98604      2148.007       2851.993       2148.007       2851.993       2148.007       2851.993       3.488929e+08   0.1            17786680       3.4438345      490.23474      4902.3468      17.055191    
  68622000   61448.674     -49.387535     -44060298       1.7228787      182983.66     -43877314       703.98604      703.98604      703.98604      2148.007       2851.993       2148.007       2851.993       2148.007       2851.993       3.488929e+08   0.1            17786700       3.4847193      489.17935      4891.793       17.01364     
  68622200   63023.798     -50.207395     -44060839       1.7228787      187674.11     -43873165       703.98604      703.98604      703.98604      2148.007       2851.993       2148.007       2851.993       2148.007       2851.993       3.488929e+08   0.1            17786720       3.5255373      489.97986      4899.7989      16.971784    
  68622400   64666.985     -50.857318     -44061013       1.7228787      192567.24     -43868446       703.98604      703.98604      703.98604      2148.007       2851.993       2148.007       2851.993       2148.007       2851.993       3.488929e+08   0.1            17786740       3.5662972      490.67878      4906.791       16.929674    
  68622600   66306.677     -51.126023     -44061555       1.7228787      197449.96     -43864105       703.98604      703.98604      703.98604      2148.007       2851.993       2148.007       2851.993       2148.007       2851.993       3.488929e+08   0.1            17786760       3.6071884      489.1029       4891.0287      16.888211    
  68622800   67870.927     -50.796537     -44062094       1.7228787      202108.03     -43859986       703.98604      703.98604      703.98604      2148.007       2851.993       2148.007       2851.993       2148.007       2851.993       3.488929e+08   0.1            17786780       3.6480281      489.71966      4897.1907      16.846522    
  68623000   69293.501     -50.458435     -44062628       1.7228787      206344.21     -43856283       703.98604      703.98604      703.98604      2148.007       2851.993       2148.007       2851.993       2148.007       2851.993       3.488929e+08   0.1            17786800       3.6889226      489.06338      4890.6319      16.805102    
  68623200   70519.796     -50.522494     -44063155       1.7228787      209995.91     -43853159       703.98604      703.98604      703.98604      2148.007       2851.993       2148.007       2851.993       2148.007       2851.993       3.488929e+08   0.1            17786820       3.7297816      489.48759      4894.8816      16.763534    
  68623400   71508.891     -51.142007     -44063677       1.7228787      212941.27     -43850735       703.98604      703.98604      703.98604      2148.007       2851.993       2148.007       2851.993       2148.007       2851.993       3.488929e+08   0.1            17786840       3.770693       488.86136      4888.6127      16.722214    
  68623600   72238.171     -51.900257     -44063824       1.7228787      215112.94     -43848712       703.98604      703.98604      703.98604      2148.007       2851.993       2148.007       2851.993       2148.007       2851.993       3.488929e+08   0.1            17786860       3.8114927      490.19777      4901.9801      16.680414    
  68623800   72705.329     -52.801488     -44064333       1.7228787      216504.05     -43847829       703.98604      703.98604      703.98604      2148.007       2851.993       2148.007       2851.993       2148.007       2851.993       3.488929e+08   0.1            17786880       3.8523624      489.36064      4893.601       16.638937    
  68624000   72930.266     -53.760833     -44064832       1.7228787      217173.88     -43847658       703.98604      703.98604      703.98604      2148.007       2851.993       2148.007       2851.993       2148.007       2851.993       3.488929e+08   0.1            17786900       3.8933174      488.34275      4883.4352      16.597836    
  68624200   72955.477     -54.719847     -44065318       1.7228787      217248.95     -43848069       703.98604      703.98604      703.98604      2148.007       2851.993       2148.007       2851.993       2148.007       2851.993       3.488929e+08   0.1            17786920       3.9340575      490.9165       4909.1578      16.555835    
  68624400   72840.547     -56.003858     -44073171       1.7228787      216906.71     -43856265       703.98604      703.98604      703.98604      2148.007       2851.993       2148.007       2851.993       2148.007       2851.993       3.488929e+08   0.1            17786940       3.9748362      490.45286      4904.531       16.514019    
  68624600   72656.73      -57.105988     -44075533       1.7228787      216359.33     -43859173       703.98604      703.98604      703.98604      2148.007       2851.993       2148.007       2851.993       2148.007       2851.993       3.488929e+08   0.1            17786960       4.0164931      480.11011      4801.1075      16.475828    
  68624800   72478.248     -58.060406     -44075989       1.7228787      215827.85     -43860161       703.98604      703.98604      703.98604      2148.007       2851.993       2148.007       2851.993       2148.007       2851.993       3.488929e+08   0.1            17786980       4.0573304      489.74716      4897.4624      16.434248    
  68625000   72375.66      -58.852414     -44074539       1.7228787      215522.36     -43859017       703.98604      703.98604      703.98604      2148.007       2851.993       2148.007       2851.993       2148.007       2851.993       3.488929e+08   0.1            17787000       4.098164       489.79493      4897.9458      16.392666    
  68625200   72413.812     -59.742784     -44074973       1.7228787      215635.97     -43859337       703.98604      703.98604      703.98604      2148.007       2851.993       2148.007       2851.993       2148.007       2851.993       3.488929e+08   0.1            17787020       4.1389332      490.56761      4905.6835      16.350844    
  68625400   72646.253     -59.906682     -44069915       1.7228787      216328.14     -43853587       703.98604      703.98604      703.98604      2148.007       2851.993       2148.007       2851.993       2148.007       2851.993       3.488929e+08   0.1            17787040       4.1797708      489.74263      4897.4241      16.309311    
  68625600   73111.912     -59.993003     -44070332       1.7228787      217714.79     -43852617       703.98604      703.98604      703.98604      2148.007       2851.993       2148.007       2851.993       2148.007       2851.993       3.488929e+08   0.1            17787060       4.220585       490.02593      4900.259       16.267701    
  68625800   73833.721     -59.878857     -44063363       1.7228787      219864.21     -43843499       703.98604      703.98604      703.98604      2148.007       2851.993       2148.007       2851.993       2148.007       2851.993       3.488929e+08   0.1            17787080       4.2623873      478.44449      4784.4446      16.229868    
  68626000   74815.336     -60.306782     -44063765       1.7228787      222787.3      -43840977       703.98604      703.98604      703.98604      2148.007       2851.993       2148.007       2851.993       2148.007       2851.993       3.488929e+08   0.1            17787100       4.3032275      489.71307      4897.1282      16.188341    
  68626200   76040.708     -60.781945     -44064158       1.7228787      226436.24     -43837722       703.98604      703.98604      703.98604      2148.007       2851.993       2148.007       2851.993       2148.007       2851.993       3.488929e+08   0.1            17787120       4.3439699      490.88852      4908.891       16.146462    
  68626400   77473.473     -61.215082     -44064543       1.7228787      230702.77     -43833841       703.98604      703.98604      703.98604      2148.007       2851.993       2148.007       2851.993       2148.007       2851.993       3.488929e+08   0.1            17787140       4.3847971      489.87         4898.6962      16.104918    
  68626600   79060.188     -61.618664     -44064923       1.7228787      235427.74     -43829495       703.98604      703.98604      703.98604      2148.007       2851.993       2148.007       2851.993       2148.007       2851.993       3.488929e+08   0.1            17787160       4.425661       489.42872      4894.2887      16.063519    
  68626800   80734.393     -61.997914     -44063770       1.7228787      240413.23     -43823357       703.98604      703.98604      703.98604      2148.007       2851.993       2148.007       2851.993       2148.007       2851.993       3.488929e+08   0.1            17787180       4.4664428      490.41521      4904.1562      16.021835    
  68627000   82422.158     -61.969777     -44064140       1.7228787      245439.11     -43818701       703.98604      703.98604      703.98604      2148.007       2851.993       2148.007       2851.993       2148.007       2851.993       3.488929e+08   0.1            17787200       4.5072353      490.28479      4902.8452      15.980206    
  68627200   84047.442     -61.352193     -44064501       1.7228787      250278.93     -43814222       703.98604      703.98604      703.98604      2148.007       2851.993       2148.007       2851.993       2148.007       2851.993       3.488929e+08   0.1            17787220       4.5480649      489.84342      4898.4355      15.938721    
  68627400   85538.795     -60.684776     -44062956       1.7228787      254719.92     -43808236       703.98604      703.98604      703.98604      2148.007       2851.993       2148.007       2851.993       2148.007       2851.993       3.488929e+08   0.1            17787240       4.588966       488.9818       4889.8133      15.897498    
  68627600   86835.704     -60.245093     -44055918       1.7228787      258581.9      -43797336       703.98604      703.98604      703.98604      2148.007       2851.993       2148.007       2851.993       2148.007       2851.993       3.488929e+08   0.1            17787260       4.6298028      489.75631      4897.5662      15.856058    
  68627800   87891.364     -60.372925     -44056248       1.7228787      261725.47     -43794522       703.98604      703.98604      703.98604      2148.007       2851.993       2148.007       2851.993       2148.007       2851.993       3.488929e+08   0.1            17787280       4.6712492      482.54901      4825.4891      15.816694    
  68628000   88677.445     -60.321323     -44056566       1.7228787      264066.29     -43792499       703.98604      703.98604      703.98604      2148.007       2851.993       2148.007       2851.993       2148.007       2851.993       3.488929e+08   0.1            17787300       4.712171       488.7388       4887.385       15.775537    
  68628200   89188.797     -60.187114     -44056874       1.7228787      265589.01     -43791285       703.98604      703.98604      703.98604      2148.007       2851.993       2148.007       2851.993       2148.007       2851.993       3.488929e+08   0.1            17787320       4.7529355      490.624        4906.2433      15.733862    
  68628400   89441.59      -60.446836     -44064548       1.7228787      266341.78     -43798206       703.98604      703.98604      703.98604      2148.007       2851.993       2148.007       2851.993       2148.007       2851.993       3.488929e+08   0.1            17787340       4.7945815      480.23446      4802.3227      15.695092    
  68628600   89475.389     -59.971904     -44058980       1.7228787      266442.43     -43792538       703.98604      703.98604      703.98604      2148.007       2851.993       2148.007       2851.993       2148.007       2851.993       3.488929e+08   0.1            17787360       4.8353622      490.43017      4904.3221      15.653468    
  68628800   89348.228     -59.805082     -44059252       1.7228787      266063.76     -43793188       703.98604      703.98604      703.98604      2148.007       2851.993       2148.007       2851.993       2148.007       2851.993       3.488929e+08   0.1            17787380       4.8762805      488.78007      4887.8081      15.6123      
  68629000   89131.695     -59.752279     -44059513       1.7228787      265418.97     -43794094       703.98604      703.98604      703.98604      2148.007       2851.993       2148.007       2851.993       2148.007       2851.993       3.488929e+08   0.1            17787400       4.9171496      489.36732      4893.6706      15.570981    
  68629200   88903.276     -59.734345     -44057867       1.7228787      264738.78     -43793128       703.98604      703.98604      703.98604      2148.007       2851.993       2148.007       2851.993       2148.007       2851.993       3.488929e+08   0.1            17787420       4.9579302      490.42788      4904.2813      15.529392    
  68629400   88739.238     -60.073206     -44058104       1.7228787      264250.3      -43793854       703.98604      703.98604      703.98604      2148.007       2851.993       2148.007       2851.993       2148.007       2851.993       3.488929e+08   0.1            17787440       4.9987072      490.47317      4904.7291      15.487805    
  68629600   88708.357     -60.752298     -44065707       1.7228787      264158.34     -43801548       703.98604      703.98604      703.98604      2148.007       2851.993       2148.007       2851.993       2148.007       2851.993       3.488929e+08   0.1            17787460       5.0394493      490.89227      4908.9212      15.446124    
  68629800   88869.57      -61.341883     -44065919       1.7228787      264638.4      -43801280       703.98604      703.98604      703.98604      2148.007       2851.993       2148.007       2851.993       2148.007       2851.993       3.488929e+08   0.1            17787480       5.0802489      490.20085      4902.0145      15.404632    
  68630000   89268.158     -62.282235     -44068017       1.7228787      265825.33     -43802192       703.98604      703.98604      703.98604      2148.007       2851.993       2148.007       2851.993       2148.007       2851.993       3.488929e+08   0.1            17787500       5.1210115      490.64667      4906.4637      15.363041    
  68630200   89932.008     -63.153077     -44068210       1.7228787      267802.16     -43800408       703.98604      703.98604      703.98604      2148.007       2851.993       2148.007       2851.993       2148.007       2851.993       3.488929e+08   0.1            17787520       5.1617579      490.84094      4908.4072      15.321415    
  68630400   90869.282     -64.286566     -44073877       1.7228787      270593.2      -43803284       703.98604      703.98604      703.98604      2148.007       2851.993       2148.007       2851.993       2148.007       2851.993       3.488929e+08   0.1            17787540       5.2025899      489.80985      4898.0932      15.280055    
  68630600   92067.409     -64.761168     -44074054       1.7228787      274161.02     -43799893       703.98604      703.98604      703.98604      2148.007       2851.993       2148.007       2851.993       2148.007       2851.993       3.488929e+08   0.1            17787560       5.2432732      491.60439      4916.0457      15.238269    
  68630800   93491.45      -65.012006     -44081598       1.7228787      278401.57     -43803197       703.98604      703.98604      703.98604      2148.007       2851.993       2148.007       2851.993       2148.007       2851.993       3.488929e+08   0.1            17787580       5.2851184      477.95224      4779.5223      15.199843    
  68631000   95088.266     -64.188955     -44076273       1.7228787      283156.62     -43793116       703.98604      703.98604      703.98604      2148.007       2851.993       2148.007       2851.993       2148.007       2851.993       3.488929e+08   0.1            17787600       5.3259216      490.15804      4901.5862      15.158398    
  68631200   96790.129     -63.088285     -44074522       1.7228787      288224.47     -43786298       703.98604      703.98604      703.98604      2148.007       2851.993       2148.007       2851.993       2148.007       2851.993       3.488929e+08   0.1            17787620       5.3667009      490.44481      4904.4523      15.116897    
  68631400   98520.055     -62.541119     -44074653       1.7228787      293375.9      -43781277       703.98604      703.98604      703.98604      2148.007       2851.993       2148.007       2851.993       2148.007       2851.993       3.488929e+08   0.1            17787640       5.4074689      490.5794       4905.791       15.075374    
  68631600   100200.85     -61.929569     -44070616       1.7228787      298381.03     -43772235       703.98604      703.98604      703.98604      2148.007       2851.993       2148.007       2851.993       2148.007       2851.993       3.488929e+08   0.1            17787660       5.4481621      491.48221      4914.8137      15.033657    
  68631800   101756.53     -61.645236     -44070724       1.7228787      303013.57     -43767710       703.98604      703.98604      703.98604      2148.007       2851.993       2148.007       2851.993       2148.007       2851.993       3.488929e+08   0.1            17787680       5.4888995      490.94993      4909.5049      14.992075    
  68632000   103120.94     -61.032044     -44070819       1.7228787      307076.55     -43763742       703.98604      703.98604      703.98604      2148.007       2851.993       2148.007       2851.993       2148.007       2851.993       3.488929e+08   0.1            17787700       5.5304895      480.88316      4808.8215      14.952812    
  68632200   104242.65     -60.049927     -44074487       1.7228787      310416.82     -43764070       703.98604      703.98604      703.98604      2148.007       2851.993       2148.007       2851.993       2148.007       2851.993       3.488929e+08   0.1            17787720       5.5718761      483.24984      4832.5104      14.912968    
  68632400   105088.52     -58.758814     -44074553       1.7228787      312935.66     -43761617       703.98604      703.98604      703.98604      2148.007       2851.993       2148.007       2851.993       2148.007       2851.993       3.488929e+08   0.1            17787740       5.6126879      490.05537      4900.5474      14.87158     
  68632600   105648.36     -57.959453     -44081984       1.7228787      314602.77     -43767381       703.98604      703.98604      703.98604      2148.007       2851.993       2148.007       2851.993       2148.007       2851.993       3.488929e+08   0.1            17787760       5.6535374      489.60083      4896.0108      14.8303      
  68632800   105935.95     -57.106954     -44080131       1.7228787      315459.18     -43764672       703.98604      703.98604      703.98604      2148.007       2851.993       2148.007       2851.993       2148.007       2851.993       3.488929e+08   0.1            17787780       5.6943904      489.55818      4895.5776      14.789035    
  68633000   105987.17     -57.160971     -44080163       1.7228787      315611.69     -43764552       703.98604      703.98604      703.98604      2148.007       2851.993       2148.007       2851.993       2148.007       2851.993       3.488929e+08   0.1            17787800       5.7351719      490.42071      4904.2171      14.747591    
  68633200   105858.36     -57.553283     -44080183       1.7228787      315228.11     -43764955       703.98604      703.98604      703.98604      2148.007       2851.993       2148.007       2851.993       2148.007       2851.993       3.488929e+08   0.1            17787820       5.776024       489.56991      4895.6932      14.706337    
  68633400   105619.96     -57.713046     -44080190       1.7228787      314518.21     -43765672       703.98604      703.98604      703.98604      2148.007       2851.993       2148.007       2851.993       2148.007       2851.993       3.488929e+08   0.1            17787840       5.8168297      490.12795      4901.2809      14.664971    
  68633600   105351.44     -57.330854     -44072807       1.7228787      313718.59     -43759088       703.98604      703.98604      703.98604      2148.007       2851.993       2148.007       2851.993       2148.007       2851.993       3.488929e+08   0.1            17787860       5.8576688      489.7279       4897.278       14.623696    
  68633800   105133.17     -57.501891     -44074685       1.7228787      313068.62     -43761617       703.98604      703.98604      703.98604      2148.007       2851.993       2148.007       2851.993       2148.007       2851.993       3.488929e+08   0.1            17787880       5.898432       490.63857      4906.3841      14.58224     
  68634000   105039.5      -57.78791      -44082037       1.7228787      312789.68     -43769247       703.98604      703.98604      703.98604      2148.007       2851.993       2148.007       2851.993       2148.007       2851.993       3.488929e+08   0.1            17787900       5.9392638      489.81209      4898.1244      14.540962    
  68634200   105134.69     -57.226196     -44081999       1.7228787      313073.14     -43768926       703.98604      703.98604      703.98604      2148.007       2851.993       2148.007       2851.993       2148.007       2851.993       3.488929e+08   0.1            17787920       5.9800423      490.45556      4904.5535      14.49956     
  68634400   105468.14     -56.521106     -44081950       1.7228787      314066.12     -43767884       703.98604      703.98604      703.98604      2148.007       2851.993       2148.007       2851.993       2148.007       2851.993       3.488929e+08   0.1            17787940       6.0208652      489.9219       4899.2214      14.458274    
  68634600   106072.24     -56.575001     -44087372       1.7228787      315865.01     -43771507       703.98604      703.98604      703.98604      2148.007       2851.993       2148.007       2851.993       2148.007       2851.993       3.488929e+08   0.1            17787960       6.0615999      490.98271      4909.8228      14.416783    
  68634800   106960.35     -56.838322     -44087303       1.7228787      318509.67     -43768793       703.98604      703.98604      703.98604      2148.007       2851.993       2148.007       2851.993       2148.007       2851.993       3.488929e+08   0.1            17787980       6.1023438      490.86997      4908.7029      14.375325    
  68635000   108121.99     -57.152166     -44094601       1.7228787      321968.83     -43772632       703.98604      703.98604      703.98604      2148.007       2851.993       2148.007       2851.993       2148.007       2851.993       3.488929e+08   0.1            17788000       6.1430954      490.77877      4907.7887      14.333894    
  68635200   109526.4      -56.22043      -44092616       1.7228787      326150.91     -43766465       703.98604      703.98604      703.98604      2148.007       2851.993       2148.007       2851.993       2148.007       2851.993       3.488929e+08   0.1            17788020       6.1838583      490.64182      4906.4196      14.292499    
  68635400   111120.83     -55.190299     -44092511       1.7228787      330898.85     -43761612       703.98604      703.98604      703.98604      2148.007       2851.993       2148.007       2851.993       2148.007       2851.993       3.488929e+08   0.1            17788040       6.2254447      480.92604      4809.2549      14.252997    
  68635600   112836.8      -54.098644     -44092389       1.7228787      336008.72     -43756380       703.98604      703.98604      703.98604      2148.007       2851.993       2148.007       2851.993       2148.007       2851.993       3.488929e+08   0.1            17788060       6.2670693      480.48604      4804.8632      14.213554    
  68635800   114598.06     -53.324834     -44092253       1.7228787      341253.46     -43750999       703.98604      703.98604      703.98604      2148.007       2851.993       2148.007       2851.993       2148.007       2851.993       3.488929e+08   0.1            17788080       6.3081993      486.26112      4862.6087      14.172973    
  68636000   116324.37     -53.525556     -44103274       1.7228787      346394.1      -43756880       703.98604      703.98604      703.98604      2148.007       2851.993       2148.007       2851.993       2148.007       2851.993       3.488929e+08   0.1            17788100       6.3490408      489.70033      4897.0033      14.131741    
  68636200   117937.13     -53.015923     -44103115       1.7228787      351196.62     -43751918       703.98604      703.98604      703.98604      2148.007       2851.993       2148.007       2851.993       2148.007       2851.993       3.488929e+08   0.1            17788120       6.3898043      490.63398      4906.3399      14.090343    
  68636400   119365.19     -52.134687     -44102941       1.7228787      355449.15     -43747492       703.98604      703.98604      703.98604      2148.007       2851.993       2148.007       2851.993       2148.007       2851.993       3.488929e+08   0.1            17788140       6.4305123      491.30375      4913.0373      14.048831    
  68636600   120553.25     -50.958964     -44102755       1.7228787      358987        -43743768       703.98604      703.98604      703.98604      2148.007       2851.993       2148.007       2851.993       2148.007       2851.993       3.488929e+08   0.1            17788160       6.4713025      490.31544      4903.1547      14.007508    
  68636800   121463.87     -50.175033     -44108040       1.7228787      361698.65     -43746341       703.98604      703.98604      703.98604      2148.007       2851.993       2148.007       2851.993       2148.007       2851.993       3.488929e+08   0.1            17788180       6.5120361      490.9937       4909.9412      13.96607     
  68637000   122080.91     -49.632046     -44115207       1.7228787      363536.1      -43751671       703.98604      703.98604      703.98604      2148.007       2851.993       2148.007       2851.993       2148.007       2851.993       3.488929e+08   0.1            17788200       6.5529702      488.59139      4885.91        13.925067    
  68637200   122413.33     -48.706233     -44122361       1.7228787      364526        -43757835       703.98604      703.98604      703.98604      2148.007       2851.993       2148.007       2851.993       2148.007       2851.993       3.488929e+08   0.1            17788220       6.5938276      489.50741      4895.0779      13.883902    
  68637400   122493.69     -47.856628     -44129506       1.7228787      364765.3      -43764741       703.98604      703.98604      703.98604      2148.007       2851.993       2148.007       2851.993       2148.007       2851.993       3.488929e+08   0.1            17788240       6.6346186      490.30167      4903.0089      13.842604    
  68637600   122375.79     -47.520973     -44136641       1.7228787      364414.2      -43772227       703.98604      703.98604      703.98604      2148.007       2851.993       2148.007       2851.993       2148.007       2851.993       3.488929e+08   0.1            17788260       6.6755098      489.10562      4891.0645      13.801519    
  68637800   122128.52     -47.348536     -44136385       1.7228787      363677.89     -43772707       703.98604      703.98604      703.98604      2148.007       2851.993       2148.007       2851.993       2148.007       2851.993       3.488929e+08   0.1            17788280       6.7162789      490.56727      4905.6678      13.760186    
  68638000   121831.43     -46.826535     -44136118       1.7228787      362793.2      -43773324       703.98604      703.98604      703.98604      2148.007       2851.993       2148.007       2851.993       2148.007       2851.993       3.488929e+08   0.1            17788300       6.7570177      490.93153      4909.3208      13.718798    
  68638200   121567.64     -45.964222     -44135838       1.7228787      362007.69     -43773831       703.98604      703.98604      703.98604      2148.007       2851.993       2148.007       2851.993       2148.007       2851.993       3.488929e+08   0.1            17788320       6.7978134      490.24761      4902.4755      13.677533    
  68638400   121416.04     -45.718249     -44142927       1.7228787      361556.23     -43781371       703.98604      703.98604      703.98604      2148.007       2851.993       2148.007       2851.993       2148.007       2851.993       3.488929e+08   0.1            17788340       6.8392959      482.12967      4821.2895      13.637643    
  68638600   121445.76     -45.23463      -44144523       1.7228787      361644.73     -43782878       703.98604      703.98604      703.98604      2148.007       2851.993       2148.007       2851.993       2148.007       2851.993       3.488929e+08   0.1            17788360       6.8894604      398.6876       3986.8827      13.614891    
  68638800   121711.51     -44.627255     -44144213       1.7228787      362436.09     -43781777       703.98604      703.98604      703.98604      2148.007       2851.993       2148.007       2851.993       2148.007       2851.993       3.488929e+08   0.1            17788380       6.9302779      489.98696      4899.8632      13.573508    
  68639000   122251.04     -44.042403     -44141999       1.7228787      364042.72     -43777956       703.98604      703.98604      703.98604      2148.007       2851.993       2148.007       2851.993       2148.007       2851.993       3.488929e+08   0.1            17788400       6.9711457      489.38501      4893.8489      13.532228    
  68639200   123081.46     -43.252058     -44141669       1.7228787      366515.58     -43775153       703.98604      703.98604      703.98604      2148.007       2851.993       2148.007       2851.993       2148.007       2851.993       3.488929e+08   0.1            17788420       7.0119345      490.32951      4903.2963      13.490802    
  68639400   124197.27     -42.155791     -44146810       1.7228787      369838.28     -43776972       703.98604      703.98604      703.98604      2148.007       2851.993       2148.007       2851.993       2148.007       2851.993       3.488929e+08   0.1            17788440       7.0527243      490.31928      4903.1956      13.449386    
  68639600   125571.41     -40.580262     -44146460       1.7228787      373930.21     -43772530       703.98604      703.98604      703.98604      2148.007       2851.993       2148.007       2851.993       2148.007       2851.993       3.488929e+08   0.1            17788460       7.0935426      489.97607      4899.7549      13.40803     
  68639800   127153.61     -38.996485     -44147992       1.7228787      378641.72     -43769350       703.98604      703.98604      703.98604      2148.007       2851.993       2148.007       2851.993       2148.007       2851.993       3.488929e+08   0.1            17788480       7.1343159      490.51797      4905.1841      13.366596    
  68640000   128877.08     -37.916034     -44151407       1.7228787      383773.94     -43767633       703.98604      703.98604      703.98604      2148.007       2851.993       2148.007       2851.993       2148.007       2851.993       3.488929e+08   0.1            17788500       7.1753819      487.01953      4870.1947      13.325714    
  68640200   130664.13     -36.935857     -44151019       1.7228787      389095.46     -43761924       703.98604      703.98604      703.98604      2148.007       2851.993       2148.007       2851.993       2148.007       2851.993       3.488929e+08   0.1            17788520       7.2161664      490.382        4903.8194      13.284311    
  68640400   132431.38     -36.18581      -44157997       1.7228787      394358.02     -43763639       703.98604      703.98604      703.98604      2148.007       2851.993       2148.007       2851.993       2148.007       2851.993       3.488929e+08   0.1            17788540       7.256896       491.04386      4910.44        13.242815    
  68640600   134097.04     -34.014883     -44148312       1.7228787      399318.1      -43748994       703.98604      703.98604      703.98604      2148.007       2851.993       2148.007       2851.993       2148.007       2851.993       3.488929e+08   0.1            17788560       7.2986013      479.55602      4795.56        13.203092    
  68640800   135587.75     -32.178579     -44145994       1.7228787      403757.16     -43742237       703.98604      703.98604      703.98604      2148.007       2851.993       2148.007       2851.993       2148.007       2851.993       3.488929e+08   0.1            17788580       7.3393029      491.38174      4913.8165      13.161547    
  68641000   136842.58     -30.656134     -44143665       1.7228787      407493.83     -43736172       703.98604      703.98604      703.98604      2148.007       2851.993       2148.007       2851.993       2148.007       2851.993       3.488929e+08   0.1            17788600       7.3800738      490.54275      4905.4292      13.120136    
  68641200   137819.71     -29.295755     -44143221       1.7228787      410403.56     -43732817       703.98604      703.98604      703.98604      2148.007       2851.993       2148.007       2851.993       2148.007       2851.993       3.488929e+08   0.1            17788620       7.4208132      490.92517      4909.2522      13.078675    
  68641400   138496.86     -28.284819     -44150139       1.7228787      412420.01     -43737719       703.98604      703.98604      703.98604      2148.007       2851.993       2148.007       2851.993       2148.007       2851.993       3.488929e+08   0.1            17788640       7.4623078      481.9913       4819.902       13.038542    
  68641600   138877.2      -27.217608     -44149664       1.7228787      413552.59     -43736112       703.98604      703.98604      703.98604      2148.007       2851.993       2148.007       2851.993       2148.007       2851.993       3.488929e+08   0.1            17788660       7.5030922      490.38537      4903.8621      12.997164    
  68641800   138990.5      -26.595282     -44156557       1.7228787      413889.97     -43742668       703.98604      703.98604      703.98604      2148.007       2851.993       2148.007       2851.993       2148.007       2851.993       3.488929e+08   0.1            17788680       7.5438859      490.2694       4902.6985      12.955808    
  68642000   138887.38     -25.577618     -44156064       1.7228787      413582.89     -43742481       703.98604      703.98604      703.98604      2148.007       2851.993       2148.007       2851.993       2148.007       2851.993       3.488929e+08   0.1            17788700       7.5847194      489.79664      4897.9586      12.914526    
  68642200   138637.07     -24.165939     -44155193       1.7228787      412837.53     -43742355       703.98604      703.98604      703.98604      2148.007       2851.993       2148.007       2851.993       2148.007       2851.993       3.488929e+08   0.1            17788720       7.6255007      490.42006      4904.2144      12.873161    
  68642400   138319.52     -22.913355     -44154683       1.7228787      411891.92     -43742791       703.98604      703.98604      703.98604      2148.007       2851.993       2148.007       2851.993       2148.007       2851.993       3.488929e+08   0.1            17788740       7.6663619      489.46217      4894.609       12.831936    
  68642600   138018.76     -21.535489     -44150375       1.7228787      410996.3      -43739379       703.98604      703.98604      703.98604      2148.007       2851.993       2148.007       2851.993       2148.007       2851.993       3.488929e+08   0.1            17788760       7.707146       490.38706      4903.8723      12.790587    
  68642800   137817.05     -20.420716     -44150219       1.7228787      410395.64     -43739823       703.98604      703.98604      703.98604      2148.007       2851.993       2148.007       2851.993       2148.007       2851.993       3.488929e+08   0.1            17788780       7.7478571      491.26616      4912.6646      12.749123    
  68643000   137787.24     -18.308485     -44135300       1.7228787      410306.87     -43724993       703.98604      703.98604      703.98604      2148.007       2851.993       2148.007       2851.993       2148.007       2851.993       3.488929e+08   0.1            17788800       7.7887058      489.61335      4896.1322      12.707892    
  68643200   137989.51     -17.197682     -44142137       1.7228787      410909.2      -43731228       703.98604      703.98604      703.98604      2148.007       2851.993       2148.007       2851.993       2148.007       2851.993       3.488929e+08   0.1            17788820       7.8294648      490.68831      4906.8872      12.66652     
  68643400   138466.57     -15.576743     -44141590       1.7228787      412329.81     -43729260       703.98604      703.98604      703.98604      2148.007       2851.993       2148.007       2851.993       2148.007       2851.993       3.488929e+08   0.1            17788840       7.8703439      489.24775      4892.473       12.625347    
  68643600   139239.66     -13.832859     -44141034       1.7228787      414631.93     -43726402       703.98604      703.98604      703.98604      2148.007       2851.993       2148.007       2851.993       2148.007       2851.993       3.488929e+08   0.1            17788860       7.9112226      489.25173      4892.5131      12.584176    
  68643800   140307.74     -12.094642     -44140468       1.7228787      417812.49     -43722656       703.98604      703.98604      703.98604      2148.007       2851.993       2148.007       2851.993       2148.007       2851.993       3.488929e+08   0.1            17788880       7.9519758      490.75925      4907.5985      12.542811    
  68644000   141646.01     -10.432828     -44139893       1.7228787      421797.62     -43718095       703.98604      703.98604      703.98604      2148.007       2851.993       2148.007       2851.993       2148.007       2851.993       3.488929e+08   0.1            17788900       7.9928177      489.68842      4896.883       12.501591    
  68644200   143208.04     -8.8851518     -44139305       1.7228787      426449.1      -43712856       703.98604      703.98604      703.98604      2148.007       2851.993       2148.007       2851.993       2148.007       2851.993       3.488929e+08   0.1            17788920       8.0343212      481.88943      4818.8878      12.4614      
  68644400   144928.99     -7.1688166     -44138708       1.7228787      431573.79     -43707134       703.98604      703.98604      703.98604      2148.007       2851.993       2148.007       2851.993       2148.007       2851.993       3.488929e+08   0.1            17788940       8.075025       491.35552      4913.5618      12.419966    
  68644600   146730.94     -5.5328138     -44141890       1.7228787      436939.67     -43704950       703.98604      703.98604      703.98604      2148.007       2851.993       2148.007       2851.993       2148.007       2851.993       3.488929e+08   0.1            17788960       8.1157701      490.85623      4908.5598      12.378603    
  68644800   148528.08     -4.2301664     -44148647       1.7228787      442291.25     -43706356       703.98604      703.98604      703.98604      2148.007       2851.993       2148.007       2851.993       2148.007       2851.993       3.488929e+08   0.1            17788980       8.1564875      491.19055      4911.9117      12.337203    
  68645000   150234.78     -2.1848244     -44140630       1.7228787      447373.53     -43693257       703.98604      703.98604      703.98604      2148.007       2851.993       2148.007       2851.993       2148.007       2851.993       3.488929e+08   0.1            17789000       8.1972402      490.7665       4907.6354      12.295864    
  68645200   151775.19      0.031388169   -44136185       1.7228787      451960.6      -43684224       703.98604      703.98604      703.98604      2148.007       2851.993       2148.007       2851.993       2148.007       2851.993       3.488929e+08   0.1            17789020       8.237964       491.11151      4911.1285      12.254488    
  68645400   153087.54      2.6245518     -44120765       1.7228787      455868.55     -43664896       703.98604      703.98604      703.98604      2148.007       2851.993       2148.007       2851.993       2148.007       2851.993       3.488929e+08   0.1            17789040       8.2796657      479.5978       4795.9912      12.21456     
  68645600   154126.82      4.1846908     -44120097       1.7228787      458963.35     -43661134       703.98604      703.98604      703.98604      2148.007       2851.993       2148.007       2851.993       2148.007       2851.993       3.488929e+08   0.1            17789060       8.3204112      490.84905      4908.4944      12.173216    
  68645800   154867.44      5.5015804     -44121321       1.7228787      461168.81     -43660152       703.98604      703.98604      703.98604      2148.007       2851.993       2148.007       2851.993       2148.007       2851.993       3.488929e+08   0.1            17789080       8.3611756      490.62828      4906.2802      12.131905    
  68646000   155306.39      6.831825      -44113265       1.7228787      462475.91     -43650789       703.98604      703.98604      703.98604      2148.007       2851.993       2148.007       2851.993       2148.007       2851.993       3.488929e+08   0.1            17789100       8.4020703      489.061        4890.6091      12.090787    
  68646200   155466.83      6.8844789     -44119955       1.7228787      462953.68     -43657002       703.98604      703.98604      703.98604      2148.007       2851.993       2148.007       2851.993       2148.007       2851.993       3.488929e+08   0.1            17789120       8.4428191      490.81149      4908.116       12.049463    
  68646400   155394.47      7.2536774     -44126635       1.7228787      462738.21     -43663897       703.98604      703.98604      703.98604      2148.007       2851.993       2148.007       2851.993       2148.007       2851.993       3.488929e+08   0.1            17789140       8.4835806      490.65988      4906.5955      12.008163    
  68646600   155154.59      8.1777981     -44125925       1.7228787      462023.88     -43663901       703.98604      703.98604      703.98604      2148.007       2851.993       2148.007       2851.993       2148.007       2851.993       3.488929e+08   0.1            17789160       8.525171       480.87831      4808.781       11.968032    
  68646800   154827.67      9.2104172     -44125209       1.7228787      461050.35     -43664158       703.98604      703.98604      703.98604      2148.007       2851.993       2148.007       2851.993       2148.007       2851.993       3.488929e+08   0.1            17789180       8.5659256      490.74314      4907.4269      11.926723    
  68647000   154499.85      10.976263     -44122595       1.7228787      460074.17     -43662521       703.98604      703.98604      703.98604      2148.007       2851.993       2148.007       2851.993       2148.007       2851.993       3.488929e+08   0.1            17789200       8.6067532      489.86363      4898.6387      11.88552     
  68647200   154255.05      12.723831     -44126985       1.7228787      459345.2      -43667640       703.98604      703.98604      703.98604      2148.007       2851.993       2148.007       2851.993       2148.007       2851.993       3.488929e+08   0.1            17789220       8.647639       489.16872      4891.6899      11.8444      
  68647400   154169.53      14.508317     -44126252       1.7228787      459090.52     -43667162       703.98604      703.98604      703.98604      2148.007       2851.993       2148.007       2851.993       2148.007       2851.993       3.488929e+08   0.1            17789240       8.6884053      490.59837      4905.9833      11.80312     
  68647600   154308.09      15.945911     -44132890       1.7228787      459503.15     -43673387       703.98604      703.98604      703.98604      2148.007       2851.993       2148.007       2851.993       2148.007       2851.993       3.488929e+08   0.1            17789260       8.7291437      490.93913      4909.3932      11.761807    
  68647800   154719.06      17.731347     -44132146       1.7228787      460726.95     -43671419       703.98604      703.98604      703.98604      2148.007       2851.993       2148.007       2851.993       2148.007       2851.993       3.488929e+08   0.1            17789280       8.7699033      490.68212      4906.8241      11.720528    
  68648000   155428.66      20.302419     -44127608       1.7228787      462840        -43664768       703.98604      703.98604      703.98604      2148.007       2851.993       2148.007       2851.993       2148.007       2851.993       3.488929e+08   0.1            17789300       8.8107751      489.3353       4893.3477      11.679403    
  68648200   156440.68      22.537888     -44128745       1.7228787      465853.64     -43662892       703.98604      703.98604      703.98604      2148.007       2851.993       2148.007       2851.993       2148.007       2851.993       3.488929e+08   0.1            17789320       8.8515307      490.73053      4907.3136      11.638127    
  68648400   157735.65      25.316617     -44120237       1.7228787      469709.82     -43650527       703.98604      703.98604      703.98604      2148.007       2851.993       2148.007       2851.993       2148.007       2851.993       3.488929e+08   0.1            17789340       8.8923766      489.64448      4896.4059      11.596974    
  68648600   159270.7       26.861151     -44124953       1.7228787      474280.96     -43650672       703.98604      703.98604      703.98604      2148.007       2851.993       2148.007       2851.993       2148.007       2851.993       3.488929e+08   0.1            17789360       8.9331006      491.10766      4911.1101      11.555666    
  68648800   160983.14      28.637713     -44116804       1.7228787      479380.29     -43637424       703.98604      703.98604      703.98604      2148.007       2851.993       2148.007       2851.993       2148.007       2851.993       3.488929e+08   0.1            17789380       8.9752292      474.73665      4747.3622      11.516165    
  68649000   162794.71      30.987931     -44109018       1.7228787      484774.84     -43624243       703.98604      703.98604      703.98604      2148.007       2851.993       2148.007       2851.993       2148.007       2851.993       3.488929e+08   0.1            17789400       9.0161372      488.90451      4889.0499      11.475087    
  68649200   164619.26      33.837593     -44106337       1.7228787      490208.06     -43616129       703.98604      703.98604      703.98604      2148.007       2851.993       2148.007       2851.993       2148.007       2851.993       3.488929e+08   0.1            17789420       9.0577986      480.06132      4800.6068      11.434961    
  68649400   166371.2       36.477823     -44105544       1.7228787      495425.02     -43610119       703.98604      703.98604      703.98604      2148.007       2851.993       2148.007       2851.993       2148.007       2851.993       3.488929e+08   0.1            17789440       9.0986751      489.27758      4892.7785      11.39384     
  68649600   167969.18      38.858466     -44104742       1.7228787      500183.54     -43604559       703.98604      703.98604      703.98604      2148.007       2851.993       2148.007       2851.993       2148.007       2851.993       3.488929e+08   0.1            17789460       9.1395341      489.48917      4894.8955      11.352698    
  68649800   169344.13      40.794481     -44096551       1.7228787      504277.91     -43592273       703.98604      703.98604      703.98604      2148.007       2851.993       2148.007       2851.993       2148.007       2851.993       3.488929e+08   0.1            17789480       9.1803905      489.5194       4895.1995      11.311555    
[...]
  69294400   305.64752      5.8268737     -43885470       1.7232364      910.16613     -43884560       703.93732      703.93732      703.93732      2148.0313      2851.9687      2148.0313      2851.9687      2148.0313      2851.9687      3.4882047e+08  0.1            17853940       68.07603       425.91205      4259.1215      2.4934552    
  69294600   305.59168      2.7680091     -43885170       1.72315        909.99984     -43884260       703.94908      703.94908      703.94908      2148.0255      2851.9745      2148.0255      2851.9745      2148.0255      2851.9745      3.4883796e+08  0.1            17853960       68.122928      426.46106      4264.6108      2.4464036    
  69294800   305.5462      -5.5450224     -43885237       1.7229183      909.86441     -43884327       703.98064      703.98064      703.98064      2148.0097      2851.9903      2148.0097      2851.9903      2148.0097      2851.9903      3.4888488e+08  0.1            17853980       68.16982       426.51175      4265.1147      2.3993519    
  69295000   305.5033       4.4028395     -43885305       1.7232036      909.73667     -43884396       703.94178      703.94178      703.94178      2148.0291      2851.9709      2148.0291      2851.9709      2148.0291      2851.9709      3.4882711e+08  0.1            17854000       68.216753      426.1327       4261.3263      2.3523019    
  69295200   305.53925     -5.7993486     -43885373       1.7229186      909.84373     -43884463       703.98059      703.98059      703.98059      2148.0097      2851.9903      2148.0097      2851.9903      2148.0097      2851.9903      3.4888481e+08  0.1            17854020       68.263786      425.23858      4252.3888      2.3052554    
  69295400   305.65161      11.46314      -43892814       1.723422       910.17829     -43891904       703.91205      703.91205      703.91205      2148.044       2851.956       2148.044       2851.956       2148.044       2851.956       3.4878292e+08  0.1            17854040       68.310714      426.17862      4261.7862      2.2582055    
  69295600   305.53178     -10.318222     -43885505       1.7227986      909.82147     -43884595       703.99695      703.99695      703.99695      2148.0015      2851.9985      2148.0015      2851.9985      2148.0015      2851.9985      3.4890913e+08  0.1            17854060       68.35807       422.33534      4223.3593      2.2111696    
  69295800   305.56217      3.9127188     -43892954       1.723216       909.91197     -43892044       703.9401       703.9401       703.9401       2148.03        2851.97        2148.03        2851.97        2148.03        2851.97        3.4882461e+08  0.1            17854080       68.405056      425.66338      4256.6129      2.1641215    
  69296000   305.50257      9.436445      -43893019       1.7233764      909.73449     -43892109       703.91827      703.91827      703.91827      2148.0409      2851.9591      2148.0409      2851.9591      2148.0409      2851.9591      3.4879215e+08  0.1            17854100       68.452087      425.24886      4252.4993      2.1170749    
  69296200   305.56801      7.5247873     -43893087       1.7233263      909.92934     -43892177       703.92508      703.92508      703.92508      2148.0375      2851.9625      2148.0375      2851.9625      2148.0375      2851.9625      3.4880228e+08  0.1            17854120       68.498975      426.54982      4265.5009      2.070024     
  69296400   305.62223      7.5041121     -43893155       1.7233298      910.0908      -43892245       703.9246       703.9246       703.9246       2148.0377      2851.9623      2148.0377      2851.9623      2148.0377      2851.9623      3.4880157e+08  0.1            17854140       68.545882      426.37719      4263.7736      2.0229739    
  69296600   305.57523      7.3816848     -43893222       1.7233306      909.95084     -43892312       703.9245       703.9245       703.9245       2148.0377      2851.9623      2148.0377      2851.9623      2148.0377      2851.9623      3.4880142e+08  0.1            17854160       68.592831      425.98766      4259.8768      1.9759253    
  69296800   305.53826      1.4508437     -43893292       1.723167       909.84076     -43892382       703.94677      703.94677      703.94677      2148.0266      2851.9734      2148.0266      2851.9734      2148.0266      2851.9734      3.4883452e+08  0.1            17854180       68.639772      426.07182      4260.7206      1.9288765    
  69297000   305.46222      1.5959619     -43893359       1.7231754      909.61433     -43892450       703.94562      703.94562      703.94562      2148.0272      2851.9728      2148.0272      2851.9728      2148.0272      2851.9728      3.4883282e+08  0.1            17854200       68.687486      419.16516      4191.6475      1.881849     
  69297200   305.5336       1.6496703     -43893427       1.7231813      909.82689     -43892517       703.94483      703.94483      703.94483      2148.0276      2851.9724      2148.0276      2851.9724      2148.0276      2851.9724      3.4883164e+08  0.1            17854220       68.73433       426.94282      4269.4251      1.8347974    
  69297400   305.5756      -1.9958771     -43891599       1.7230779      909.95197     -43890689       703.95891      703.95891      703.95891      2148.0205      2851.9795      2148.0205      2851.9795      2148.0205      2851.9795      3.4885257e+08  0.1            17854240       68.781217      426.55954      4265.6         1.7877472    
  69297600   305.55032      3.8833901     -43891666       1.7232486      909.87669     -43890756       703.93566      703.93566      703.93566      2148.0322      2851.9678      2148.0322      2851.9678      2148.0322      2851.9678      3.48818e+08    0.1            17854260       68.828076      426.81586      4268.1624      1.7406964    
  69297800   305.53841      5.3944013     -43891733       1.7232958      909.84121     -43890823       703.92923      703.92923      703.92923      2148.0354      2851.9646      2148.0354      2851.9646      2148.0354      2851.9646      3.4880845e+08  0.1            17854280       68.875166      424.7171       4247.1641      1.6936517    
  69298000   305.45463      4.234202      -43891800       1.7232674      909.59172     -43890891       703.9331       703.9331       703.9331       2148.0335      2851.9665      2148.0335      2851.9665      2148.0335      2851.9665      3.488142e+08   0.1            17854300       68.922106      426.07307      4260.7344      1.6466033    
  69298200   305.51889      1.5120048     -43891868       1.7231948      909.78308     -43890958       703.94299      703.94299      703.94299      2148.0285      2851.9715      2148.0285      2851.9715      2148.0285      2851.9715      3.4882891e+08  0.1            17854320       68.969934      418.16937      4181.6931      1.5995756    
  69298400   305.5665      -1.3101747     -43891935       1.7231192      909.92486     -43891025       703.95327      703.95327      703.95327      2148.0234      2851.9766      2148.0234      2851.9766      2148.0234      2851.9766      3.4884419e+08  0.1            17854340       69.016776      426.96576      4269.6587      1.5525247    
  69298600   305.51576     -2.4528775     -43892002       1.7230913      909.77375     -43891092       703.95708      703.95708      703.95708      2148.0215      2851.9785      2148.0215      2851.9785      2148.0215      2851.9785      3.4884986e+08  0.1            17854360       69.063702      426.19951      4261.9968      1.5054759    
  69298800   305.50306     -1.053671      -43892069       1.7231353      909.73594     -43891160       703.95108      703.95108      703.95108      2148.0245      2851.9755      2148.0245      2851.9755      2148.0245      2851.9755      3.4884094e+08  0.1            17854380       69.110747      425.12331      4251.227       1.4584297    
  69299000   305.4354       1.87705       -43892136       1.7232229      909.53446     -43891227       703.93917      703.93917      703.93917      2148.0304      2851.9696      2148.0304      2851.9696      2148.0304      2851.9696      3.4882322e+08  0.1            17854400       69.15773       425.69178      4256.9224      1.4113823    
  69299200   305.51682      3.8950315     -43892203       1.7232845      909.77691     -43891293       703.93077      703.93077      703.93077      2148.0346      2851.9654      2148.0346      2851.9654      2148.0346      2851.9654      3.4881074e+08  0.1            17854420       69.204663      426.13609      4261.3589      1.364334     
  69299400   305.57114      3.1283473     -43892270       1.7232671      909.93867     -43891360       703.93313      703.93313      703.93313      2148.0334      2851.9666      2148.0334      2851.9666      2148.0334      2851.9666      3.4881425e+08  0.1            17854440       69.251571      426.37164      4263.7207      1.3172854    
  69299600   305.515        0.27554106    -43892337       1.7231906      909.77149     -43891428       703.94356      703.94356      703.94356      2148.0282      2851.9718      2148.0282      2851.9718      2148.0282      2851.9718      3.4882976e+08  0.1            17854460       69.298431      426.80143      4268.0155      1.270236     
  69299800   305.49218     -1.7165939     -43892404       1.7231384      909.70356     -43891494       703.95067      703.95067      703.95067      2148.0247      2851.9753      2148.0247      2851.9753      2148.0247      2851.9753      3.4884033e+08  0.1            17854480       69.345359      426.18359      4261.8328      1.2231882    
  69300000   305.41886     -0.6502596     -43892471       1.7231729      909.4852      -43891562       703.94597      703.94597      703.94597      2148.027       2851.973       2148.027       2851.973       2148.027       2851.973       3.4883333e+08  0.1            17854500       69.392327      425.81855      4258.1853      1.1761412    
  69300200   305.50353      2.3155297     -43892538       1.7232614      909.73734     -43891628       703.93392      703.93392      703.93392      2148.033       2851.967       2148.033       2851.967       2148.033       2851.967       3.4881542e+08  0.1            17854520       69.439187      426.80578      4268.0578      1.1290925    
  69300400   305.56577      3.7606643     -43892604       1.7233066      909.92269     -43891695       703.92776      703.92776      703.92776      2148.0361      2851.9639      2148.0361      2851.9639      2148.0361      2851.9639      3.4880627e+08  0.1            17854540       69.48607       426.59831      4265.9867      1.0820445    
  69300600   305.51312      1.8855527     -43892672       1.7232576      909.7659      -43891762       703.93444      703.93444      703.93444      2148.0328      2851.9672      2148.0328      2851.9672      2148.0328      2851.9672      3.4881619e+08  0.1            17854560       69.532964      426.49161      4264.9128      1.0349968    
  69300800   305.48654     -1.2835581     -43892739       1.7231717      909.68675     -43891829       703.94613      703.94613      703.94613      2148.0269      2851.9731      2148.0269      2851.9731      2148.0269      2851.9731      3.4883357e+08  0.1            17854580       69.579905      426.06081      4260.6128      0.98795001   
  69301000   305.40777     -2.0099779     -43892805       1.7231552      909.45218     -43891896       703.94838      703.94838      703.94838      2148.0258      2851.9742      2148.0258      2851.9742      2148.0258      2851.9742      3.4883691e+08  0.1            17854600       69.626895      425.62477      4256.2433      0.94090403   
  69301200   305.4923       1.0086221     -43892872       1.7232449      909.70392     -43891963       703.93616      703.93616      703.93616      2148.0319      2851.9681      2148.0319      2851.9681      2148.0319      2851.9681      3.4881875e+08  0.1            17854620       69.673822      426.19009      4261.9017      0.89385731   
  69301400   305.56226      4.8578429     -43892938       1.7233581      909.91224     -43892028       703.92075      703.92075      703.92075      2148.0396      2851.9604      2148.0396      2851.9604      2148.0396      2851.9604      3.4879584e+08  0.1            17854640       69.72076       426.09798      4260.9804      0.84681088   
  69301600   305.51632      5.0218261     -43893005       1.7233666      909.77542     -43892095       703.91959      703.91959      703.91959      2148.0402      2851.9598      2148.0402      2851.9598      2148.0402      2851.9598      3.4879412e+08  0.1            17854660       69.76775       425.62556      4256.2547      0.7997652    
  69301800   305.48447      0.29592905    -43893073       1.7232364      909.68059     -43892163       703.93732      703.93732      703.93732      2148.0313      2851.9687      2148.0313      2851.9687      2148.0313      2851.9687      3.4882048e+08  0.1            17854680       69.8147        425.98167      4259.8084      0.75271917   
  69302000   305.39047     -5.0713971     -43893139       1.7230879      909.40068     -43892229       703.95754      703.95754      703.95754      2148.0212      2851.9788      2148.0212      2851.9788      2148.0212      2851.9788      3.4885054e+08  0.1            17854700       69.861667      425.82829      4258.2913      0.70567344   
  69302200   305.46278     -5.442589      -43893205       1.7230811      909.61599     -43892295       703.95846      703.95846      703.95846      2148.0208      2851.9792      2148.0208      2851.9792      2148.0208      2851.9792      3.4885191e+08  0.1            17854720       69.908531      426.76834      4267.6815      0.65862683   
  69302400   305.53744      0.0098746869  -43893273       1.7232394      909.83833     -43892363       703.93692      703.93692      703.93692      2148.0315      2851.9685      2148.0315      2851.9685      2148.0315      2851.9685      3.4881988e+08  0.1            17854740       69.9564        417.8113       4178.1119      0.61158926   
  69302600   305.51287      6.607449      -43893338       1.7234298      909.76516     -43892428       703.91099      703.91099      703.91099      2148.0445      2851.9555      2148.0445      2851.9555      2148.0445      2851.9555      3.4878134e+08  0.1            17854760       70.003293      426.49731      4264.9741      0.56454271   
  69302800   305.50582      9.3369634     -43893403       1.7235105      909.74415     -43892493       703.9          703.9          703.9          2148.05        2851.95        2148.05        2851.95        2148.05        2851.95        3.4876501e+08  0.1            17854780       70.050217      426.22243      4262.2278      0.51749659   
  69303000   305.42287      7.1982346     -43893471       1.7234533      909.49716     -43892562       703.90779      703.90779      703.90779      2148.0461      2851.9539      2148.0461      2851.9539      2148.0461      2851.9539      3.4877659e+08  0.1            17854800       70.097169      425.96645      4259.6601      0.47045082   
  69303200   305.48021      2.6960301     -43893540       1.7233292      909.66789     -43892630       703.92469      703.92469      703.92469      2148.0377      2851.9623      2148.0377      2851.9623      2148.0377      2851.9623      3.488017e+08   0.1            17854820       70.144087      426.28256      4262.8272      0.42340496   
  69303400   305.52257     -1.2521419     -43893606       1.7232208      909.79404     -43892696       703.93945      703.93945      703.93945      2148.0303      2851.9697      2148.0303      2851.9697      2148.0303      2851.9697      3.4882364e+08  0.1            17854840       70.190973      426.56309      4265.6354      0.37635912   
  69303600   305.46889     -3.3176735     -43893672       1.7231656      909.63419     -43892763       703.94696      703.94696      703.94696      2148.0265      2851.9735      2148.0265      2851.9735      2148.0265      2851.9735      3.488348e+08   0.1            17854860       70.237878      426.39068      4263.9033      0.32931357   
  69303800   305.45148     -3.7062726     -43893739       1.7231579      909.58234     -43892829       703.94801      703.94801      703.94801      2148.026       2851.974       2148.026       2851.974       2148.026       2851.974       3.4883637e+08  0.1            17854880       70.284837      425.90814      4259.0833      0.28226843   
  69304000   305.37802     -3.2021027     -43893806       1.7231753      909.3636      -43892896       703.94564      703.94564      703.94564      2148.0272      2851.9728      2148.0272      2851.9728      2148.0272      2851.9728      3.4883285e+08  0.1            17854900       70.331842      425.48287      4254.8275      0.23522356   
  69304200   305.45189     -2.4614399     -43893872       1.7231993      909.58358     -43892963       703.94237      703.94237      703.94237      2148.0288      2851.9712      2148.0288      2851.9712      2148.0288      2851.9712      3.4882799e+08  0.1            17854920       70.378768      426.20832      4262.0856      0.18817853   
  69304400   305.50887     -1.8261865     -43893939       1.7232203      909.75324     -43893029       703.93952      703.93952      703.93952      2148.0302      2851.9698      2148.0302      2851.9698      2148.0302      2851.9698      3.4882375e+08  0.1            17854940       70.425664      426.47151      4264.7112      0.1411336    
  69304600   305.46346     -1.4119367     -43894005       1.7232349      909.61803     -43893096       703.93752      703.93752      703.93752      2148.0312      2851.9688      2148.0312      2851.9688      2148.0312      2851.9688      3.4882078e+08  0.1            17854960       70.472595      426.15674      4261.5708      0.094088916  
  69304800   305.44807     -1.2295275     -43894072       1.723243       909.57219     -43893162       703.93643      703.93643      703.93643      2148.0318      2851.9682      2148.0318      2851.9682      2148.0318      2851.9682      3.4881915e+08  0.1            17854980       70.51961       425.40113      4254.008       0.047044438  
  69305000   305.37354     -1.2509187     -43894138       1.7232452      909.35025     -43893229       703.93612      703.93612      703.93612      2148.0319      2851.9681      2148.0319      2851.9681      2148.0319      2851.9681      3.4881869e+08  0.1            17855000       70.566613      425.50578      4255.0609      0            
Loop time of 70.5666 on 1 procs for 300000 steps with 1000 atoms

Performance: 36.731 ns/day, 0.653 hours/ns, 4251.301 timesteps/s
99.8% CPU use with 1 MPI tasks x 1 OpenMP threads

MPI task timing breakdown:
Section |  min time  |  avg time  |  max time  |%varavg| %total
---------------------------------------------------------------
Pair    | 55.457     | 55.457     | 55.457     |   0.0 | 78.59
Neigh   | 0.028569   | 0.028569   | 0.028569   |   0.0 |  0.04
Comm    | 1.9981     | 1.9981     | 1.9981     |   0.0 |  2.83
Output  | 0.053189   | 0.053189   | 0.053189   |   0.0 |  0.08
Modify  | 11.514     | 11.514     | 11.514     |   0.0 | 16.32
Other   |            | 1.516      |            |       |  2.15

Nlocal:           1000 ave        1000 max        1000 min
Histogram: 1 0 0 0 0 0 0 0 0 0
Nghost:           1321 ave        1321 max        1321 min
Histogram: 1 0 0 0 0 0 0 0 0 0
Neighs:           6759 ave        6759 max        6759 min
Histogram: 1 0 0 0 0 0 0 0 0 0

Total # of neighbors = 6759
Ave neighs/atom = 6.759
Neighbor list builds = 40
Dangerous builds = 14

# run_style
run_style verlet

# write restart
write_restart ${write_res}
write_restart ./pgnpmf/37/equpmf99.res
System init for write_restart ...
Generated 0 of 1 mixed pair_coeff terms from geometric mixing rule

Total wall time: 0:02:33
