LAMMPS (23 Jun 2022 - Update 1)
OMP_NUM_THREADS environment is not set. Defaulting to 1 thread. (src/comm.cpp:98)
  using 1 OpenMP thread(s) per MPI task
# Read restart
read_restart ${read_res}
read_restart ./pgnpmf/37/equpmf94.res
Reading restart file ...
  restart file = 23 Jun 2022, LAMMPS = 23 Jun 2022
  restoring atom style atomic from restart
  orthogonal box = (2148.147 2148.147 2148.147) to (2851.853 2851.853 2851.853)
  1 by 1 by 1 MPI processor grid
  restoring pair style table from restart
  1000 atoms
  read_restart CPU = 0.003 seconds

# Settings

pair_style table spline 9941

pair_coeff 1 1 ./pgnpmf/N20.txt DE_GNP 75.6
pair_coeff 2 2 ./pgnpmf/N100.txt DE_GNP 115.92
WARNING: 3 of 9941 force values in table DE_GNP are inconsistent with -dE/dr.
WARNING:  Should only be flagged at inflection points (src/pair_table.cpp:463)
pair_coeff 1 2 ./pgnpmf/mixed_potential.txt DE_GNP 95.66
WARNING: 1562 of 9941 force values in table DE_GNP are inconsistent with -dE/dr.
WARNING:  Should only be flagged at inflection points (src/pair_table.cpp:463)

#Neigh_list Calc Frequency

neigh_modify delay 0 every 1 check yes

# Saving Frequency (50 frames)

variable ts_save equal ${steps_equ}
variable ts_save equal 5000

# Dump
#dump 1 all custom ${ts_save} ./pgnpmf/${folder}/equilibration/trajectory/trajectory_${usic}_${trial}.equ.custom type x y z ix iy iz
#dump_modify 1 first no sort id
#dump 2 all cfg 50000 ./equilibration/trajectory/ovito/dumpgen.tens_*.cfg mass type xs ys zs fx fy fz

# thermo_style
thermo_style custom step temp press pe density ke etotal lx ly lz xlo xhi ylo yhi zlo zhi vol dt time cpu tpcpu spcpu cpuremain

# run info
timestep ${ts}
timestep 0.1
thermo 200

# fix

fix 1 all momentum 1000 linear 1 1 1 angular
variable T equal ${temp}
variable T equal 300
fix 2 all nvt temp ${T} 370000 100.0
fix 2 all nvt temp 300 370000 100.0

run 100000
Generated 0 of 1 mixed pair_coeff terms from geometric mixing rule
Unused restart file global fix info:
  fix style: npt, fix ID: 5
Neighbor list info ...
  update every 1 steps, delay 0 steps, check yes
  max neighbors/atom: 2000, page size: 100000
  master list distance cutoff = 117.92
  ghost atom cutoff = 117.92
  binsize = 58.96, bins = 12 12 12
  1 neighbor lists, perpetual/occasional/extra = 1 0 0
  (1) pair table, perpetual
      attributes: half, newton on
      pair build: half/bin/atomonly/newton
      stencil: half/bin/3d
      bin: standard
Per MPI rank memory allocation (min/avg/max) = 3.114 | 3.114 | 3.114 Mbytes
   Step          Temp          Press          PotEng        Density         KinEng         TotEng           Lx             Ly             Lz            Xlo            Xhi            Ylo            Yhi            Zlo            Zhi           Volume           Dt            Time           CPU           T/CPU          S/CPU         CPULeft    
  65805000   305.14432      0.90733566    -44261704       1.7249357      908.66766     -44260796       703.70609      703.70609      703.70609      2148.147       2851.853       2148.147       2851.853       2148.147       2851.853       3.4847685e+08  0.1            17505000       0              0              0              0            
  65805200   332.21909      0.75535431    -44261771       1.7249357      989.29172     -44260781       703.70609      703.70609      703.70609      2148.147       2851.853       2148.147       2851.853       2148.147       2851.853       3.4847685e+08  0.1            17505020       0.041308554    484.15083      4841.4         20.614339    
  65805400   372.77215      0.60098655    -44261840       1.7249357      1110.0518     -44260730       703.70609      703.70609      703.70609      2148.147       2851.853       2148.147       2851.853       2148.147       2851.853       3.4847685e+08  0.1            17505040       0.082609478    484.25089      4842.5096      20.570397    
  65805600   416.70629      0.43943582    -44261914       1.7249357      1240.8802     -44260674       703.70609      703.70609      703.70609      2148.147       2851.853       2148.147       2851.853       2148.147       2851.853       3.4847685e+08  0.1            17505060       0.12387399     484.6814       4846.7906      20.522204    
  65805800   470.08031      0.27300283    -44261993       1.7249357      1399.8189     -44260593       703.70609      703.70609      703.70609      2148.147       2851.853       2148.147       2851.853       2148.147       2851.853       3.4847685e+08  0.1            17505080       0.16512938     484.78482      4847.8716      20.476325    
  65806000   532.11512      0.10072597    -44262076       1.7249357      1584.548      -44260492       703.70609      703.70609      703.70609      2148.147       2851.853       2148.147       2851.853       2148.147       2851.853       3.4847685e+08  0.1            17505100       0.20645927     483.91139      4839.1144      20.439693    
  65806200   603.56316     -0.076526465   -44262165       1.7249357      1797.308      -44260367       703.70609      703.70609      703.70609      2148.147       2851.853       2148.147       2851.853       2148.147       2851.853       3.4847685e+08  0.1            17505120       0.24774289     484.45399      4844.5479      20.397675    
  65806400   685.24207     -0.25921734    -44262259       1.7249357      2040.5339     -44260218       703.70609      703.70609      703.70609      2148.147       2851.853       2148.147       2851.853       2148.147       2851.853       3.4847685e+08  0.1            17505140       0.28899229     484.85574      4848.5205      20.353491    
  65806600   778.27012     -0.44672053    -44262359       1.7249357      2317.5555     -44260042       703.70609      703.70609      703.70609      2148.147       2851.853       2148.147       2851.853       2148.147       2851.853       3.4847685e+08  0.1            17505160       0.33119268     473.92884      4739.3143      20.36849     
  65806800   883.9596      -0.63835757    -44262466       1.7249357      2632.2807     -44259834       703.70609      703.70609      703.70609      2148.147       2851.853       2148.147       2851.853       2148.147       2851.853       3.4847685e+08  0.1            17505180       0.37245169     484.74085      4847.4221      20.319436    
  65807000   1003.406      -0.83376345    -44262580       1.7249357      2987.9717     -44259593       703.70609      703.70609      703.70609      2148.147       2851.853       2148.147       2851.853       2148.147       2851.853       3.4847685e+08  0.1            17505200       0.41379197     483.79139      4837.9084      20.275918    
  65807200   1138.9126     -1.0316466     -44262702       1.7249357      3391.4873     -44259310       703.70609      703.70609      703.70609      2148.147       2851.853       2148.147       2851.853       2148.147       2851.853       3.4847685e+08  0.1            17505220       0.45501894     485.11962      4851.1867      20.227761    
  65807400   1292.1405     -1.2320023     -44262830       1.7249357      3847.7739     -44258983       703.70609      703.70609      703.70609      2148.147       2851.853       2148.147       2851.853       2148.147       2851.853       3.4847685e+08  0.1            17505240       0.49623915     485.19846      4851.9871      20.180485    
  65807600   1465.2046     -1.4344539     -44262968       1.7249357      4363.1291     -44258605       703.70609      703.70609      703.70609      2148.147       2851.853       2148.147       2851.853       2148.147       2851.853       3.4847685e+08  0.1            17505260       0.53742299     485.62742      4856.2691      20.132779    
  65807800   1660.4571     -1.6389882     -44263114       1.7249357      4944.5576     -44258169       703.70609      703.70609      703.70609      2148.147       2851.853       2148.147       2851.853       2148.147       2851.853       3.4847685e+08  0.1            17505280       0.57866846     484.90175      4849.0225      20.088143    
  65808000   1880.0922     -1.8459243     -44263269       1.7249357      5598.5936     -44257671       703.70609      703.70609      703.70609      2148.147       2851.853       2148.147       2851.853       2148.147       2851.853       3.4847685e+08  0.1            17505300       0.61990596     484.99451      4849.9431      20.043705    
  65808200   2127.6117     -2.0547078     -44263434       1.7249357      6335.6644     -44257098       703.70609      703.70609      703.70609      2148.147       2851.853       2148.147       2851.853       2148.147       2851.853       3.4847685e+08  0.1            17505320       0.67188044     384.80394      3848.0355      20.324461    
  65808400   2405.9346     -2.2661932     -44263609       1.7249357      7164.4624     -44256445       703.70609      703.70609      703.70609      2148.147       2851.853       2148.147       2851.853       2148.147       2851.853       3.4847685e+08  0.1            17505340       0.71314708     484.65157      4846.5325      20.261839    
  65808600   2718.5123     -2.4796376     -44263795       1.7249357      8095.2655     -44255700       703.70609      703.70609      703.70609      2148.147       2851.853       2148.147       2851.853       2148.147       2851.853       3.4847685e+08  0.1            17505360       0.75457651     482.75146      4827.5133      20.205941    
  65808800   3069.0998     -2.6949063     -44263993       1.7249357      9139.255      -44254853       703.70609      703.70609      703.70609      2148.147       2851.853       2148.147       2851.853       2148.147       2851.853       3.4847685e+08  0.1            17505380       0.79591131     483.8523       4838.5237      20.149183    
  65809000   3461.348      -2.9129439     -44264202       1.7249357      10307.303     -44253895       703.70609      703.70609      703.70609      2148.147       2851.853       2148.147       2851.853       2148.147       2851.853       3.4847685e+08  0.1            17505400       0.83716056     484.85771      4848.5663      20.091911    
  65809200   3900.286      -3.2971241     -44266318       1.7249357      11614.386     -44254704       703.70609      703.70609      703.70609      2148.147       2851.853       2148.147       2851.853       2148.147       2851.853       3.4847685e+08  0.1            17505420       0.87839548     485.0267       4850.2686      20.035837    
  65809400   4390.3271     -3.5323216     -44266552       1.7249357      13073.645     -44253478       703.70609      703.70609      703.70609      2148.147       2851.853       2148.147       2851.853       2148.147       2851.853       3.4847685e+08  0.1            17505440       0.91994045     481.40438      4814.0452      19.987851    
  65809600   4936.4237     -3.7948677     -44266799       1.7249357      14699.827     -44252099       703.70609      703.70609      703.70609      2148.147       2851.853       2148.147       2851.853       2148.147       2851.853       3.4847685e+08  0.1            17505460       0.96109263     486.00248      4860.0287      19.932272    
  65809800   5543.808      -4.1095648     -44267060       1.7249357      16508.514     -44250552       703.70609      703.70609      703.70609      2148.147       2851.853       2148.147       2851.853       2148.147       2851.853       3.4847685e+08  0.1            17505480       1.0023482      484.78378      4847.8361      19.87995     
  65810000   6217.5542     -4.6553456     -44269231       1.7249357      18514.815     -44250716       703.70609      703.70609      703.70609      2148.147       2851.853       2148.147       2851.853       2148.147       2851.853       3.4847685e+08  0.1            17505500       1.0435776      485.09015      4850.9069      19.828017    
  65810200   6963.9847     -5.1091772     -44269521       1.7249357      20737.557     -44248784       703.70609      703.70609      703.70609      2148.147       2851.853       2148.147       2851.853       2148.147       2851.853       3.4847685e+08  0.1            17505520       1.0848257      484.87163      4848.7008      19.777249    
  65810400   7788.4849     -5.6262083     -44269829       1.7249357      23192.778     -44246636       703.70609      703.70609      703.70609      2148.147       2851.853       2148.147       2851.853       2148.147       2851.853       3.4847685e+08  0.1            17505540       1.1261862      483.55263      4835.5266      19.729155    
  65810600   8696.5832     -6.1785698     -44270153       1.7249357      25896.94      -44244256       703.70609      703.70609      703.70609      2148.147       2851.853       2148.147       2851.853       2148.147       2851.853       3.4847685e+08  0.1            17505560       1.1674427      484.77292      4847.7398      19.679785    
  65810800   9693.4636     -6.721895      -44270495       1.7249357      28865.479     -44241630       703.70609      703.70609      703.70609      2148.147       2851.853       2148.147       2851.853       2148.147       2851.853       3.4847685e+08  0.1            17505580       1.2086501      485.34909      4853.492       19.630181    
  65811000   10783.365     -6.8408612     -44263478       1.7249357      32111.02      -44231367       703.70609      703.70609      703.70609      2148.147       2851.853       2148.147       2851.853       2148.147       2851.853       3.4847685e+08  0.1            17505600       1.2501142      482.345        4823.4451      19.585161    
  65811200   11970.679     -7.3294007     -44263857       1.7249357      35646.637     -44228210       703.70609      703.70609      703.70609      2148.147       2851.853       2148.147       2851.853       2148.147       2851.853       3.4847685e+08  0.1            17505620       1.291442       483.93585      4839.3643      19.538301    
  65811400   13257.89      -7.8250238     -44264255       1.7249357      39479.732     -44224775       703.70609      703.70609      703.70609      2148.147       2851.853       2148.147       2851.853       2148.147       2851.853       3.4847685e+08  0.1            17505640       1.3336008      474.39723      4743.9632      19.503944    
  65811600   14646.267     -8.2771857     -44264673       1.7249357      43614.082     -44221059       703.70609      703.70609      703.70609      2148.147       2851.853       2148.147       2851.853       2148.147       2851.853       3.4847685e+08  0.1            17505660       1.3749641      483.52092      4835.2144      19.457856    
  65811800   16135.075     -8.6289466     -44265110       1.7249357      48047.497     -44217062       703.70609      703.70609      703.70609      2148.147       2851.853       2148.147       2851.853       2148.147       2851.853       3.4847685e+08  0.1            17505680       1.4162949      483.89634      4838.966       19.411606    
  65812000   17720.777     -8.4892672     -44258189       1.7249357      52769.449     -44205419       703.70609      703.70609      703.70609      2148.147       2851.853       2148.147       2851.853       2148.147       2851.853       3.4847685e+08  0.1            17505700       1.4575602      484.67302      4846.7316      19.364757    
  65812200   19398.143     -8.650888      -44258666       1.7249357      57764.359     -44200901       703.70609      703.70609      703.70609      2148.147       2851.853       2148.147       2851.853       2148.147       2851.853       3.4847685e+08  0.1            17505720       1.498826       484.66153      4846.6232      19.31823     
  65812400   21157.518     -8.8149454     -44259163       1.7249357      63003.476     -44196159       703.70609      703.70609      703.70609      2148.147       2851.853       2148.147       2851.853       2148.147       2851.853       3.4847685e+08  0.1            17505740       1.5400258      485.43753      4854.3643      19.271164    
  65812600   22985.547     -8.9669213     -44259679       1.7249357      68447.033     -44191232       703.70609      703.70609      703.70609      2148.147       2851.853       2148.147       2851.853       2148.147       2851.853       3.4847685e+08  0.1            17505760       1.5813069      484.48567      4844.854       19.225391    
  65812800   24864.44      -8.9172635     -44258320       1.7249357      74042.055     -44184278       703.70609      703.70609      703.70609      2148.147       2851.853       2148.147       2851.853       2148.147       2851.853       3.4847685e+08  0.1            17505780       1.6225233      485.24388      4852.4361      19.179083    
  65813000   26771.127     -9.0840457     -44258875       1.7249357      79719.844     -44179155       703.70609      703.70609      703.70609      2148.147       2851.853       2148.147       2851.853       2148.147       2851.853       3.4847685e+08  0.1            17505800       1.6638156      484.35212      4843.5281      19.133904    
  65813200   28678.502     -9.4120533     -44259445       1.7249357      85399.682     -44174045       703.70609      703.70609      703.70609      2148.147       2851.853       2148.147       2851.853       2148.147       2851.853       3.4847685e+08  0.1            17505820       1.7051291      484.103        4841.0321      19.089153    
  65813400   30553.851     -9.8998041     -44260030       1.7249357      90984.152     -44169046       703.70609      703.70609      703.70609      2148.147       2851.853       2148.147       2851.853       2148.147       2851.853       3.4847685e+08  0.1            17505840       1.7464448      484.0776       4840.7685      19.044589    
  65813600   32360.48      -10.504688     -44260629       1.7249357      96363.983     -44164265       703.70609      703.70609      703.70609      2148.147       2851.853       2148.147       2851.853       2148.147       2851.853       3.4847685e+08  0.1            17505860       1.7881241      479.8543       4798.5461      19.00404     
  65813800   34058.132     -11.132503     -44261241       1.7249357      101419.3      -44159822       703.70609      703.70609      703.70609      2148.147       2851.853       2148.147       2851.853       2148.147       2851.853       3.4847685e+08  0.1            17505880       1.8293608      485.00471      4850.0551      18.958853    
  65814000   35604.373     -11.783123     -44261864       1.7249357      106023.74     -44155840       703.70609      703.70609      703.70609      2148.147       2851.853       2148.147       2851.853       2148.147       2851.853       3.4847685e+08  0.1            17505900       1.8706664      484.19498      4841.9451      18.914538    
  65814200   36958.726     -12.517717     -44262495       1.7249357      110056.78     -44152439       703.70609      703.70609      703.70609      2148.147       2851.853       2148.147       2851.853       2148.147       2851.853       3.4847685e+08  0.1            17505920       1.9118231      485.94842      4859.4782      18.868885    
  65814400   38084.456     -13.259478     -44263134       1.7249357      113409.01     -44149725       703.70609      703.70609      703.70609      2148.147       2851.853       2148.147       2851.853       2148.147       2851.853       3.4847685e+08  0.1            17505940       1.9529801      485.94413      4859.443       18.823425    
  65814600   38954.579     -13.94865      -44263777       1.7249357      116000.08     -44147777       703.70609      703.70609      703.70609      2148.147       2851.853       2148.147       2851.853       2148.147       2851.853       3.4847685e+08  0.1            17505960       1.9942057      485.13517      4851.3573      18.778791    
  65814800   39557.829     -14.804777     -44264421       1.7249357      117796.46     -44146624       703.70609      703.70609      703.70609      2148.147       2851.853       2148.147       2851.853       2148.147       2851.853       3.4847685e+08  0.1            17505980       2.0361823      476.4561       4764.5473      18.741209    
  65815000   39903.337     -16.096983     -44266958       1.7249357      118825.32     -44148133       703.70609      703.70609      703.70609      2148.147       2851.853       2148.147       2851.853       2148.147       2851.853       3.4847685e+08  0.1            17506000       2.0773922      485.32089      4853.2123      18.69655     
  65815200   40024.087     -17.378168     -44267595       1.7249357      119184.9      -44148411       703.70609      703.70609      703.70609      2148.147       2851.853       2148.147       2851.853       2148.147       2851.853       3.4847685e+08  0.1            17506020       2.1185345      486.11824      4861.1949      18.65143     
  65815400   39974.004     -18.610577     -44268227       1.7249357      119035.76     -44149191       703.70609      703.70609      703.70609      2148.147       2851.853       2148.147       2851.853       2148.147       2851.853       3.4847685e+08  0.1            17506040       2.159673       486.1615       4861.5997      18.606434    
  65815600   39822.43      -19.86422      -44268851       1.7249357      118584.4      -44150267       703.70609      703.70609      703.70609      2148.147       2851.853       2148.147       2851.853       2148.147       2851.853       3.4847685e+08  0.1            17506060       2.2008743      485.42239      4854.2287      18.56211     
  65815800   39644.482     -21.267427     -44269471       1.7249357      118054.5      -44151416       703.70609      703.70609      703.70609      2148.147       2851.853       2148.147       2851.853       2148.147       2851.853       3.4847685e+08  0.1            17506080       2.2420525      485.69179      4856.9267      18.517712    
  65816000   39512.391     -22.608117     -44268191       1.7249357      117661.15     -44150530       703.70609      703.70609      703.70609      2148.147       2851.853       2148.147       2851.853       2148.147       2851.853       3.4847685e+08  0.1            17506100       2.2832812      485.10041      4851.0113      18.473838    
  65816200   39491.221     -24.377289     -44276179       1.7249357      117598.11     -44158581       703.70609      703.70609      703.70609      2148.147       2851.853       2148.147       2851.853       2148.147       2851.853       3.4847685e+08  0.1            17506120       2.3254389      474.40874      4744.0755      18.437429    
  65816400   39634.955     -25.567329     -44276785       1.7249357      118026.13     -44158759       703.70609      703.70609      703.70609      2148.147       2851.853       2148.147       2851.853       2148.147       2851.853       3.4847685e+08  0.1            17506140       2.3666476      485.33474      4853.346       18.393437    
  65816600   39986.339     -26.609684     -44277386       1.7249357      119072.49     -44158313       703.70609      703.70609      703.70609      2148.147       2851.853       2148.147       2851.853       2148.147       2851.853       3.4847685e+08  0.1            17506160       2.4078514      485.39232      4853.9283      18.349505    
  65816800   40575.897     -27.478583     -44277984       1.7249357      120828.09     -44157156       703.70609      703.70609      703.70609      2148.147       2851.853       2148.147       2851.853       2148.147       2851.853       3.4847685e+08  0.1            17506180       2.4490043      485.99249      4859.9264      18.305286    
  65817000   41417.559     -28.118613     -44278582       1.7249357      123334.42     -44155247       703.70609      703.70609      703.70609      2148.147       2851.853       2148.147       2851.853       2148.147       2851.853       3.4847685e+08  0.1            17506200       2.4902559      484.8295       4847.6541      18.261933    
  65817200   42506.06      -28.597711     -44279181       1.7249357      126575.79     -44152605       703.70609      703.70609      703.70609      2148.147       2851.853       2148.147       2851.853       2148.147       2851.853       3.4847685e+08  0.1            17506220       2.5314577      485.41511      4854.7896      18.218212    
  65817400   43814.356     -28.777483     -44277889       1.7249357      130471.67     -44147418       703.70609      703.70609      703.70609      2148.147       2851.853       2148.147       2851.853       2148.147       2851.853       3.4847685e+08  0.1            17506240       2.5727178      484.7303       4847.3128      18.175021    
  65817600   45295.664     -28.662267     -44271119       1.7249357      134882.75     -44136236       703.70609      703.70609      703.70609      2148.147       2851.853       2148.147       2851.853       2148.147       2851.853       3.4847685e+08  0.1            17506260       2.6138898      485.76704      4857.6592      18.131283    
  65817800   46888.787     -29.046693     -44271729       1.7249357      139626.8      -44132102       703.70609      703.70609      703.70609      2148.147       2851.853       2148.147       2851.853       2148.147       2851.853       3.4847685e+08  0.1            17506280       2.6551726      484.46298      4844.6296      18.088379    
  65818000   48525.52      -29.709301     -44273868       1.7249357      144500.71     -44129367       703.70609      703.70609      703.70609      2148.147       2851.853       2148.147       2851.853       2148.147       2851.853       3.4847685e+08  0.1            17506300       2.6964828      484.14206      4841.4255      18.045707    
  65818200   50138.218     -30.327262     -44274486       1.7249357      149303.05     -44125182       703.70609      703.70609      703.70609      2148.147       2851.853       2148.147       2851.853       2148.147       2851.853       3.4847685e+08  0.1            17506320       2.7376973      485.2661       4852.6574      18.002448    
  65818400   51660.888     -30.911566     -44277003       1.7249357      153837.3      -44123165       703.70609      703.70609      703.70609      2148.147       2851.853       2148.147       2851.853       2148.147       2851.853       3.4847685e+08  0.1            17506340       2.7789658      484.62216      4846.2087      17.959605    
  65818600   53033.695     -31.174878     -44277626       1.7249357      157925.29     -44119701       703.70609      703.70609      703.70609      2148.147       2851.853       2148.147       2851.853       2148.147       2851.853       3.4847685e+08  0.1            17506360       2.8201452      485.68858      4856.8959      17.916231    
  65818800   54206.924     -31.515381     -44278250       1.7249357      161418.96     -44116831       703.70609      703.70609      703.70609      2148.147       2851.853       2148.147       2851.853       2148.147       2851.853       3.4847685e+08  0.1            17506380       2.8614298      484.44214      4844.4328      17.873582    
  65819000   55144.614     -32.074596     -44280767       1.7249357      164211.24     -44116556       703.70609      703.70609      703.70609      2148.147       2851.853       2148.147       2851.853       2148.147       2851.853       3.4847685e+08  0.1            17506400       2.9030798      480.1921       4801.914       17.833219    
  65819200   55828.422     -32.76976      -44281387       1.7249357      166247.51     -44115140       703.70609      703.70609      703.70609      2148.147       2851.853       2148.147       2851.853       2148.147       2851.853       3.4847685e+08  0.1            17506420       2.9450227      476.83827      4768.3761      17.794588    
  65819400   56259.686     -34.261849     -44289379       1.7249357      167531.74     -44121847       703.70609      703.70609      703.70609      2148.147       2851.853       2148.147       2851.853       2148.147       2851.853       3.4847685e+08  0.1            17506440       2.9861734      486.01963      4860.2055      17.751155    
  65819600   56462.522     -35.486167     -44289986       1.7249357      168135.75     -44121851       703.70609      703.70609      703.70609      2148.147       2851.853       2148.147       2851.853       2148.147       2851.853       3.4847685e+08  0.1            17506460       3.0273435      485.78864      4857.8861      17.707899    
  65819800   56481.31      -36.157235     -44283206       1.7249357      168191.7      -44115014       703.70609      703.70609      703.70609      2148.147       2851.853       2148.147       2851.853       2148.147       2851.853       3.4847685e+08  0.1            17506480       3.0700093      468.75959      4687.588       17.67331     
  65820000   56377.194     -37.224199     -44283795       1.7249357      167881.66     -44115913       703.70609      703.70609      703.70609      2148.147       2851.853       2148.147       2851.853       2148.147       2851.853       3.4847685e+08  0.1            17506500       3.1111759      485.82974      4858.2981      17.630011    
  65820200   56221.371     -38.399414     -44284377       1.7249357      167417.64     -44116959       703.70609      703.70609      703.70609      2148.147       2851.853       2148.147       2851.853       2148.147       2851.853       3.4847685e+08  0.1            17506520       3.1523062      486.26086      4862.619       17.586563    
  65820400   56085.233     -40.156177     -44292329       1.7249357      167012.25     -44125316       703.70609      703.70609      703.70609      2148.147       2851.853       2148.147       2851.853       2148.147       2851.853       3.4847685e+08  0.1            17506540       3.193581       484.55617      4845.558       17.54397     
  65820600   56035.89      -41.637917     -44293263       1.7249357      166865.31     -44126398       703.70609      703.70609      703.70609      2148.147       2851.853       2148.147       2851.853       2148.147       2851.853       3.4847685e+08  0.1            17506560       3.234736       485.96973      4859.6918      17.500763    
  65820800   56132.723     -42.508998     -44286444       1.7249357      167153.66     -44119290       703.70609      703.70609      703.70609      2148.147       2851.853       2148.147       2851.853       2148.147       2851.853       3.4847685e+08  0.1            17506580       3.2758832      486.05868      4860.5916      17.457567    
  65821000   56423.224     -43.579807     -44286996       1.7249357      168018.73     -44118977       703.70609      703.70609      703.70609      2148.147       2851.853       2148.147       2851.853       2148.147       2851.853       3.4847685e+08  0.1            17506600       3.3180265      474.57184      4745.7112      17.419651    
  65821200   56942.107     -44.425774     -44287540       1.7249357      169563.87     -44117976       703.70609      703.70609      703.70609      2148.147       2851.853       2148.147       2851.853       2148.147       2851.853       3.4847685e+08  0.1            17506620       3.3591967      485.78836      4857.8841      17.376599    
  65821400   57708.141     -44.959255     -44288076       1.7249357      171844.99     -44116231       703.70609      703.70609      703.70609      2148.147       2851.853       2148.147       2851.853       2148.147       2851.853       3.4847685e+08  0.1            17506640       3.4003479      486.01174      4860.1212      17.333492    
  65821600   58722.745     -45.325825     -44290503       1.7249357      174866.31     -44115637       703.70609      703.70609      703.70609      2148.147       2851.853       2148.147       2851.853       2148.147       2851.853       3.4847685e+08  0.1            17506660       3.4414335      486.78863      4867.8939      17.290105    
  65821800   59967.119     -45.290169     -44291032       1.7249357      178571.84     -44112460       703.70609      703.70609      703.70609      2148.147       2851.853       2148.147       2851.853       2148.147       2851.853       3.4847685e+08  0.1            17506680       3.4828981      482.33717      4823.3735      17.24865     
  65822000   61402.199     -45.124785     -44291557       1.7249357      182845.26     -44108712       703.70609      703.70609      703.70609      2148.147       2851.853       2148.147       2851.853       2148.147       2851.853       3.4847685e+08  0.1            17506700       3.5249522      475.58052      4755.787       17.210072    
  65822200   62973.315     -44.825334     -44292078       1.7249357      187523.78     -44104555       703.70609      703.70609      703.70609      2148.147       2851.853       2148.147       2851.853       2148.147       2851.853       3.4847685e+08  0.1            17506720       3.5660688      486.42019      4864.2209      17.1669      
  65822400   64613.973     -44.630975     -44294489       1.7249357      192409.38     -44102079       703.70609      703.70609      703.70609      2148.147       2851.853       2148.147       2851.853       2148.147       2851.853       3.4847685e+08  0.1            17506740       3.6072899      485.18941      4851.8925      17.124271    
  65822600   66253.511     -44.735831     -44296896       1.7249357      197291.64     -44099604       703.70609      703.70609      703.70609      2148.147       2851.853       2148.147       2851.853       2148.147       2851.853       3.4847685e+08  0.1            17506760       3.6484603      485.7855       4857.8484      17.081439    
  65822800   67821.966     -45.021321     -44297406       1.7249357      201962.23     -44095444       703.70609      703.70609      703.70609      2148.147       2851.853       2148.147       2851.853       2148.147       2851.853       3.4847685e+08  0.1            17506780       3.6896966      485.00904      4850.0914      17.038947    
  65823000   69253.594     -45.478368     -44297915       1.7249357      206225.38     -44091690       703.70609      703.70609      703.70609      2148.147       2851.853       2148.147       2851.853       2148.147       2851.853       3.4847685e+08  0.1            17506800       3.7316534      476.6813       4766.8077      16.999765    
  65823200   70492.263     -45.879206     -44298418       1.7249357      209913.92     -44088504       703.70609      703.70609      703.70609      2148.147       2851.853       2148.147       2851.853       2148.147       2851.853       3.4847685e+08  0.1            17506820       3.7728883      485.02508      4850.255       16.957278    
  65823400   71495.491     -46.014241     -44298914       1.7249357      212901.36     -44086012       703.70609      703.70609      703.70609      2148.147       2851.853       2148.147       2851.853       2148.147       2851.853       3.4847685e+08  0.1            17506840       3.814005       486.42038      4864.2016      16.914294    
  65823600   72238.638     -45.950677     -44299399       1.7249357      215114.33     -44084285       703.70609      703.70609      703.70609      2148.147       2851.853       2148.147       2851.853       2148.147       2851.853       3.4847685e+08  0.1            17506860       3.8550872      486.8296       4868.2919      16.871198    
  65823800   72718.073     -46.072994     -44299872       1.7249357      216542        -44083330       703.70609      703.70609      703.70609      2148.147       2851.853       2148.147       2851.853       2148.147       2851.853       3.4847685e+08  0.1            17506880       3.8961888      486.59916      4866.0065      16.828229    
  65824000   72953.881     -46.501018     -44300333       1.7249357      217244.2      -44083089       703.70609      703.70609      703.70609      2148.147       2851.853       2148.147       2851.853       2148.147       2851.853       3.4847685e+08  0.1            17506900       3.937339       486.02418      4860.234       16.785508    
  65824200   72989.085     -47.0296       -44300786       1.7249357      217349.03     -44083437       703.70609      703.70609      703.70609      2148.147       2851.853       2148.147       2851.853       2148.147       2851.853       3.4847685e+08  0.1            17506920       3.978542       485.40118      4854.0227      16.74304     
  65824400   72882.312     -47.337359     -44299336       1.7249357      217031.08     -44082305       703.70609      703.70609      703.70609      2148.147       2851.853       2148.147       2851.853       2148.147       2851.853       3.4847685e+08  0.1            17506940       4.0196972      485.96478      4859.6497      16.700401    
  65824600   72702.525     -47.973469     -44299769       1.7249357      216495.71     -44083274       703.70609      703.70609      703.70609      2148.147       2851.853       2148.147       2851.853       2148.147       2851.853       3.4847685e+08  0.1            17506960       4.0608836      485.59807      4855.9798      16.657919    
  65824800   72523.54      -48.318738     -44298296       1.7249357      215962.72     -44082333       703.70609      703.70609      703.70609      2148.147       2851.853       2148.147       2851.853       2148.147       2851.853       3.4847685e+08  0.1            17506980       4.102005       486.36482      4863.6352      16.615201    
  65825000   72417.366     -48.459102     -44296812       1.7249357      215646.55     -44081165       703.70609      703.70609      703.70609      2148.147       2851.853       2148.147       2851.853       2148.147       2851.853       3.4847685e+08  0.1            17507000       4.1431867      485.65363      4856.5131      16.572756    
  65825200   72448.42      -48.635809     -44295316       1.7249357      215739.02     -44079577       703.70609      703.70609      703.70609      2148.147       2851.853       2148.147       2851.853       2148.147       2851.853       3.4847685e+08  0.1            17507020       4.184321       486.21089      4862.1431      16.530148    
  65825400   72669.513     -48.894457     -44288322       1.7249357      216397.4      -44071925       703.70609      703.70609      703.70609      2148.147       2851.853       2148.147       2851.853       2148.147       2851.853       3.4847685e+08  0.1            17507040       4.2254586      486.17481      4861.7445      16.487582    
  65825600   73120.913     -50.122942     -44296072       1.7249357      217741.59     -44078331       703.70609      703.70609      703.70609      2148.147       2851.853       2148.147       2851.853       2148.147       2851.853       3.4847685e+08  0.1            17507060       4.2666357      485.70477      4857.0512      16.445197    
  65825800   73826.801     -50.726835     -44296434       1.7249357      219843.61     -44076590       703.70609      703.70609      703.70609      2148.147       2851.853       2148.147       2851.853       2148.147       2851.853       3.4847685e+08  0.1            17507080       4.3086909      475.56604      4755.6531      16.406178    
  65826000   74792.636     -50.888171     -44296787       1.7249357      222719.7      -44074068       703.70609      703.70609      703.70609      2148.147       2851.853       2148.147       2851.853       2148.147       2851.853       3.4847685e+08  0.1            17507100       4.3498068      486.42989      4864.2992      16.363568    
  65826200   76003.929     -51.574162     -44311889       1.7249357      226326.72     -44085562       703.70609      703.70609      703.70609      2148.147       2851.853       2148.147       2851.853       2148.147       2851.853       3.4847685e+08  0.1            17507120       4.3909766      485.79386      4857.9416      16.321185    
  65826400   77425.815     -51.265396     -44312229       1.7249357      230560.86     -44081668       703.70609      703.70609      703.70609      2148.147       2851.853       2148.147       2851.853       2148.147       2851.853       3.4847685e+08  0.1            17507140       4.4320476      486.96103      4869.6074      16.278464    
  65826600   79005.298     -51.107353     -44312564       1.7249357      235264.29     -44077300       703.70609      703.70609      703.70609      2148.147       2851.853       2148.147       2851.853       2148.147       2851.853       3.4847685e+08  0.1            17507160       4.474128       475.2789       4752.7837      16.239437    
  65826800   80675.28      -51.070041     -44313260       1.7249357      240237.21     -44073023       703.70609      703.70609      703.70609      2148.147       2851.853       2148.147       2851.853       2148.147       2851.853       3.4847685e+08  0.1            17507180       4.5151854      487.12499      4871.2556      16.196682    
  65827000   82360.931     -50.573282     -44311683       1.7249357      245256.79     -44066426       703.70609      703.70609      703.70609      2148.147       2851.853       2148.147       2851.853       2148.147       2851.853       3.4847685e+08  0.1            17507200       4.5563607      485.72812      4857.2759      16.154378    
  65827200   83987.885     -50.148957     -44311989       1.7249357      250101.58     -44061887       703.70609      703.70609      703.70609      2148.147       2851.853       2148.147       2851.853       2148.147       2851.853       3.4847685e+08  0.1            17507220       4.597511       486.01866      4860.1922      16.112007    
  65827400   85485.804     -49.584437     -44312287       1.7249357      254562.13     -44057725       703.70609      703.70609      703.70609      2148.147       2851.853       2148.147       2851.853       2148.147       2851.853       3.4847685e+08  0.1            17507240       4.6386394      486.28603      4862.8552      16.06958     
  65827600   86792.513     -48.971517     -44312573       1.7249357      258453.28     -44054120       703.70609      703.70609      703.70609      2148.147       2851.853       2148.147       2851.853       2148.147       2851.853       3.4847685e+08  0.1            17507260       4.6800014      483.53644      4835.3735      16.027977    
  65827800   87860.632     -48.938211     -44320223       1.7249357      261633.96     -44058589       703.70609      703.70609      703.70609      2148.147       2851.853       2148.147       2851.853       2148.147       2851.853       3.4847685e+08  0.1            17507280       4.7216133      480.63074      4806.2967      15.987225    
  65828000   88662.582     -49.122257     -44320487       1.7249357      264022.03     -44056465       703.70609      703.70609      703.70609      2148.147       2851.853       2148.147       2851.853       2148.147       2851.853       3.4847685e+08  0.1            17507300       4.7628161      485.40453      4854.0408      15.945088    
  65828200   89191.63      -49.930801     -44324532       1.7249357      265597.45     -44058935       703.70609      703.70609      703.70609      2148.147       2851.853       2148.147       2851.853       2148.147       2851.853       3.4847685e+08  0.1            17507320       4.8039295      486.45834      4864.5957      15.902671    
  65828400   89461.812     -49.3598       -44308124       1.7249357      266402        -44041722       703.70609      703.70609      703.70609      2148.147       2851.853       2148.147       2851.853       2148.147       2851.853       3.4847685e+08  0.1            17507340       4.8450119      486.82719      4868.2624      15.860175    
  65828600   89510.691     -49.042133     -44300974       1.7249357      266547.55     -44034426       703.70609      703.70609      703.70609      2148.147       2851.853       2148.147       2851.853       2148.147       2851.853       3.4847685e+08  0.1            17507360       4.8860902      486.87484      4868.7527      15.817689    
  65828800   89396.262     -48.405212     -44293812       1.7249357      266206.8      -44027605       703.70609      703.70609      703.70609      2148.147       2851.853       2148.147       2851.853       2148.147       2851.853       3.4847685e+08  0.1            17507380       4.9272092      486.39397      4863.9477      15.775357    
  65829000   89188         -47.714729     -44288532       1.7249357      265586.63     -44022945       703.70609      703.70609      703.70609      2148.147       2851.853       2148.147       2851.853       2148.147       2851.853       3.4847685e+08  0.1            17507400       4.9684019      485.52292      4855.2319      15.73328     
  65829200   88963.061     -47.188441     -44281345       1.7249357      264916.81     -44016428       703.70609      703.70609      703.70609      2148.147       2851.853       2148.147       2851.853       2148.147       2851.853       3.4847685e+08  0.1            17507420       5.0095214      486.38643      4863.8534      15.690988    
  65829400   88798.243     -47.254389     -44281526       1.7249357      264426.01     -44017100       703.70609      703.70609      703.70609      2148.147       2851.853       2148.147       2851.853       2148.147       2851.853       3.4847685e+08  0.1            17507440       5.0506393      486.40725      4864.0731      15.648709    
  65829600   88763.405     -47.264437     -44290972       1.7249357      264322.26     -44026649       703.70609      703.70609      703.70609      2148.147       2851.853       2148.147       2851.853       2148.147       2851.853       3.4847685e+08  0.1            17507460       5.0918158      485.712        4857.1231      15.60663     
  65829800   88916.736     -46.281098     -44291133       1.7249357      264778.85     -44026354       703.70609      703.70609      703.70609      2148.147       2851.853       2148.147       2851.853       2148.147       2851.853       3.4847685e+08  0.1            17507480       5.1329097      486.69152      4866.9106      15.564314    
  65830000   89301.866     -45.669182     -44291278       1.7249357      265925.71     -44025352       703.70609      703.70609      703.70609      2148.147       2851.853       2148.147       2851.853       2148.147       2851.853       3.4847685e+08  0.1            17507500       5.1741276      485.22493      4852.249       15.52239     
  65830200   89948.146     -45.308706     -44291409       1.7249357      267850.22     -44023559       703.70609      703.70609      703.70609      2148.147       2851.853       2148.147       2851.853       2148.147       2851.853       3.4847685e+08  0.1            17507520       5.2160821      476.70773      4767.0787      15.482663    
  65830400   90865.568     -44.753975     -44284150       1.7249357      270582.15     -44013568       703.70609      703.70609      703.70609      2148.147       2851.853       2148.147       2851.853       2148.147       2851.853       3.4847685e+08  0.1            17507540       5.2572699      485.58207      4855.8146      15.44065     
  65830600   92043.066     -44.011089     -44276513       1.7249357      274088.53     -44002424       703.70609      703.70609      703.70609      2148.147       2851.853       2148.147       2851.853       2148.147       2851.853       3.4847685e+08  0.1            17507560       5.2984124      486.11416      4861.1429      15.398518    
  65830800   93448.231     -43.333146     -44276612       1.7249357      278272.87     -43998339       703.70609      703.70609      703.70609      2148.147       2851.853       2148.147       2851.853       2148.147       2851.853       3.4847685e+08  0.1            17507580       5.3404651      475.59406      4755.9422      15.359019    
  65831000   95029.361     -42.502765     -44284079       1.7249357      282981.21     -44001098       703.70609      703.70609      703.70609      2148.147       2851.853       2148.147       2851.853       2148.147       2851.853       3.4847685e+08  0.1            17507600       5.3817193      484.79924      4847.9942      15.317208    
  65831200   96720.704     -41.332323     -44291170       1.7249357      288017.74     -44003152       703.70609      703.70609      703.70609      2148.147       2851.853       2148.147       2851.853       2148.147       2851.853       3.4847685e+08  0.1            17507620       5.4227878      486.9911       4869.918       15.274882    
  65831400   98445.993     -40.176596     -44283861       1.7249357      293155.36     -43990706       703.70609      703.70609      703.70609      2148.147       2851.853       2148.147       2851.853       2148.147       2851.853       3.4847685e+08  0.1            17507640       5.4639045      486.42012      4864.1983      15.23271     
  65831600   100127.13     -40.101872     -44283920       1.7249357      298161.49     -43985759       703.70609      703.70609      703.70609      2148.147       2851.853       2148.147       2851.853       2148.147       2851.853       3.4847685e+08  0.1            17507660       5.5050876      485.63648      4856.3675      15.190736    
  65831800   101689.65     -39.61736      -44283970       1.7249357      302814.4      -43981156       703.70609      703.70609      703.70609      2148.147       2851.853       2148.147       2851.853       2148.147       2851.853       3.4847685e+08  0.1            17507680       5.5462151      486.29206      4862.9245      15.148623    
  65832000   103066.64     -38.6716       -44284010       1.7249357      306914.84     -43977095       703.70609      703.70609      703.70609      2148.147       2851.853       2148.147       2851.853       2148.147       2851.853       3.4847685e+08  0.1            17507700       5.5874086      485.5142       4855.1256      15.106704    
  65832200   104206.16     -37.976095     -44291047       1.7249357      310308.16     -43980739       703.70609      703.70609      703.70609      2148.147       2851.853       2148.147       2851.853       2148.147       2851.853       3.4847685e+08  0.1            17507720       5.6286163      485.3456       4853.4669      15.064832    
  65832400   105073.27     -37.16396      -44291061       1.7249357      312890.26     -43978171       703.70609      703.70609      703.70609      2148.147       2851.853       2148.147       2851.853       2148.147       2851.853       3.4847685e+08  0.1            17507740       5.6697138      486.64917      4866.4932      15.022678    
  65832600   105655.09     -36.481566     -44289165       1.7249357      314622.8      -43974542       703.70609      703.70609      703.70609      2148.147       2851.853       2148.147       2851.853       2148.147       2851.853       3.4847685e+08  0.1            17507760       5.7107459      487.42201      4874.2269      14.980368    
  65832800   105962.89     -35.909551     -44287254       1.7249357      315539.39     -43971714       703.70609      703.70609      703.70609      2148.147       2851.853       2148.147       2851.853       2148.147       2851.853       3.4847685e+08  0.1            17507780       5.7519317      485.60361      4856.0344      14.938476    
  65833000   106030.7      -35.484533     -44287222       1.7249357      315741.33     -43971480       703.70609      703.70609      703.70609      2148.147       2851.853       2148.147       2851.853       2148.147       2851.853       3.4847685e+08  0.1            17507800       5.7932299      484.28358      4842.8337      14.896882    
  65833200   105914.48     -35.027422     -44287176       1.7249357      315395.22     -43971781       703.70609      703.70609      703.70609      2148.147       2851.853       2148.147       2851.853       2148.147       2851.853       3.4847685e+08  0.1            17507820       5.8344506      485.1935       4851.9202      14.855097    
  65833400   105683.45     -34.38497      -44287115       1.7249357      314707.25     -43972408       703.70609      703.70609      703.70609      2148.147       2851.853       2148.147       2851.853       2148.147       2851.853       3.4847685e+08  0.1            17507840       5.8755554      486.56184      4865.6234      14.813025    
  65833600   105416.11     -33.238164     -44279660       1.7249357      313911.16     -43965749       703.70609      703.70609      703.70609      2148.147       2851.853       2148.147       2851.853       2148.147       2851.853       3.4847685e+08  0.1            17507860       5.9165919      487.36961      4873.6985      14.770798    
  65833800   105194.35     -32.383836     -44279575       1.7249357      313250.8      -43966324       703.70609      703.70609      703.70609      2148.147       2851.853       2148.147       2851.853       2148.147       2851.853       3.4847685e+08  0.1            17507880       5.9578265      485.02952      4850.2928      14.729077    
  65834000   105092.36     -31.543236     -44279478       1.7249357      312947.12     -43966531       703.70609      703.70609      703.70609      2148.147       2851.853       2148.147       2851.853       2148.147       2851.853       3.4847685e+08  0.1            17507900       5.9997246      477.34737      4773.4775      14.688987    
  65834200   105175.57     -31.030087     -44286749       1.7249357      313194.88     -43973554       703.70609      703.70609      703.70609      2148.147       2851.853       2148.147       2851.853       2148.147       2851.853       3.4847685e+08  0.1            17507920       6.0408173      486.70465      4867.0438      14.646919    
  65834400   105494.64     -30.232268     -44288528       1.7249357      314145.03     -43974383       703.70609      703.70609      703.70609      2148.147       2851.853       2148.147       2851.853       2148.147       2851.853       3.4847685e+08  0.1            17507940       6.0818898      486.94436      4869.4518      14.604816    
  65834600   106082.67     -29.101114     -44286507       1.7249357      315896.07     -43970611       703.70609      703.70609      703.70609      2148.147       2851.853       2148.147       2851.853       2148.147       2851.853       3.4847685e+08  0.1            17507960       6.1229336      487.28568      4872.8556      14.562658    
  65834800   106952.79     -28.16737      -44286369       1.7249357      318487.14     -43967882       703.70609      703.70609      703.70609      2148.147       2851.853       2148.147       2851.853       2148.147       2851.853       3.4847685e+08  0.1            17507980       6.1640606      486.29836      4862.9861      14.520711    
  65835000   108097.01     -27.1519       -44285853       1.7249357      321894.43     -43963959       703.70609      703.70609      703.70609      2148.147       2851.853       2148.147       2851.853       2148.147       2851.853       3.4847685e+08  0.1            17508000       6.2051498      486.74506      4867.4497      14.478688    
  65835200   109486.69     -26.105751     -44287593       1.7249357      326032.67     -43961560       703.70609      703.70609      703.70609      2148.147       2851.853       2148.147       2851.853       2148.147       2851.853       3.4847685e+08  0.1            17508020       6.2463229      485.75437      4857.5385      14.436871    
  65835400   111070.1      -24.303186     -44287426       1.7249357      330747.78     -43956678       703.70609      703.70609      703.70609      2148.147       2851.853       2148.147       2851.853       2148.147       2851.853       3.4847685e+08  0.1            17508040       6.2873424      487.57346      4875.7374      14.39471     
  65835600   112780.55     -22.766801     -44287248       1.7249357      335841.21     -43951407       703.70609      703.70609      703.70609      2148.147       2851.853       2148.147       2851.853       2148.147       2851.853       3.4847685e+08  0.1            17508060       6.3296997      472.17338      4721.7241      14.355599    
  65835800   114539.69     -21.604817     -44287054       1.7249357      341079.63     -43945975       703.70609      703.70609      703.70609      2148.147       2851.853       2148.147       2851.853       2148.147       2851.853       3.4847685e+08  0.1            17508080       6.3707278      487.46976      4874.7034      14.313458    
  65836000   116265.33     -19.876158     -44279464       1.7249357      346218.3      -43933246       703.70609      703.70609      703.70609      2148.147       2851.853       2148.147       2851.853       2148.147       2851.853       3.4847685e+08  0.1            17508100       6.4117672      487.33746      4873.3717      14.271358    
  65836200   117880.52     -18.101267     -44275446       1.7249357      351028.07     -43924418       703.70609      703.70609      703.70609      2148.147       2851.853       2148.147       2851.853       2148.147       2851.853       3.4847685e+08  0.1            17508120       6.4528419      486.91714      4869.1756      14.229349    
  65836400   119316.46     -17.207452     -44282585       1.7249357      355304.04     -43927281       703.70609      703.70609      703.70609      2148.147       2851.853       2148.147       2851.853       2148.147       2851.853       3.4847685e+08  0.1            17508140       6.4939033      487.07454      4870.7474      14.187322    
  65836600   120516.11     -16.157998     -44282334       1.7249357      358876.4      -43923457       703.70609      703.70609      703.70609      2148.147       2851.853       2148.147       2851.853       2148.147       2851.853       3.4847685e+08  0.1            17508160       6.5350493      486.07396      4860.7433      14.145491    
  65836800   121441.11     -15.960762     -44291342       1.7249357      361630.88     -43929711       703.70609      703.70609      703.70609      2148.147       2851.853       2148.147       2851.853       2148.147       2851.853       3.4847685e+08  0.1            17508180       6.5760674      487.5899       4875.894       14.103395    
  65837000   122074.79     -15.342131     -44296549       1.7249357      363517.89     -43933031       703.70609      703.70609      703.70609      2148.147       2851.853       2148.147       2851.853       2148.147       2851.853       3.4847685e+08  0.1            17508200       6.6172019      486.21077      4862.1076      14.061559    
  65837200   122424.47     -14.197813     -44296261       1.7249357      364559.17     -43931701       703.70609      703.70609      703.70609      2148.147       2851.853       2148.147       2851.853       2148.147       2851.853       3.4847685e+08  0.1            17508220       6.6581618      488.28321      4882.8332      14.019364    
  65837400   122521.69     -12.283634     -44286690       1.7249357      364848.67     -43921842       703.70609      703.70609      703.70609      2148.147       2851.853       2148.147       2851.853       2148.147       2851.853       3.4847685e+08  0.1            17508240       6.699231       486.98124      4869.8138      13.977413    
  65837600   122419.85     -11.537459     -44293765       1.7249357      364545.4      -43929220       703.70609      703.70609      703.70609      2148.147       2851.853       2148.147       2851.853       2148.147       2851.853       3.4847685e+08  0.1            17508260       6.7410975      477.71033      4777.1024      13.93712     
  65837800   122186.31     -10.594316     -44293454       1.7249357      363849.96     -43929604       703.70609      703.70609      703.70609      2148.147       2851.853       2148.147       2851.853       2148.147       2851.853       3.4847685e+08  0.1            17508280       6.7821756      486.87644      4868.7444      13.895194    
  65838000   121898.78     -10.553065     -44309782       1.7249357      362993.76     -43946789       703.70609      703.70609      703.70609      2148.147       2851.853       2148.147       2851.853       2148.147       2851.853       3.4847685e+08  0.1            17508300       6.8232464      486.96501      4869.6705      13.853262    
  65838200   121639.57     -9.1773601     -44302071       1.7249357      362221.87     -43939849       703.70609      703.70609      703.70609      2148.147       2851.853       2148.147       2851.853       2148.147       2851.853       3.4847685e+08  0.1            17508320       6.8642301      487.99848      4879.9873      13.811166    
  65838400   121485.53     -8.1139554     -44301723       1.7249357      361763.17     -43939960       703.70609      703.70609      703.70609      2148.147       2851.853       2148.147       2851.853       2148.147       2851.853       3.4847685e+08  0.1            17508340       6.9053042      486.92581      4869.2525      13.769264    
  65838600   121506.26     -6.9940238     -44301361       1.7249357      361824.91     -43939537       703.70609      703.70609      703.70609      2148.147       2851.853       2148.147       2851.853       2148.147       2851.853       3.4847685e+08  0.1            17508360       6.946344       487.32985      4873.3018      13.727303    
  65838800   121758.54     -5.7830843     -44301358       1.7249357      362576.14     -43938782       703.70609      703.70609      703.70609      2148.147       2851.853       2148.147       2851.853       2148.147       2851.853       3.4847685e+08  0.1            17508380       6.987336       487.90155      4879.0228      13.68526     
  65839000   122280.9      -4.2613202     -44300976       1.7249357      364131.65     -43936844       703.70609      703.70609      703.70609      2148.147       2851.853       2148.147       2851.853       2148.147       2851.853       3.4847685e+08  0.1            17508400       7.0283815      487.2646       4872.6278      13.643333    
  65839200   123091.58     -3.3625322     -44307959       1.7249357      366545.69     -43941414       703.70609      703.70609      703.70609      2148.147       2851.853       2148.147       2851.853       2148.147       2851.853       3.4847685e+08  0.1            17508420       7.0693884      487.72197      4877.2202      13.601342    
  65839400   124186.76     -1.7285223     -44292798       1.7249357      369806.98     -43922991       703.70609      703.70609      703.70609      2148.147       2851.853       2148.147       2851.853       2148.147       2851.853       3.4847685e+08  0.1            17508440       7.1104359      487.23999      4872.4116      13.55944     
  65839600   125539.52     -0.82134467    -44292381       1.7249357      373835.26     -43918546       703.70609      703.70609      703.70609      2148.147       2851.853       2148.147       2851.853       2148.147       2851.853       3.4847685e+08  0.1            17508460       7.1515154      486.86196      4868.6117      13.517608    
  65839800   127103.18      0.33900934    -44299332       1.7249357      378491.57     -43920840       703.70609      703.70609      703.70609      2148.147       2851.853       2148.147       2851.853       2148.147       2851.853       3.4847685e+08  0.1            17508480       7.1926215      486.54502      4865.461       13.475835    
  65840000   128811.24      2.8506723     -44291513       1.7249357      383577.89     -43907935       703.70609      703.70609      703.70609      2148.147       2851.853       2148.147       2851.853       2148.147       2851.853       3.4847685e+08  0.1            17508500       7.2337924      485.77965      4857.7944      13.43419     
  65840200   130586.72      4.8966571     -44296539       1.7249357      388864.96     -43907674       703.70609      703.70609      703.70609      2148.147       2851.853       2148.147       2851.853       2148.147       2851.853       3.4847685e+08  0.1            17508520       7.2748719      486.86153      4868.6179      13.392382    
  65840400   132348.36      7.3368634     -44296071       1.7249357      394110.83     -43901960       703.70609      703.70609      703.70609      2148.147       2851.853       2148.147       2851.853       2148.147       2851.853       3.4847685e+08  0.1            17508540       7.3168641      476.27836      4762.774       13.352248    
  65840600   134014.81      9.8764968     -44288214       1.7249357      399073.21     -43889140       703.70609      703.70609      703.70609      2148.147       2851.853       2148.147       2851.853       2148.147       2851.853       3.4847685e+08  0.1            17508560       7.3578785      487.63434      4876.335       13.310324    
  65840800   135512.13      11.619378     -44287722       1.7249357      403531.99     -43884190       703.70609      703.70609      703.70609      2148.147       2851.853       2148.147       2851.853       2148.147       2851.853       3.4847685e+08  0.1            17508580       7.3989322      487.16646      4871.6728      13.26848     
  65841000   136779.12      13.282846     -44287219       1.7249357      407304.87     -43879914       703.70609      703.70609      703.70609      2148.147       2851.853       2148.147       2851.853       2148.147       2851.853       3.4847685e+08  0.1            17508600       7.4407755      477.97315      4779.7236      13.22805     
  65841200   137772.78      14.924338     -44286703       1.7249357      410263.8      -43876439       703.70609      703.70609      703.70609      2148.147       2851.853       2148.147       2851.853       2148.147       2851.853       3.4847685e+08  0.1            17508620       7.4819148      486.15442      4861.5546      13.186362    
  65841400   138470.74      16.125539     -44295445       1.7249357      412342.23     -43883102       703.70609      703.70609      703.70609      2148.147       2851.853       2148.147       2851.853       2148.147       2851.853       3.4847685e+08  0.1            17508640       7.5230177      486.58338      4865.8275      13.144617    
  65841600   138874.78      18.078987     -44294900       1.7249357      413545.38     -43881355       703.70609      703.70609      703.70609      2148.147       2851.853       2148.147       2851.853       2148.147       2851.853       3.4847685e+08  0.1            17508660       7.5641655      486.05046      4860.5193      13.102957    
  65841800   139010.84      19.22535      -44301720       1.7249357      413950.54     -43887769       703.70609      703.70609      703.70609      2148.147       2851.853       2148.147       2851.853       2148.147       2851.853       3.4847685e+08  0.1            17508680       7.6053911      485.13558      4851.3499      13.061436    
  65842000   138928.1       20.337786     -44299623       1.7249357      413704.16     -43885919       703.70609      703.70609      703.70609      2148.147       2851.853       2148.147       2851.853       2148.147       2851.853       3.4847685e+08  0.1            17508700       7.6465538      485.87931      4858.7972      13.019811    
  65842200   138696.15      21.364988     -44299049       1.7249357      413013.45     -43886035       703.70609      703.70609      703.70609      2148.147       2851.853       2148.147       2851.853       2148.147       2851.853       3.4847685e+08  0.1            17508720       7.6878203      484.65338      4846.5243      12.978367    
  65842400   138392.72      22.380588     -44300364       1.7249357      412109.9      -43888254       703.70609      703.70609      703.70609      2148.147       2851.853       2148.147       2851.853       2148.147       2851.853       3.4847685e+08  0.1            17508740       7.7291244      484.21353      4842.1315      12.936987    
  65842600   138098.8       23.957239     -44301297       1.7249357      411234.64     -43890062       703.70609      703.70609      703.70609      2148.147       2851.853       2148.147       2851.853       2148.147       2851.853       3.4847685e+08  0.1            17508760       7.7703451      485.19367      4851.9457      12.89547     
  65842800   137896.13      25.908373     -44300692       1.7249357      410631.14     -43890060       703.70609      703.70609      703.70609      2148.147       2851.853       2148.147       2851.853       2148.147       2851.853       3.4847685e+08  0.1            17508780       7.8115309      485.60366      4856.0392      12.853898    
  65843000   137858.66      27.42399      -44307454       1.7249357      410519.53     -43896935       703.70609      703.70609      703.70609      2148.147       2851.853       2148.147       2851.853       2148.147       2851.853       3.4847685e+08  0.1            17508800       7.852759       485.10654      4851.0576      12.8124      
  65843200   138047.59      29.498099     -44301145       1.7249357      411082.14     -43890063       703.70609      703.70609      703.70609      2148.147       2851.853       2148.147       2851.853       2148.147       2851.853       3.4847685e+08  0.1            17508820       7.8939535      485.49719      4854.9498      12.770851    
  65843400   138506.05      31.097617     -44295029       1.7249357      412447.36     -43882582       703.70609      703.70609      703.70609      2148.147       2851.853       2148.147       2851.853       2148.147       2851.853       3.4847685e+08  0.1            17508840       7.9350743      486.37723      4863.797       12.729185    
  65843600   139256.79      32.278866     -44301762       1.7249357      414682.94     -43887079       703.70609      703.70609      703.70609      2148.147       2851.853       2148.147       2851.853       2148.147       2851.853       3.4847685e+08  0.1            17508860       7.9761931      486.3943       4863.943       12.687523    
  65843800   140301.08      33.874199     -44308486       1.7249357      417792.67     -43890694       703.70609      703.70609      703.70609      2148.147       2851.853       2148.147       2851.853       2148.147       2851.853       3.4847685e+08  0.1            17508880       8.0173785      485.60801      4856.0513      12.645972    
  65844000   141615.52      35.688081     -44315199       1.7249357      421706.84     -43893493       703.70609      703.70609      703.70609      2148.147       2851.853       2148.147       2851.853       2148.147       2851.853       3.4847685e+08  0.1            17508900       8.0585628      485.62235      4856.2523      12.604422    
  65844200   143155.6       37.874494     -44314523       1.7249357      426292.93     -43888230       703.70609      703.70609      703.70609      2148.147       2851.853       2148.147       2851.853       2148.147       2851.853       3.4847685e+08  0.1            17508920       8.0997745      485.29985      4853.01        12.562919    
  65844400   144857.34      39.639955     -44313833       1.7249357      431360.42     -43882473       703.70609      703.70609      703.70609      2148.147       2851.853       2148.147       2851.853       2148.147       2851.853       3.4847685e+08  0.1            17508940       8.1408846      486.49843      4864.9709      12.521262    
  65844600   146643.82      41.363027     -44313130       1.7249357      436680.24     -43876450       703.70609      703.70609      703.70609      2148.147       2851.853       2148.147       2851.853       2148.147       2851.853       3.4847685e+08  0.1            17508960       8.1828259      476.85535      4768.5478      12.48088     
  65844800   148431.15      43.402538     -44312412       1.7249357      442002.61     -43870409       703.70609      703.70609      703.70609      2148.147       2851.853       2148.147       2851.853       2148.147       2851.853       3.4847685e+08  0.1            17508980       8.224033       485.35365      4853.5469      12.43937     
  65845000   150136.47      46.084272     -44302406       1.7249357      447080.78     -43855326       703.70609      703.70609      703.70609      2148.147       2851.853       2148.147       2851.853       2148.147       2851.853       3.4847685e+08  0.1            17509000       8.2652229      485.55725      4855.573       12.397838    
  65845200   151684.18      48.409197     -44301663       1.7249357      451689.57     -43849973       703.70609      703.70609      703.70609      2148.147       2851.853       2148.147       2851.853       2148.147       2851.853       3.4847685e+08  0.1            17509020       8.3073998      474.19299      4741.9208      12.357777    
  65845400   153009.62      50.812931     -44300907       1.7249357      455636.51     -43845271       703.70609      703.70609      703.70609      2148.147       2851.853       2148.147       2851.853       2148.147       2851.853       3.4847685e+08  0.1            17509040       8.3485809      485.65815      4856.5946      12.316227    
  65845600   154065.17      52.557252     -44303929       1.7249357      458779.78     -43845149       703.70609      703.70609      703.70609      2148.147       2851.853       2148.147       2851.853       2148.147       2851.853       3.4847685e+08  0.1            17509060       8.3898058      485.14422      4851.4381      12.274744    
  65845800   154824.02      54.540296     -44301253       1.7249357      461039.5      -43840214       703.70609      703.70609      703.70609      2148.147       2851.853       2148.147       2851.853       2148.147       2851.853       3.4847685e+08  0.1            17509080       8.4309636      485.9358       4859.352       12.233166    
  65846000   155282.46      56.439785     -44300457       1.7249357      462404.66     -43838052       703.70609      703.70609      703.70609      2148.147       2851.853       2148.147       2851.853       2148.147       2851.853       3.4847685e+08  0.1            17509100       8.4722445      484.48516      4844.8215      12.19177     
  65846200   155463.95      58.355703     -44299649       1.7249357      462945.11     -43836704       703.70609      703.70609      703.70609      2148.147       2851.853       2148.147       2851.853       2148.147       2851.853       3.4847685e+08  0.1            17509120       8.5134037      485.9193       4859.2236      12.150201    
  65846400   155413.95      60.236905     -44298833       1.7249357      462796.2      -43836037       703.70609      703.70609      703.70609      2148.147       2851.853       2148.147       2851.853       2148.147       2851.853       3.4847685e+08  0.1            17509140       8.5545557      486.00178      4860.0219      12.108625    
  65846600   155195.41      62.103437     -44298007       1.7249357      462145.44     -43835862       703.70609      703.70609      703.70609      2148.147       2851.853       2148.147       2851.853       2148.147       2851.853       3.4847685e+08  0.1            17509160       8.5958459      484.37746      4843.7671      12.067248    
  65846800   154886.28      64.168802     -44295278       1.7249357      461224.9      -43834053       703.70609      703.70609      703.70609      2148.147       2851.853       2148.147       2851.853       2148.147       2851.853       3.4847685e+08  0.1            17509180       8.6371324      484.41847      4844.196       12.025867    
  65847000   154570.7       66.916215     -44279682       1.7249357      460285.14     -43819397       703.70609      703.70609      703.70609      2148.147       2851.853       2148.147       2851.853       2148.147       2851.853       3.4847685e+08  0.1            17509200       8.6784252      484.34756      4843.4711      11.984495    
  65847200   154331.08      68.726215     -44277673       1.7249357      459571.61     -43818102       703.70609      703.70609      703.70609      2148.147       2851.853       2148.147       2851.853       2148.147       2851.853       3.4847685e+08  0.1            17509220       8.7197135      484.39765      4843.9716      11.943118    
  65847400   154244.24      70.004206     -44286085       1.7249357      459312.99     -43826772       703.70609      703.70609      703.70609      2148.147       2851.853       2148.147       2851.853       2148.147       2851.853       3.4847685e+08  0.1            17509240       8.7608635      486.02557      4860.2583      11.901554    
  65847600   154374.87      72.052763     -44278205       1.7249357      459702        -43818503       703.70609      703.70609      703.70609      2148.147       2851.853       2148.147       2851.853       2148.147       2851.853       3.4847685e+08  0.1            17509260       8.8020336      485.79111      4857.9216      11.86002     
  65847800   154771.39      73.54578      -44277326       1.7249357      460882.76     -43816443       703.70609      703.70609      703.70609      2148.147       2851.853       2148.147       2851.853       2148.147       2851.853       3.4847685e+08  0.1            17509280       8.844035       476.17235      4761.7132      11.819601    
  65848000   155461.55      75.492578     -44276438       1.7249357      462937.96     -43813500       703.70609      703.70609      703.70609      2148.147       2851.853       2148.147       2851.853       2148.147       2851.853       3.4847685e+08  0.1            17509300       8.8853199      484.4405       4844.3971      11.778218    
  65848200   156450.96      77.94807      -44282918       1.7249357      465884.26     -43817033       703.70609      703.70609      703.70609      2148.147       2851.853       2148.147       2851.853       2148.147       2851.853       3.4847685e+08  0.1            17509320       8.9264769      485.94393      4859.4421      11.736667    
  65848400   157720.54      80.677009     -44289388       1.7249357      469664.85     -43819723       703.70609      703.70609      703.70609      2148.147       2851.853       2148.147       2851.853       2148.147       2851.853       3.4847685e+08  0.1            17509340       8.9676153      486.16217      4861.6351      11.695096    
  65848600   159229.63      82.837199     -44295851       1.7249357      474158.65     -43821692       703.70609      703.70609      703.70609      2148.147       2851.853       2148.147       2851.853       2148.147       2851.853       3.4847685e+08  0.1            17509360       9.0088011      485.60544      4856.0506      11.65359     
  65848800   160916.89      85.537225     -44293033       1.7249357      479183.01     -43813850       703.70609      703.70609      703.70609      2148.147       2851.853       2148.147       2851.853       2148.147       2851.853       3.4847685e+08  0.1            17509380       9.0499989      485.46087      4854.6118      11.612102    
  65849000   162704.8       88.777071     -44292095       1.7249357      484507.1      -43807588       703.70609      703.70609      703.70609      2148.147       2851.853       2148.147       2851.853       2148.147       2851.853       3.4847685e+08  0.1            17509400       9.0913621      483.52224      4835.198       11.570828    
  65849200   164510.39      92.467564     -44289251       1.7249357      489883.84     -43799367       703.70609      703.70609      703.70609      2148.147       2851.853       2148.147       2851.853       2148.147       2851.853       3.4847685e+08  0.1            17509420       9.1325253      485.87266      4858.7488      11.5293      
  65849400   166249.53      96.884488     -44266157       1.7249357      495062.72     -43771095       703.70609      703.70609      703.70609      2148.147       2851.853       2148.147       2851.853       2148.147       2851.853       3.4847685e+08  0.1            17509440       9.1737307      485.37391      4853.7339      11.487828    
  65849600   167842.37      100.03717     -44263290       1.7249357      499805.92     -43763484       703.70609      703.70609      703.70609      2148.147       2851.853       2148.147       2851.853       2148.147       2851.853       3.4847685e+08  0.1            17509460       9.2149253      485.4997       4854.9984      11.446345    
  65849800   169220.95      102.50236     -44269681       1.7249357      503911.08     -43765770       703.70609      703.70609      703.70609      2148.147       2851.853       2148.147       2851.853       2148.147       2851.853       3.4847685e+08  0.1            17509480       9.2561841      484.74572      4847.4523      11.404944    
[...]
  66494400   305.71232      3.775905      -44100967       1.7228203      910.35909     -44100057       703.99398      703.99398      703.99398      2148.003       2851.997       2148.003       2851.997       2148.003       2851.997       3.4890472e+08  0.1            17573940       68.568402      423.55807      4235.5896      2.5114896    
  66494600   305.48265     -1.2624236     -44099140       1.72268        909.67516     -44098230       704.01309      704.01309      704.01309      2147.9935      2852.0065      2147.9935      2852.0065      2147.9935      2852.0065      3.4893313e+08  0.1            17573960       68.615742      422.47414      4224.7396      2.4641013    
  66494800   305.43737      3.8571991     -44099206       1.7228235      909.54034     -44098296       703.99356      703.99356      703.99356      2148.0032      2851.9968      2148.0032      2851.9968      2148.0032      2851.9968      3.4890408e+08  0.1            17573980       68.662917      423.95727      4239.5681      2.4167073    
  66495000   305.07868     -0.34476085    -44099273       1.7227106      908.47223     -44098365       704.00893      704.00893      704.00893      2147.9955      2852.0045      2147.9955      2852.0045      2147.9955      2852.0045      3.4892695e+08  0.1            17574000       68.710127      423.6377       4236.3773      2.3693148    
  66495200   305.41972     -0.69707787    -44099340       1.7227034      909.48777     -44098430       704.00991      704.00991      704.00991      2147.995       2852.005       2147.995       2852.005       2147.995       2852.005       3.4892839e+08  0.1            17574020       68.757588      421.39545      4213.9535      2.321931     
  66495400   305.70498      5.1884762     -44099405       1.7228677      910.33722     -44098495       703.98754      703.98754      703.98754      2148.0062      2851.9938      2148.0062      2851.9938      2148.0062      2851.9938      3.4889513e+08  0.1            17574040       68.804888      422.83856      4228.3815      2.2745418    
  66495600   305.46545     -2.5400157     -44099473       1.7226578      909.62395     -44098563       704.01613      704.01613      704.01613      2147.9919      2852.0081      2147.9919      2852.0081      2147.9919      2852.0081      3.4893764e+08  0.1            17574060       68.852089      423.71413      4237.1417      2.2271496    
  66495800   305.41177     -0.19705409    -44099540       1.7227246      909.46409     -44098630       704.00703      704.00703      704.00703      2147.9965      2852.0035      2147.9965      2852.0035      2147.9965      2852.0035      3.4892411e+08  0.1            17574080       68.899407      422.67276      4226.7313      2.1797612    
  66496000   305.09555      7.844622      -44099604       1.7229479      908.52246     -44098695       703.97661      703.97661      703.97661      2148.0117      2851.9883      2148.0117      2851.9883      2148.0117      2851.9883      3.4887889e+08  0.1            17574100       68.94663       423.52348      4235.2305      2.1323701    
  66496200   305.38921     -6.1266086     -44099671       1.7225664      909.39693     -44098762       704.02858      704.02858      704.02858      2147.9857      2852.0143      2147.9857      2852.0143      2147.9857      2852.0143      3.4895616e+08  0.1            17574120       68.993772      424.24674      4242.4676      2.0849767    
  66496400   305.67669      1.0134456     -44099739       1.7227648      910.253       -44098829       704.00154      704.00154      704.00154      2147.9992      2852.0008      2147.9992      2852.0008      2147.9992      2852.0008      3.4891596e+08  0.1            17574140       69.041108      422.51377      4225.144       2.0375894    
  66496600   305.48746      8.8292781     -44099802       1.7229819      909.68948     -44098893       703.97198      703.97198      703.97198      2148.014       2851.986       2148.014       2851.986       2148.014       2851.986       3.48872e+08    0.1            17574160       69.088444      422.51096      4225.1136      1.9902022    
  66496800   305.374       -7.5101199     -44099870       1.7225352      909.35163     -44098960       704.03282      704.03282      704.03282      2147.9836      2852.0164      2147.9836      2852.0164      2147.9836      2852.0164      3.4896246e+08  0.1            17574180       69.135754      422.74376      4227.4335      1.9428143    
  66497000   305.06766      2.9654878     -44099938       1.7228254      908.43939     -44099030       703.9933       703.9933       703.9933       2148.0034      2851.9966      2148.0034      2851.9966      2148.0034      2851.9966      3.489037e+08   0.1            17574200       69.182936      423.89213      4238.9154      1.895423     
  66497200   305.41474      6.3021292     -44100003       1.7229193      909.47295     -44099094       703.9805       703.9805       703.9805       2148.0098      2851.9902      2148.0098      2851.9902      2148.0098      2851.9902      3.4888467e+08  0.1            17574220       69.231598      411.00173      4110.0206      1.8480715    
  66497400   305.63648     -6.420235      -44100069       1.722572       910.13326     -44099159       704.02781      704.02781      704.02781      2147.9861      2852.0139      2147.9861      2852.0139      2147.9861      2852.0139      3.4895502e+08  0.1            17574240       69.278761      424.05509      4240.5503      1.8006792    
  66497600   305.45779      4.721054      -44100136       1.7228805      909.60113     -44099227       703.98579      703.98579      703.98579      2148.0071      2851.9929      2148.0071      2851.9929      2148.0071      2851.9929      3.4889253e+08  0.1            17574260       69.325941      423.9072       4239.0683      1.7532877    
  66497800   305.39314      3.0483955     -44100203       1.7228369      909.40864     -44099294       703.99173      703.99173      703.99173      2148.0041      2851.9959      2148.0041      2851.9959      2148.0041      2851.9959      3.4890136e+08  0.1            17574280       69.37313       423.83308      4238.3344      1.7058967    
  66498000   305.03029     -4.5134955     -44100269       1.7226314      908.32813     -44099361       704.01972      704.01972      704.01972      2147.9901      2852.0099      2147.9901      2852.0099      2147.9901      2852.0099      3.4894298e+08  0.1            17574300       69.420397      423.13068      4231.3025      1.6585078    
  66498200   305.39785      5.8628217     -44100334       1.7229192      909.42263     -44099425       703.98052      703.98052      703.98052      2148.0097      2851.9903      2148.0097      2851.9903      2148.0097      2851.9903      3.4888471e+08  0.1            17574320       69.468513      415.6591       4156.5958      1.6111388    
  66498400   305.63983     -0.32708936    -44100402       1.7227514      910.14321     -44099491       704.00337      704.00337      704.00337      2147.9983      2852.0017      2147.9983      2852.0017      2147.9983      2852.0017      3.4891868e+08  0.1            17574340       69.515736      423.52271      4235.2237      1.5637487    
  66498600   305.4209      -1.4407796     -44100468       1.7227233      909.49128     -44099558       704.0072       704.0072       704.0072       2147.9964      2852.0036      2147.9964      2852.0036      2147.9964      2852.0036      3.4892436e+08  0.1            17574360       69.562934      423.74953      4237.4979      1.5163583    
  66498800   305.38511      5.294094      -44100533       1.7229113      909.38471     -44099623       703.9816       703.9816       703.9816       2148.0092      2851.9908      2148.0092      2851.9908      2148.0092      2851.9908      3.4888631e+08  0.1            17574380       69.610075      424.25718      4242.5669      1.4689669    
  66499000   305.02305     -2.6160985     -44100600       1.7226964      908.30657     -44099691       704.01087      704.01087      704.01087      2147.9946      2852.0054      2147.9946      2852.0054      2147.9946      2852.0054      3.4892983e+08  0.1            17574400       69.657578      421.02163      4210.2302      1.4215833    
  66499200   305.37031      2.2195708     -44100665       1.7228322      909.34065     -44099756       703.99237      703.99237      703.99237      2148.0038      2851.9962      2148.0038      2851.9962      2148.0038      2851.9962      3.4890232e+08  0.1            17574420       69.70567       415.87386      4158.7271      1.3742111    
  66499400   305.63253      2.4414048     -44100731       1.7228412      910.1215      -44099821       703.99114      703.99114      703.99114      2148.0044      2851.9956      2148.0044      2851.9956      2148.0044      2851.9956      3.489005e+08   0.1            17574440       69.752752      424.78515      4247.8582      1.3268187    
  66499600   305.40191     -2.1335429     -44100797       1.7227183      909.43473     -44099888       704.00789      704.00789      704.00789      2147.9961      2852.0039      2147.9961      2852.0039      2147.9961      2852.0039      3.4892539e+08  0.1            17574460       69.799873      424.44569      4244.4535      1.2794274    
  66499800   305.36677      4.323654      -44100862       1.7228991      909.3301      -44099953       703.98325      703.98325      703.98325      2148.0084      2851.9916      2148.0084      2851.9916      2148.0084      2851.9916      3.4888876e+08  0.1            17574480       69.847039      424.03169      4240.3237      1.2320374    
  66500000   305.01441     -1.1868245     -44100929       1.7227507      908.28082     -44100021       704.00347      704.00347      704.00347      2147.9983      2852.0017      2147.9983      2852.0017      2147.9983      2852.0017      3.4891883e+08  0.1            17574500       69.894285      423.3179       4233.175       1.1846489    
  66500200   305.35205      1.3409713     -44100995       1.7228236      909.28627     -44100085       703.99354      703.99354      703.99354      2148.0032      2851.9968      2148.0032      2851.9968      2148.0032      2851.9968      3.4890407e+08  0.1            17574520       69.941418      424.32864      4243.2819      1.1372589    
  66500400   305.61675      2.4712527     -44101060       1.7228581      910.07448     -44100150       703.98884      703.98884      703.98884      2148.0056      2851.9944      2148.0056      2851.9944      2148.0056      2851.9944      3.4889707e+08  0.1            17574540       69.988524      424.5744       4245.7475      1.0898687    
  66500600   305.3871      -1.6371811     -44101126       1.7227485      909.39062     -44100216       704.00376      704.00376      704.00376      2147.9981      2852.0019      2147.9981      2852.0019      2147.9981      2852.0019      3.4891926e+08  0.1            17574560       70.035658      424.32073      4243.2057      1.0424794    
  66500800   305.35015      3.8366811     -44101191       1.7229029      909.2806      -44100282       703.98273      703.98273      703.98273      2148.0086      2851.9914      2148.0086      2851.9914      2148.0086      2851.9914      3.4888799e+08  0.1            17574580       70.082809      424.17228      4241.7206      0.99509063   
  66501000   305.00128     -1.0983522     -44101257       1.7227708      908.24173     -44100349       704.00073      704.00073      704.00073      2147.9996      2852.0004      2147.9996      2852.0004      2147.9996      2852.0004      3.4891475e+08  0.1            17574600       70.129982      423.97016      4239.7031      0.94770249   
  66501200   305.34268      3.0463072     -44101322       1.7228888      909.25836     -44100413       703.98466      703.98466      703.98466      2148.0077      2851.9923      2148.0077      2851.9923      2148.0077      2851.9923      3.4889085e+08  0.1            17574620       70.177111      424.37058      4243.6914      0.90031408   
  66501400   305.5934      -0.56328691    -44101388       1.7227933      910.00497     -44100478       703.99766      703.99766      703.99766      2148.0012      2851.9988      2148.0012      2851.9988      2148.0012      2851.9988      3.4891019e+08  0.1            17574640       70.224245      424.32039      4243.216       0.85292608   
  66501600   305.37113     -2.1624593     -44101453       1.7227534      909.34308     -44100544       704.00311      704.00311      704.00311      2147.9984      2852.0016      2147.9984      2852.0016      2147.9984      2852.0016      3.4891828e+08  0.1            17574660       70.271472      423.48117      4234.8114      0.8055395    
  66501800   305.318       -1.9299099     -44101519       1.7227639      909.18486     -44100610       704.00167      704.00167      704.00167      2147.9992      2852.0008      2147.9992      2852.0008      2147.9992      2852.0008      3.4891614e+08  0.1            17574680       70.318611      424.2833       4242.8326      0.75815217   
  66502000   305.00393      2.545381      -44108962       1.7229021      908.24961     -44108054       703.98285      703.98285      703.98285      2148.0086      2851.9914      2148.0086      2851.9914      2148.0086      2851.9914      3.4888817e+08  0.1            17574700       70.365788      423.93266      4239.3306      0.71076556   
  66502200   305.32531      0.96935664    -44109028       1.7228629      909.20663     -44108119       703.98818      703.98818      703.98818      2148.0059      2851.9941      2148.0059      2851.9941      2148.0059      2851.9941      3.4889609e+08  0.1            17574720       70.412942      424.14588      4241.4582      0.66337902   
  66502400   305.57725     -1.2618853     -44109093       1.7228059      909.95686     -44108183       703.99595      703.99595      703.99595      2148.002       2851.998       2148.002       2851.998       2148.002       2851.998       3.4890765e+08  0.1            17574740       70.461068      415.57046      4155.7031      0.61600129   
  66502600   305.38122      5.1697075     -44109157       1.7229876      909.37313     -44108248       703.97121      703.97121      703.97121      2148.0144      2851.9856      2148.0144      2851.9856      2148.0144      2851.9856      3.4887086e+08  0.1            17574760       70.50821       424.25473      4242.5442      0.56861462   
  66502800   305.30286     -3.259294      -44109224       1.7227598      909.13979     -44108314       704.00222      704.00222      704.00222      2147.9989      2852.0011      2147.9989      2852.0011      2147.9989      2852.0011      3.4891697e+08  0.1            17574780       70.555326      424.47893      4244.791       0.52122808   
  66503000   305.00752      6.3257601     -44116666       1.7230392      908.26032     -44115757       703.96418      703.96418      703.96418      2148.0179      2851.9821      2148.0179      2851.9821      2148.0179      2851.9821      3.488604e+08   0.1            17574800       70.602517      423.81718      4238.1751      0.47384241   
  66503200   305.30454     -1.9186817     -44108986       1.7228028      909.14479     -44108077       703.99637      703.99637      703.99637      2148.0018      2851.9982      2148.0018      2851.9982      2148.0018      2851.9982      3.4890827e+08  0.1            17574820       70.649704      423.84169      4238.4149      0.42645698   
  66503400   305.58057      2.5123403     -44116429       1.7229401      909.96675     -44115519       703.97766      703.97766      703.97766      2148.0112      2851.9888      2148.0112      2851.9888      2148.0112      2851.9888      3.4888046e+08  0.1            17574840       70.696856      424.1558       4241.5581      0.37907163   
  66503600   305.33691     -5.8859105     -44109115       1.722703       909.24119     -44108206       704.00997      704.00997      704.00997      2147.995       2852.005       2147.995       2852.005       2147.995       2852.005       3.4892849e+08  0.1            17574860       70.744055      423.74011      4237.4022      0.33168681   
  66503800   305.31856      3.6136974     -44116559       1.72298        909.18652     -44115650       703.97224      703.97224      703.97224      2148.0139      2851.9861      2148.0139      2851.9861      2148.0139      2851.9861      3.4887238e+08  0.1            17574880       70.791186      424.34771      4243.4734      0.28430196   
  66504000   305.00666      9.8454868     -44116621       1.7231567      908.25776     -44115713       703.94817      703.94817      703.94817      2148.0259      2851.9741      2148.0259      2851.9741      2148.0259      2851.9741      3.4883661e+08  0.1            17574900       70.838393      423.66429      4236.6466      0.23691771   
  66504200   305.32437      7.2492013     -44116688       1.7230899      909.20383     -44115779       703.95727      703.95727      703.95727      2148.0214      2851.9786      2148.0214      2851.9786      2148.0214      2851.9786      3.4885014e+08  0.1            17574920       70.886058      419.59889      4195.988       0.18953492   
  66504400   305.57434      3.2376274     -44116754       1.7229841      909.94821     -44115845       703.97168      703.97168      703.97168      2148.0142      2851.9858      2148.0142      2851.9858      2148.0142      2851.9858      3.4887156e+08  0.1            17574940       70.93321       424.15694      4241.5664      0.14215073   
  66504600   305.35339      2.4822205     -44116820       1.7229681      909.29026     -44115910       703.97386      703.97386      703.97386      2148.0131      2851.9869      2148.0131      2851.9869      2148.0131      2851.9869      3.4887479e+08  0.1            17574960       70.980329      424.46232      4244.6288      0.094766798  
  66504800   305.31255      4.8540233     -44116884       1.7230384      909.16864     -44115975       703.96429      703.96429      703.96429      2148.0179      2851.9821      2148.0179      2851.9821      2148.0179      2851.9821      3.4886057e+08  0.1            17574980       71.027521      423.798        4237.9744      0.047383271  
  66505000   304.96595      0.23302364    -44116950       1.7229159      908.13653     -44116042       703.98097      703.98097      703.98097      2148.0095      2851.9905      2148.0095      2851.9905      2148.0095      2851.9905      3.4888538e+08  0.1            17575000       71.074662      424.25698      4242.576       0            
Loop time of 71.0747 on 1 procs for 300000 steps with 1000 atoms

Performance: 36.469 ns/day, 0.658 hours/ns, 4220.913 timesteps/s
99.7% CPU use with 1 MPI tasks x 1 OpenMP threads

MPI task timing breakdown:
Section |  min time  |  avg time  |  max time  |%varavg| %total
---------------------------------------------------------------
Pair    | 55.929     | 55.929     | 55.929     |   0.0 | 78.69
Neigh   | 0.032436   | 0.032436   | 0.032436   |   0.0 |  0.05
Comm    | 1.9769     | 1.9769     | 1.9769     |   0.0 |  2.78
Output  | 0.053751   | 0.053751   | 0.053751   |   0.0 |  0.08
Modify  | 11.531     | 11.531     | 11.531     |   0.0 | 16.22
Other   |            | 1.552      |            |       |  2.18

Nlocal:           1000 ave        1000 max        1000 min
Histogram: 1 0 0 0 0 0 0 0 0 0
Nghost:           1302 ave        1302 max        1302 min
Histogram: 1 0 0 0 0 0 0 0 0 0
Neighs:           6776 ave        6776 max        6776 min
Histogram: 1 0 0 0 0 0 0 0 0 0

Total # of neighbors = 6776
Ave neighs/atom = 6.776
Neighbor list builds = 45
Dangerous builds = 13

# run_style
run_style verlet

# write restart
write_restart ${write_res}
write_restart ./pgnpmf/37/equpmf95.res
System init for write_restart ...
Generated 0 of 1 mixed pair_coeff terms from geometric mixing rule

Total wall time: 0:02:34
