LAMMPS (23 Jun 2022 - Update 1)
OMP_NUM_THREADS environment is not set. Defaulting to 1 thread. (src/comm.cpp:98)
  using 1 OpenMP thread(s) per MPI task
# Read restart
read_restart ${read_res}
read_restart ./pgnpmf/37/equpmf85.res
Reading restart file ...
  restart file = 23 Jun 2022, LAMMPS = 23 Jun 2022
  restoring atom style atomic from restart
  orthogonal box = (2147.6472 2147.6472 2147.6472) to (2852.3528 2852.3528 2852.3528)
  1 by 1 by 1 MPI processor grid
  restoring pair style table from restart
  1000 atoms
  read_restart CPU = 0.003 seconds

# Settings

pair_style table spline 9941

pair_coeff 1 1 ./pgnpmf/N20.txt DE_GNP 75.6
pair_coeff 2 2 ./pgnpmf/N100.txt DE_GNP 115.92
WARNING: 3 of 9941 force values in table DE_GNP are inconsistent with -dE/dr.
WARNING:  Should only be flagged at inflection points (src/pair_table.cpp:463)
pair_coeff 1 2 ./pgnpmf/mixed_potential.txt DE_GNP 95.66
WARNING: 1562 of 9941 force values in table DE_GNP are inconsistent with -dE/dr.
WARNING:  Should only be flagged at inflection points (src/pair_table.cpp:463)

#Neigh_list Calc Frequency

neigh_modify delay 0 every 1 check yes

# Saving Frequency (50 frames)

variable ts_save equal ${steps_equ}
variable ts_save equal 5000

# Dump
#dump 1 all custom ${ts_save} ./pgnpmf/${folder}/equilibration/trajectory/trajectory_${usic}_${trial}.equ.custom type x y z ix iy iz
#dump_modify 1 first no sort id
#dump 2 all cfg 50000 ./equilibration/trajectory/ovito/dumpgen.tens_*.cfg mass type xs ys zs fx fy fz

# thermo_style
thermo_style custom step temp press pe density ke etotal lx ly lz xlo xhi ylo yhi zlo zhi vol dt time cpu tpcpu spcpu cpuremain

# run info
timestep ${ts}
timestep 0.1
thermo 200

# fix

fix 1 all momentum 1000 linear 1 1 1 angular
variable T equal ${temp}
variable T equal 300
fix 2 all nvt temp ${T} 370000 100.0
fix 2 all nvt temp 300 370000 100.0

run 100000
Generated 0 of 1 mixed pair_coeff terms from geometric mixing rule
Unused restart file global fix info:
  fix style: npt, fix ID: 5
Neighbor list info ...
  update every 1 steps, delay 0 steps, check yes
  max neighbors/atom: 2000, page size: 100000
  master list distance cutoff = 117.92
  ghost atom cutoff = 117.92
  binsize = 58.96, bins = 12 12 12
  1 neighbor lists, perpetual/occasional/extra = 1 0 0
  (1) pair table, perpetual
      attributes: half, newton on
      pair build: half/bin/atomonly/newton
      stencil: half/bin/3d
      bin: standard
Per MPI rank memory allocation (min/avg/max) = 3.11 | 3.11 | 3.11 Mbytes
   Step          Temp          Press          PotEng        Density         KinEng         TotEng           Lx             Ly             Lz            Xlo            Xhi            Ylo            Yhi            Zlo            Zhi           Volume           Dt            Time           CPU           T/CPU          S/CPU         CPULeft    
  59505000   305.28007      10.58671      -43800896       1.7176066      909.07193     -43799987       704.70558      704.70558      704.70558      2147.6472      2852.3528      2147.6472      2852.3528      2147.6472      2852.3528      3.4996381e+08  0.1            16875000       0              0              0              0            
  59505200   332.18001      10.409736     -43800962       1.7176066      989.17533     -43799972       704.70558      704.70558      704.70558      2147.6472      2852.3528      2147.6472      2852.3528      2147.6472      2852.3528      3.4996381e+08  0.1            16875020       0.041082887    486.80781      4867.9766      20.501742    
  59505400   372.51316      10.226342     -43801031       1.7176066      1109.2806     -43799922       704.70558      704.70558      704.70558      2147.6472      2852.3528      2147.6472      2852.3528      2147.6472      2852.3528      3.4996381e+08  0.1            16875040       0.08220711     486.334        4863.3339      20.470225    
  59505600   416.17478      9.6466594     -43808482       1.7176066      1239.2974     -43807243       704.70558      704.70558      704.70558      2147.6472      2852.3528      2147.6472      2852.3528      2147.6472      2852.3528      3.4996381e+08  0.1            16875060       0.12326769     487.08723      4870.8777      20.421741    
  59505800   469.22797      9.440397      -43808560       1.7176066      1397.2808     -43807162       704.70558      704.70558      704.70558      2147.6472      2852.3528      2147.6472      2852.3528      2147.6472      2852.3528      3.4996381e+08  0.1            16875080       0.1643178      487.21087      4872.1157      20.375678    
  59506000   531.12877      9.2216686     -43808642       1.7176066      1581.6108     -43807060       704.70558      704.70558      704.70558      2147.6472      2852.3528      2147.6472      2852.3528      2147.6472      2852.3528      3.4996381e+08  0.1            16875100       0.20545302     486.20074      4861.9912      20.340086    
  59506200   602.21019      8.9895612     -43808729       1.7176066      1793.2791     -43806936       704.70558      704.70558      704.70558      2147.6472      2852.3528      2147.6472      2852.3528      2147.6472      2852.3528      3.4996381e+08  0.1            16875120       0.24650778     487.15443      4871.5455      20.295998    
  59506400   683.44337      9.1273966     -43801445       1.7176066      2035.1777     -43799410       704.70558      704.70558      704.70558      2147.6472      2852.3528      2147.6472      2852.3528      2147.6472      2852.3528      3.4996381e+08  0.1            16875140       0.28753172     487.51853      4875.1853      20.250623    
  59506600   775.9252       8.866238      -43801544       1.7176066      2310.5728     -43799233       704.70558      704.70558      704.70558      2147.6472      2852.3528      2147.6472      2852.3528      2147.6472      2852.3528      3.4996381e+08  0.1            16875160       0.3285714      487.33477      4873.348       20.207287    
  59506800   880.94773      8.5898458     -43801650       1.7176066      2623.3119     -43799026       704.70558      704.70558      704.70558      2147.6472      2852.3528      2147.6472      2852.3528      2147.6472      2852.3528      3.4996381e+08  0.1            16875180       0.36963221     487.08262      4870.8282      20.165617    
  59507000   999.86939      8.2974003     -43801762       1.7176066      2977.4403     -43798785       704.70558      704.70558      704.70558      2147.6472      2852.3528      2147.6472      2852.3528      2147.6472      2852.3528      3.4996381e+08  0.1            16875200       0.41067396     487.30888      4873.0976      20.123133    
  59507200   1134.5387      7.988285      -43801881       1.7176066      3378.4625     -43798503       704.70558      704.70558      704.70558      2147.6472      2852.3528      2147.6472      2852.3528      2147.6472      2852.3528      3.4996381e+08  0.1            16875220       0.45174774     486.92851      4869.2757      20.082343    
  59507400   1286.7559      7.6618776     -43802009       1.7176066      3831.7394     -43798177       704.70558      704.70558      704.70558      2147.6472      2852.3528      2147.6472      2852.3528      2147.6472      2852.3528      3.4996381e+08  0.1            16875240       0.49306965     484.00459      4840.054       20.05159     
  59507600   1458.6077      7.3179701     -43802144       1.7176066      4343.4848     -43797800       704.70558      704.70558      704.70558      2147.6472      2852.3528      2147.6472      2852.3528      2147.6472      2852.3528      3.4996381e+08  0.1            16875260       0.53410957     487.33069      4873.2985      20.008652    
  59507800   1652.4157      6.9561319     -43802287       1.7176066      4920.6117     -43797367       704.70558      704.70558      704.70558      2147.6472      2852.3528      2147.6472      2852.3528      2147.6472      2852.3528      3.4996381e+08  0.1            16875280       0.57630216     474.01644      4740.1622      20.006       
  59508000   1870.6319      6.5757818     -43802440       1.7176066      5570.4225     -43796869       704.70558      704.70558      704.70558      2147.6472      2852.3528      2147.6472      2852.3528      2147.6472      2852.3528      3.4996381e+08  0.1            16875300       0.61741174     486.50502      4865.0545      19.963055    
  59508200   2116.2868      6.1768047     -43802602       1.7176066      6301.9407     -43796300       704.70558      704.70558      704.70558      2147.6472      2852.3528      2147.6472      2852.3528      2147.6472      2852.3528      3.4996381e+08  0.1            16875320       0.65870327     484.35701      4843.5809      19.925849    
  59508400   2392.4419      5.7587096     -43802773       1.7176066      7124.2836     -43795649       704.70558      704.70558      704.70558      2147.6472      2852.3528      2147.6472      2852.3528      2147.6472      2852.3528      3.4996381e+08  0.1            16875340       0.69969875     487.86227      4878.6071      19.879743    
  59508600   2702.5338      5.3213249     -43802956       1.7176066      8047.6841     -43794908       704.70558      704.70558      704.70558      2147.6472      2852.3528      2147.6472      2852.3528      2147.6472      2852.3528      3.4996381e+08  0.1            16875360       0.74070629     487.71501      4877.1564      19.834531    
  59508800   3050.3168      4.86573       -43803149       1.7176066      9083.3225     -43794066       704.70558      704.70558      704.70558      2147.6472      2852.3528      2147.6472      2852.3528      2147.6472      2852.3528      3.4996381e+08  0.1            16875380       0.78180017     486.68782      4866.8756      19.791953    
  59509000   3439.7467      4.3998036     -43803354       1.7176066      10242.978     -43793111       704.70558      704.70558      704.70558      2147.6472      2852.3528      2147.6472      2852.3528      2147.6472      2852.3528      3.4996381e+08  0.1            16875400       0.8229316      486.24986      4862.4956      19.750413    
  59509200   3875.4139      3.9369628     -43803572       1.7176066      11540.321     -43792031       704.70558      704.70558      704.70558      2147.6472      2852.3528      2147.6472      2852.3528      2147.6472      2852.3528      3.4996381e+08  0.1            16875420       0.86390656     488.10239      4881.0222      19.705351    
  59509400   4361.9612      3.4907657     -43803802       1.7176066      12989.175     -43790813       704.70558      704.70558      704.70558      2147.6472      2852.3528      2147.6472      2852.3528      2147.6472      2852.3528      3.4996381e+08  0.1            16875440       0.90535593     482.5151       4825.1502      19.670969    
  59509600   4904.4105      3.4533544     -43796668       1.7176066      14604.497     -43782064       704.70558      704.70558      704.70558      2147.6472      2852.3528      2147.6472      2852.3528      2147.6472      2852.3528      3.4996381e+08  0.1            16875460       0.94649947     486.10373      4861.0382      19.629625    
  59509800   5508.0944      2.6747081     -43804304       1.7176066      16402.165     -43787902       704.70558      704.70558      704.70558      2147.6472      2852.3528      2147.6472      2852.3528      2147.6472      2852.3528      3.4996381e+08  0.1            16875480       0.987516       487.60863      4876.0907      19.585779    
  59510000   6178.3056      2.4697369     -43802683       1.7176066      18397.939     -43784285       704.70558      704.70558      704.70558      2147.6472      2852.3528      2147.6472      2852.3528      2147.6472      2852.3528      3.4996381e+08  0.1            16875500       1.0286338      486.40768      4864.0783      19.544085    
  59510200   6920.7792      2.1269699     -43802972       1.7176066      20608.899     -43782363       704.70558      704.70558      704.70558      2147.6472      2852.3528      2147.6472      2852.3528      2147.6472      2852.3528      3.4996381e+08  0.1            16875520       1.0697084      486.91966      4869.192       19.501649    
  59510400   7740.9981      1.8017117     -43803276       1.7176066      23051.37      -43780225       704.70558      704.70558      704.70558      2147.6472      2852.3528      2147.6472      2852.3528      2147.6472      2852.3528      3.4996381e+08  0.1            16875540       1.1106717      488.24301      4882.4393      19.45736     
  59510600   8644.3871      1.4851298     -43803597       1.7176066      25741.509     -43777856       704.70558      704.70558      704.70558      2147.6472      2852.3528      2147.6472      2852.3528      2147.6472      2852.3528      3.4996381e+08  0.1            16875560       1.1516692      487.83347      4878.3267      19.41389     
  59510800   9636.0678      0.99830931    -43805830       1.7176066      28694.565     -43777135       704.70558      704.70558      704.70558      2147.6472      2852.3528      2147.6472      2852.3528      2147.6472      2852.3528      3.4996381e+08  0.1            16875580       1.192647       488.0689       4880.686       19.37027     
  59511000   10720.643      0.81568098    -43804290       1.7176066      31924.244     -43772366       704.70558      704.70558      704.70558      2147.6472      2852.3528      2147.6472      2852.3528      2147.6472      2852.3528      3.4996381e+08  0.1            16875600       1.2337728      486.31281      4863.1321      19.329142    
  59511200   11902.134      0.4297792     -43804663       1.7176066      35442.524     -43769221       704.70558      704.70558      704.70558      2147.6472      2852.3528      2147.6472      2852.3528      2147.6472      2852.3528      3.4996381e+08  0.1            16875620       1.2748154      487.29716      4872.9669      19.28676     
  59511400   13183.293     -0.18963741    -43806950       1.7176066      39257.596     -43767692       704.70558      704.70558      704.70558      2147.6472      2852.3528      2147.6472      2852.3528      2147.6472      2852.3528      3.4996381e+08  0.1            16875640       1.3158876      486.94969      4869.5032      19.244888    
  59511600   14565.529     -0.89087142    -43809255       1.7176066      43373.658     -43765881       704.70558      704.70558      704.70558      2147.6472      2852.3528      2147.6472      2852.3528      2147.6472      2852.3528      3.4996381e+08  0.1            16875660       1.356883       487.85857      4878.5859      19.201983    
  59511800   16048.382     -1.4932944     -43809685       1.7176066      47789.342     -43761895       704.70558      704.70558      704.70558      2147.6472      2852.3528      2147.6472      2852.3528      2147.6472      2852.3528      3.4996381e+08  0.1            16875680       1.3978918      487.69978      4876.9964      19.159372    
  59512000   17629.112     -2.0845649     -43808608       1.7176066      52496.484     -43756112       704.70558      704.70558      704.70558      2147.6472      2852.3528      2147.6472      2852.3528      2147.6472      2852.3528      3.4996381e+08  0.1            16875700       1.4389399      487.23429      4872.3427      19.117374    
  59512200   19302.395     -2.6071519     -43808711       1.7176066      57479.237     -43751232       704.70558      704.70558      704.70558      2147.6472      2852.3528      2147.6472      2852.3528      2147.6472      2852.3528      3.4996381e+08  0.1            16875720       1.4799099      488.16234      4881.6236      19.074423    
  59512400   21058.99      -3.2061708     -43809203       1.7176066      62710.075     -43746493       704.70558      704.70558      704.70558      2147.6472      2852.3528      2147.6472      2852.3528      2147.6472      2852.3528      3.4996381e+08  0.1            16875740       1.5209904      486.84783      4868.4758      19.032964    
  59512600   22885.753     -3.7683138     -43809716       1.7176066      68149.863     -43741566       704.70558      704.70558      704.70558      2147.6472      2852.3528      2147.6472      2852.3528      2147.6472      2852.3528      3.4996381e+08  0.1            16875760       1.5629084      477.11863      4771.1925      19.001707    
  59512800   24765.074     -4.3090638     -43810247       1.7176066      73746.16      -43736501       704.70558      704.70558      704.70558      2147.6472      2852.3528      2147.6472      2852.3528      2147.6472      2852.3528      3.4996381e+08  0.1            16875780       1.6038605      488.37984      4883.8018      18.958478    
  59513000   26674.437     -4.7649046     -43810429       1.7176066      79431.918     -43730997       704.70558      704.70558      704.70558      2147.6472      2852.3528      2147.6472      2852.3528      2147.6472      2852.3528      3.4996381e+08  0.1            16875800       1.645033       485.76045      4857.5991      18.917906    
  59513200   28586.756     -5.2470615     -43809101       1.7176066      85126.477     -43723974       704.70558      704.70558      704.70558      2147.6472      2852.3528      2147.6472      2852.3528      2147.6472      2852.3528      3.4996381e+08  0.1            16875820       1.686005       488.13847      4881.3903      18.875056    
  59513400   30469.713     -5.6098209     -43802305       1.7176066      90733.602     -43711571       704.70558      704.70558      704.70558      2147.6472      2852.3528      2147.6472      2852.3528      2147.6472      2852.3528      3.4996381e+08  0.1            16875840       1.7270508      487.26052      4872.5994      18.833105    
  59513600   32286.816     -6.4281661     -43802902       1.7176066      96144.624     -43706758       704.70558      704.70558      704.70558      2147.6472      2852.3528      2147.6472      2852.3528      2147.6472      2852.3528      3.4996381e+08  0.1            16875860       1.7681068      487.13831      4871.3882      18.791299    
  59513800   33997.758     -7.1769927     -43803513       1.7176066      101239.52     -43702273       704.70558      704.70558      704.70558      2147.6472      2852.3528      2147.6472      2852.3528      2147.6472      2852.3528      3.4996381e+08  0.1            16875880       1.8091689      487.06729      4870.6759      18.749592    
  59514000   35559.994     -7.8557785     -43804134       1.7176066      105891.59     -43698242       704.70558      704.70558      704.70558      2147.6472      2852.3528      2147.6472      2852.3528      2147.6472      2852.3528      3.4996381e+08  0.1            16875900       1.8503104      486.12796      4861.2722      18.708717    
  59514200   36931.829     -8.6212226     -43804762       1.7176066      109976.68     -43694786       704.70558      704.70558      704.70558      2147.6472      2852.3528      2147.6472      2852.3528      2147.6472      2852.3528      3.4996381e+08  0.1            16875920       1.8913773      487.0097       4870.0895      18.667095    
  59514400   38076.157     -9.5223489     -43805397       1.7176066      113384.29     -43692013       704.70558      704.70558      704.70558      2147.6472      2852.3528      2147.6472      2852.3528      2147.6472      2852.3528      3.4996381e+08  0.1            16875940       1.9325471      485.79337      4857.946       18.626486    
  59514600   38965.542     -10.507033     -43806036       1.7176066      116032.73     -43690003       704.70558      704.70558      704.70558      2147.6472      2852.3528      2147.6472      2852.3528      2147.6472      2852.3528      3.4996381e+08  0.1            16875960       1.9735895      487.30116      4873.0121      18.584655    
  59514800   39587.928     -11.442555     -43804784       1.7176066      117886.09     -43686898       704.70558      704.70558      704.70558      2147.6472      2852.3528      2147.6472      2852.3528      2147.6472      2852.3528      3.4996381e+08  0.1            16875980       2.0146386      487.21916      4872.1845      18.542921    
  59515000   39951.281     -13.433213     -43820185       1.7176066      118968.09     -43701217       704.70558      704.70558      704.70558      2147.6472      2852.3528      2147.6472      2852.3528      2147.6472      2852.3528      3.4996381e+08  0.1            16876000       2.0557876      486.04122      4860.4194      18.502108    
  59515200   40087.078     -14.172406     -43811557       1.7176066      119372.47     -43692184       704.70558      704.70558      704.70558      2147.6472      2852.3528      2147.6472      2852.3528      2147.6472      2852.3528      3.4996381e+08  0.1            16876020       2.0968145      487.48512      4874.8519      18.460209    
  59515400   40047.794     -15.372355     -43812200       1.7176066      119255.49     -43692944       704.70558      704.70558      704.70558      2147.6472      2852.3528      2147.6472      2852.3528      2147.6472      2852.3528      3.4996381e+08  0.1            16876040       2.1379182      486.57488      4865.7381      18.419006    
  59515600   39901.118     -16.38741      -43812838       1.7176066      118818.72     -43694019       704.70558      704.70558      704.70558      2147.6472      2852.3528      2147.6472      2852.3528      2147.6472      2852.3528      3.4996381e+08  0.1            16876060       2.1789558      487.35613      4873.5626      18.37725     
  59515800   39721.242     -17.363745     -43813469       1.7176066      118283.08     -43695186       704.70558      704.70558      704.70558      2147.6472      2852.3528      2147.6472      2852.3528      2147.6472      2852.3528      3.4996381e+08  0.1            16876080       2.2199996      487.2856       4872.8603      18.33557     
  59516000   39580.66      -18.500668     -43814093       1.7176066      117864.45     -43696229       704.70558      704.70558      704.70558      2147.6472      2852.3528      2147.6472      2852.3528      2147.6472      2852.3528      3.4996381e+08  0.1            16876100       2.2619719      476.50343      4765.0363      18.301427    
  59516200   39545.079     -19.941241     -43814710       1.7176066      117758.49     -43696951       704.70558      704.70558      704.70558      2147.6472      2852.3528      2147.6472      2852.3528      2147.6472      2852.3528      3.4996381e+08  0.1            16876120       2.3031037      486.24255      4862.4272      18.26034     
  59516400   39670.311     -21.635774     -43815321       1.7176066      118131.41     -43697189       704.70558      704.70558      704.70558      2147.6472      2852.3528      2147.6472      2852.3528      2147.6472      2852.3528      3.4996381e+08  0.1            16876140       2.3442505      486.06441      4860.6481      18.219367    
  59516600   40001.127     -23.238087     -43815928       1.7176066      119116.53     -43696812       704.70558      704.70558      704.70558      2147.6472      2852.3528      2147.6472      2852.3528      2147.6472      2852.3528      3.4996381e+08  0.1            16876160       2.3866312      471.91305      4719.1014      18.187794    
  59516800   40569.541     -25.269932     -43831291       1.7176066      120809.16     -43710482       704.70558      704.70558      704.70558      2147.6472      2852.3528      2147.6472      2852.3528      2147.6472      2852.3528      3.4996381e+08  0.1            16876180       2.4277324      486.60466      4866.0634      18.146288    
  59517000   41391.48      -26.345675     -43832270       1.7176066      123256.76     -43709013       704.70558      704.70558      704.70558      2147.6472      2852.3528      2147.6472      2852.3528      2147.6472      2852.3528      3.4996381e+08  0.1            16876200       2.468908       485.72375      4857.2388      18.105342    
  59517200   42462.621     -27.118134     -43834409       1.7176066      126446.43     -43707962       704.70558      704.70558      704.70558      2147.6472      2852.3528      2147.6472      2852.3528      2147.6472      2852.3528      3.4996381e+08  0.1            16876220       2.5100088      486.60782      4866.0882      18.06385     
  59517400   43756.777     -27.766193     -43835024       1.7176066      130300.21     -43704724       704.70558      704.70558      704.70558      2147.6472      2852.3528      2147.6472      2852.3528      2147.6472      2852.3528      3.4996381e+08  0.1            16876240       2.5519988      476.30261      4763.0177      18.028654    
  59517600   45228.417     -28.511468     -43835641       1.7176066      134682.5      -43700958       704.70558      704.70558      704.70558      2147.6472      2852.3528      2147.6472      2852.3528      2147.6472      2852.3528      3.4996381e+08  0.1            16876260       2.5931176      486.39334      4863.9435      17.987198    
  59517800   46818.23      -29.367337     -43836263       1.7176066      139416.7      -43696846       704.70558      704.70558      704.70558      2147.6472      2852.3528      2147.6472      2852.3528      2147.6472      2852.3528      3.4996381e+08  0.1            16876280       2.6342771      485.91827      4859.1805      17.946028    
  59518000   48458.693     -30.199657     -43837259       1.7176066      144301.71     -43692957       704.70558      704.70558      704.70558      2147.6472      2852.3528      2147.6472      2852.3528      2147.6472      2852.3528      3.4996381e+08  0.1            16876300       2.6754027      486.31474      4863.1437      17.904633    
  59518200   50080.184     -30.720717     -43837891       1.7176066      149130.24     -43688761       704.70558      704.70558      704.70558      2147.6472      2852.3528      2147.6472      2852.3528      2147.6472      2852.3528      3.4996381e+08  0.1            16876320       2.7174588      475.55547      4755.5503      17.869365    
  59518400   51616.005     -30.742069     -43831148       1.7176066      153703.65     -43677445       704.70558      704.70558      704.70558      2147.6472      2852.3528      2147.6472      2852.3528      2147.6472      2852.3528      3.4996381e+08  0.1            16876340       2.7586267      485.81684      4858.1663      17.828154    
  59518600   53006.294     -31.816079     -43844648       1.7176066      157843.69     -43686805       704.70558      704.70558      704.70558      2147.6472      2852.3528      2147.6472      2852.3528      2147.6472      2852.3528      3.4996381e+08  0.1            16876360       2.7996794      487.17839      4871.7986      17.786212    
  59518800   54200.678     -32.56749      -43845291       1.7176066      161400.37     -43683891       704.70558      704.70558      704.70558      2147.6472      2852.3528      2147.6472      2852.3528      2147.6472      2852.3528      3.4996381e+08  0.1            16876380       2.8407523      486.93644      4869.3601      17.744424    
  59519000   55160.659     -33.455031     -43845934       1.7176066      164259.02     -43681675       704.70558      704.70558      704.70558      2147.6472      2852.3528      2147.6472      2852.3528      2147.6472      2852.3528      3.4996381e+08  0.1            16876400       2.882304       481.32715      4813.2652      17.705597    
  59519200   55866.007     -35.402104     -43868710       1.7176066      166359.43     -43702350       704.70558      704.70558      704.70558      2147.6472      2852.3528      2147.6472      2852.3528      2147.6472      2852.3528      3.4996381e+08  0.1            16876420       2.923482       485.69888      4856.9858      17.664433    
  59519400   56316.44      -36.20521      -43869349       1.7176066      167700.74     -43701648       704.70558      704.70558      704.70558      2147.6472      2852.3528      2147.6472      2852.3528      2147.6472      2852.3528      3.4996381e+08  0.1            16876440       2.9645942      486.47521      4864.7567      17.622878    
  59519600   56534.26      -36.818562     -43862605       1.7176066      168349.37     -43694256       704.70558      704.70558      704.70558      2147.6472      2852.3528      2147.6472      2852.3528      2147.6472      2852.3528      3.4996381e+08  0.1            16876460       3.0056387      487.27415      4872.7369      17.580941    
  59519800   56562.84      -37.79396      -43863233       1.7176066      168434.48     -43694798       704.70558      704.70558      704.70558      2147.6472      2852.3528      2147.6472      2852.3528      2147.6472      2852.3528      3.4996381e+08  0.1            16876480       3.0466916      487.17718      4871.7792      17.539075    
  59520000   56462.271     -38.856961     -43863853       1.7176066      168135        -43695718       704.70558      704.70558      704.70558      2147.6472      2852.3528      2147.6472      2852.3528      2147.6472      2852.3528      3.4996381e+08  0.1            16876500       3.0877492      487.12129      4871.2157      17.497258    
  59520200   56303.065     -39.595539     -43857089       1.7176066      167660.91     -43689428       704.70558      704.70558      704.70558      2147.6472      2852.3528      2147.6472      2852.3528      2147.6472      2852.3528      3.4996381e+08  0.1            16876520       3.1288296      486.85007      4868.4941      17.455588    
  59520400   56157.472     -40.596514     -43857695       1.7176066      167227.36     -43690468       704.70558      704.70558      704.70558      2147.6472      2852.3528      2147.6472      2852.3528      2147.6472      2852.3528      3.4996381e+08  0.1            16876540       3.1698975      486.99814      4869.9771      17.413865    
  59520600   56093.434     -41.610879     -43860189       1.7176066      167036.67     -43693152       704.70558      704.70558      704.70558      2147.6472      2852.3528      2147.6472      2852.3528      2147.6472      2852.3528      3.4996381e+08  0.1            16876560       3.2109824      486.79612      4867.9612      17.372251    
  59520800   56171.026     -42.914759     -43870052       1.7176066      167267.72     -43702784       704.70558      704.70558      704.70558      2147.6472      2852.3528      2147.6472      2852.3528      2147.6472      2852.3528      3.4996381e+08  0.1            16876580       3.2520962      486.45449      4864.5469      17.330803    
  59521000   56439.702     -43.929366     -43872530       1.7176066      168067.8      -43704463       704.70558      704.70558      704.70558      2147.6472      2852.3528      2147.6472      2852.3528      2147.6472      2852.3528      3.4996381e+08  0.1            16876600       3.2932277      486.24492      4862.4483      17.289458    
  59521200   56935.817     -45.060038     -43873108       1.7176066      169545.14     -43703563       704.70558      704.70558      704.70558      2147.6472      2852.3528      2147.6472      2852.3528      2147.6472      2852.3528      3.4996381e+08  0.1            16876620       3.3351502      477.06926      4770.675       17.252211    
  59521400   57679.792     -46.068268     -43873681       1.7176066      171760.57     -43701921       704.70558      704.70558      704.70558      2147.6472      2852.3528      2147.6472      2852.3528      2147.6472      2852.3528      3.4996381e+08  0.1            16876640       3.3762888      486.16051      4861.624       17.210851    
  59521600   58675.075     -46.654037     -43873883       1.7176066      174724.35     -43699159       704.70558      704.70558      704.70558      2147.6472      2852.3528      2147.6472      2852.3528      2147.6472      2852.3528      3.4996381e+08  0.1            16876660       3.4173987      486.50366      4865.0353      17.169352    
  59521800   59904.886     -46.864634     -43867076       1.7176066      178386.52     -43688689       704.70558      704.70558      704.70558      2147.6472      2852.3528      2147.6472      2852.3528      2147.6472      2852.3528      3.4996381e+08  0.1            16876680       3.4585188      486.38115      4863.8133      17.127914    
  59522000   61331.771     -47.248377     -43867277       1.7176066      182635.54     -43684642       704.70558      704.70558      704.70558      2147.6472      2852.3528      2147.6472      2852.3528      2147.6472      2852.3528      3.4996381e+08  0.1            16876700       3.4996217      486.58303      4865.8326      17.086399    
  59522200   62901.782     -47.724368     -43867846       1.7176066      187310.77     -43680535       704.70558      704.70558      704.70558      2147.6472      2852.3528      2147.6472      2852.3528      2147.6472      2852.3528      3.4996381e+08  0.1            16876720       3.5417962      474.21954      4742.2035      17.050053    
  59522400   64549.115     -48.214348     -43868414       1.7176066      192216.24     -43676197       704.70558      704.70558      704.70558      2147.6472      2852.3528      2147.6472      2852.3528      2147.6472      2852.3528      3.4996381e+08  0.1            16876740       3.5828729      486.8951       4868.9375      17.008361    
  59522600   66201.862     -48.646532     -43868979       1.7176066      197137.84     -43671841       704.70558      704.70558      704.70558      2147.6472      2852.3528      2147.6472      2852.3528      2147.6472      2852.3528      3.4996381e+08  0.1            16876760       3.6240708      485.46197      4854.622       16.967251    
  59522800   67788.145     -49.365798     -43876920       1.7176066      201861.52     -43675059       704.70558      704.70558      704.70558      2147.6472      2852.3528      2147.6472      2852.3528      2147.6472      2852.3528      3.4996381e+08  0.1            16876780       3.6652382      485.82049      4858.1962      16.925998    
  59523000   69240.518     -49.804465     -43877480       1.7176066      206186.44     -43671293       704.70558      704.70558      704.70558      2147.6472      2852.3528      2147.6472      2852.3528      2147.6472      2852.3528      3.4996381e+08  0.1            16876800       3.7064035      485.84617      4858.4706      16.884737    
  59523200   70501.738     -50.480716     -43878036       1.7176066      209942.14     -43668093       704.70558      704.70558      704.70558      2147.6472      2852.3528      2147.6472      2852.3528      2147.6472      2852.3528      3.4996381e+08  0.1            16876820       3.7475956      485.53091      4855.3149      16.843599    
  59523400   71528.057     -51.430442     -43878587       1.7176066      212998.34     -43665589       704.70558      704.70558      704.70558      2147.6472      2852.3528      2147.6472      2852.3528      2147.6472      2852.3528      3.4996381e+08  0.1            16876840       3.7887465      486.01519      4860.1429      16.802277    
  59523600   72292.943     -52.641195     -43879134       1.7176066      215276.04     -43663858       704.70558      704.70558      704.70558      2147.6472      2852.3528      2147.6472      2852.3528      2147.6472      2852.3528      3.4996381e+08  0.1            16876860       3.8299179      485.77236      4857.7264      16.761049    
  59523800   72790.869     -54.053168     -43880040       1.7176066      216758.78     -43663281       704.70558      704.70558      704.70558      2147.6472      2852.3528      2147.6472      2852.3528      2147.6472      2852.3528      3.4996381e+08  0.1            16876880       3.8709671      487.22184      4872.2189      16.719293    
  59524000   73039.945     -55.244786     -43880568       1.7176066      217500.48     -43663068       704.70558      704.70558      704.70558      2147.6472      2852.3528      2147.6472      2852.3528      2147.6472      2852.3528      3.4996381e+08  0.1            16876900       3.9120805      486.46021      4864.6063      16.677826    
  59524200   73080.706     -56.111064     -43881088       1.7176066      217621.86     -43663466       704.70558      704.70558      704.70558      2147.6472      2852.3528      2147.6472      2852.3528      2147.6472      2852.3528      3.4996381e+08  0.1            16876920       3.9531529      486.94362      4869.4325      16.636195    
  59524400   72970.378     -56.314921     -43881595       1.7176066      217293.33     -43664301       704.70558      704.70558      704.70558      2147.6472      2852.3528      2147.6472      2852.3528      2147.6472      2852.3528      3.4996381e+08  0.1            16876940       3.9942152      487.06581      4870.6609      16.594532    
  59524600   72778.709     -56.14405      -43882086       1.7176066      216722.57     -43665364       704.70558      704.70558      704.70558      2147.6472      2852.3528      2147.6472      2852.3528      2147.6472      2852.3528      3.4996381e+08  0.1            16876960       4.0353487      486.2215       4862.2083      16.553174    
  59524800   72581.878     -56.276649     -43882565       1.7176066      216136.44     -43666429       704.70558      704.70558      704.70558      2147.6472      2852.3528      2147.6472      2852.3528      2147.6472      2852.3528      3.4996381e+08  0.1            16876980       4.0763823      487.40549      4874.069       16.511416    
  59525000   72454.254     -56.335689     -43875657       1.7176066      215756.4      -43659901       704.70558      704.70558      704.70558      2147.6472      2852.3528      2147.6472      2852.3528      2147.6472      2852.3528      3.4996381e+08  0.1            16877000       4.1175987      485.24198      4852.4084      16.470404    
  59525200   72462.281     -56.895967     -43876119       1.7176066      215780.3      -43660338       704.70558      704.70558      704.70558      2147.6472      2852.3528      2147.6472      2852.3528      2147.6472      2852.3528      3.4996381e+08  0.1            16877020       4.158713       486.45028      4864.5085      16.428984    
  59525400   72660.893     -57.582876     -43876572       1.7176066      216371.73     -43660201       704.70558      704.70558      704.70558      2147.6472      2852.3528      2147.6472      2852.3528      2147.6472      2852.3528      3.4996381e+08  0.1            16877040       4.200614       477.31512      4773.1414      16.39064     
  59525600   73091.745     -58.409772     -43877019       1.7176066      217654.73     -43659364       704.70558      704.70558      704.70558      2147.6472      2852.3528      2147.6472      2852.3528      2147.6472      2852.3528      3.4996381e+08  0.1            16877060       4.2416808      487.01154      4870.1176      16.349012    
  59525800   73779.792     -59.264604     -43877458       1.7176066      219703.62     -43657755       704.70558      704.70558      704.70558      2147.6472      2852.3528      2147.6472      2852.3528      2147.6472      2852.3528      3.4996381e+08  0.1            16877080       4.2827656      486.79819      4867.9845      16.307462    
  59526000   74730.792     -59.574497     -43870510       1.7176066      222535.54     -43647975       704.70558      704.70558      704.70558      2147.6472      2852.3528      2147.6472      2852.3528      2147.6472      2852.3528      3.4996381e+08  0.1            16877100       4.3239537      485.57762      4855.7747      16.266311    
  59526200   75931.032     -59.604396     -43869035       1.7176066      226109.65     -43642925       704.70558      704.70558      704.70558      2147.6472      2852.3528      2147.6472      2852.3528      2147.6472      2852.3528      3.4996381e+08  0.1            16877120       4.3650512      486.64755      4866.4755      16.224821    
  59526400   77347.206     -59.494671     -43871342       1.7176066      230326.77     -43641015       704.70558      704.70558      704.70558      2147.6472      2852.3528      2147.6472      2852.3528      2147.6472      2852.3528      3.4996381e+08  0.1            16877140       4.4061063      487.15004      4871.5073      16.183184    
  59526600   78927.264     -59.073844     -43871747       1.7176066      235031.91     -43636715       704.70558      704.70558      704.70558      2147.6472      2852.3528      2147.6472      2852.3528      2147.6472      2852.3528      3.4996381e+08  0.1            16877160       4.4471897      486.8139       4868.132       16.14166     
  59526800   80604.725     -58.661848     -43872143       1.7176066      240027.11     -43632116       704.70558      704.70558      704.70558      2147.6472      2852.3528      2147.6472      2852.3528      2147.6472      2852.3528      3.4996381e+08  0.1            16877180       4.4882742      486.80222      4868.0261      16.100148    
  59527000   82305.618     -58.526301     -43872534       1.7176066      245092.07     -43627441       704.70558      704.70558      704.70558      2147.6472      2852.3528      2147.6472      2852.3528      2147.6472      2852.3528      3.4996381e+08  0.1            16877200       4.5294202      486.0727       4860.7262      16.058862    
  59527200   83954.726     -58.236709     -43869129       1.7176066      250002.84     -43619127       704.70558      704.70558      704.70558      2147.6472      2852.3528      2147.6472      2852.3528      2147.6472      2852.3528      3.4996381e+08  0.1            16877220       4.571422       476.16991      4761.7076      16.020577    
  59527400   85479.463     -58.532456     -43876888       1.7176066      254543.24     -43622345       704.70558      704.70558      704.70558      2147.6472      2852.3528      2147.6472      2852.3528      2147.6472      2852.3528      3.4996381e+08  0.1            16877240       4.6125486      486.30529      4863.0523      15.979194    
  59527600   86815.193     -57.867211     -43867988       1.7176066      258520.82     -43609467       704.70558      704.70558      704.70558      2147.6472      2852.3528      2147.6472      2852.3528      2147.6472      2852.3528      3.4996381e+08  0.1            16877260       4.6536755      486.299        4862.9727      15.937817    
  59527800   87911.88      -57.733294     -43866455       1.7176066      261786.57     -43604668       704.70558      704.70558      704.70558      2147.6472      2852.3528      2147.6472      2852.3528      2147.6472      2852.3528      3.4996381e+08  0.1            16877280       4.6948172      486.12471      4861.2516      15.896494    
  59528000   88737.874     -57.646553     -43864911       1.7176066      264246.23     -43600665       704.70558      704.70558      704.70558      2147.6472      2852.3528      2147.6472      2852.3528      2147.6472      2852.3528      3.4996381e+08  0.1            16877300       4.7360107      485.5134       4855.1339      15.855348    
  59528200   89283.355     -58.247326     -43872629       1.7176066      265870.59     -43606758       704.70558      704.70558      704.70558      2147.6472      2852.3528      2147.6472      2852.3528      2147.6472      2852.3528      3.4996381e+08  0.1            16877320       4.7770176      487.72336      4877.2327      15.813583    
  59528400   89562.277     -59.079415     -43880334       1.7176066      266701.17     -43613633       704.70558      704.70558      704.70558      2147.6472      2852.3528      2147.6472      2852.3528      2147.6472      2852.3528      3.4996381e+08  0.1            16877340       4.818071       487.16994      4871.707       15.771983    
  59528600   89611.659     -59.643752     -43880648       1.7176066      266848.22     -43613800       704.70558      704.70558      704.70558      2147.6472      2852.3528      2147.6472      2852.3528      2147.6472      2852.3528      3.4996381e+08  0.1            16877360       4.8591289      487.11041      4871.0787      15.73041     
  59528800   89489.289     -60.14091      -43880951       1.7176066      266483.82     -43614467       704.70558      704.70558      704.70558      2147.6472      2852.3528      2147.6472      2852.3528      2147.6472      2852.3528      3.4996381e+08  0.1            16877380       4.9001426      487.6492       4876.5082      15.688699    
  59529000   89266.224     -61.229212     -43888620       1.7176066      265819.57     -43622800       704.70558      704.70558      704.70558      2147.6472      2852.3528      2147.6472      2852.3528      2147.6472      2852.3528      3.4996381e+08  0.1            16877400       4.9413046      485.88333      4858.8443      15.647472    
  59529200   89020.097     -62.109055     -43890794       1.7176066      265086.65     -43625707       704.70558      704.70558      704.70558      2147.6472      2852.3528      2147.6472      2852.3528      2147.6472      2852.3528      3.4996381e+08  0.1            16877420       4.9830695      478.87283      4788.7202      15.608134    
  59529400   88828.002     -62.716881     -43891058       1.7176066      264514.62     -43626543       704.70558      704.70558      704.70558      2147.6472      2852.3528      2147.6472      2852.3528      2147.6472      2852.3528      3.4996381e+08  0.1            16877440       5.0240776      487.70707      4877.076       15.566412    
  59529600   88762.254     -63.146887     -43891309       1.7176066      264318.83     -43626991       704.70558      704.70558      704.70558      2147.6472      2852.3528      2147.6472      2852.3528      2147.6472      2852.3528      3.4996381e+08  0.1            16877460       5.0651092      487.4304       4874.3015      15.524772    
  59529800   88885.433     -63.355339     -43889656       1.7176066      264685.64     -43624971       704.70558      704.70558      704.70558      2147.6472      2852.3528      2147.6472      2852.3528      2147.6472      2852.3528      3.4996381e+08  0.1            16877480       5.1062207      486.48179      4864.8166      15.483386    
  59530000   89244.336     -63.729461     -43887993       1.7176066      265754.39     -43622239       704.70558      704.70558      704.70558      2147.6472      2852.3528      2147.6472      2852.3528      2147.6472      2852.3528      3.4996381e+08  0.1            16877500       5.1472409      487.56584      4875.6599      15.441729    
  59530200   89868.972     -64.166124     -43888212       1.7176066      267614.45     -43620598       704.70558      704.70558      704.70558      2147.6472      2852.3528      2147.6472      2852.3528      2147.6472      2852.3528      3.4996381e+08  0.1            16877520       5.1882192      488.05806      4880.5839      15.39996     
  59530400   90770.496     -63.875023     -43881042       1.7176066      270299.04     -43610743       704.70558      704.70558      704.70558      2147.6472      2852.3528      2147.6472      2852.3528      2147.6472      2852.3528      3.4996381e+08  0.1            16877540       5.2293044      486.79657      4867.9641      15.358515    
  59530600   91938.787     -63.510934     -43881239       1.7176066      273778.01     -43607461       704.70558      704.70558      704.70558      2147.6472      2852.3528      2147.6472      2852.3528      2147.6472      2852.3528      3.4996381e+08  0.1            16877560       5.2703166      487.66026      4876.6029      15.316864    
  59530800   93342.129     -63.660124     -43896546       1.7176066      277956.92     -43618590       704.70558      704.70558      704.70558      2147.6472      2852.3528      2147.6472      2852.3528      2147.6472      2852.3528      3.4996381e+08  0.1            16877580       5.3113317      487.62467      4876.248       15.275232    
  59531000   94929.36      -63.06346      -43898613       1.7176066      282683.42     -43615930       704.70558      704.70558      704.70558      2147.6472      2852.3528      2147.6472      2852.3528      2147.6472      2852.3528      3.4996381e+08  0.1            16877600       5.3524373      486.55281      4865.5274      15.233866    
  59531200   96634.462     -62.314982     -43900668       1.7176066      287760.93     -43612908       704.70558      704.70558      704.70558      2147.6472      2852.3528      2147.6472      2852.3528      2147.6472      2852.3528      3.4996381e+08  0.1            16877620       5.3935526      486.43567      4864.3567      15.192533    
  59531400   98381.503     -60.954074     -43900819       1.7176066      292963.32     -43607856       704.70558      704.70558      704.70558      2147.6472      2852.3528      2147.6472      2852.3528      2147.6472      2852.3528      3.4996381e+08  0.1            16877640       5.4346755      486.34546      4863.4519      15.151223    
  59531600   100090.73     -59.74001      -43900961       1.7176066      298053.1      -43602907       704.70558      704.70558      704.70558      2147.6472      2852.3528      2147.6472      2852.3528      2147.6472      2852.3528      3.4996381e+08  0.1            16877660       5.4759424      484.65178      4846.5222      15.110313    
  59531800   101684.57     -58.614677     -43891819       1.7176066      302799.29     -43589020       704.70558      704.70558      704.70558      2147.6472      2852.3528      2147.6472      2852.3528      2147.6472      2852.3528      3.4996381e+08  0.1            16877680       5.5169476      487.74321      4877.4274      15.068684    
  59532000   103093.15     -58.590952     -43892306       1.7176066      306993.79     -43585312       704.70558      704.70558      704.70558      2147.6472      2852.3528      2147.6472      2852.3528      2147.6472      2852.3528      3.4996381e+08  0.1            16877700       5.5591945      473.40774      4734.0883      15.030421    
  59532200   104262.14     -58.715114     -43894307       1.7176066      310474.84     -43583833       704.70558      704.70558      704.70558      2147.6472      2852.3528      2147.6472      2852.3528      2147.6472      2852.3528      3.4996381e+08  0.1            16877720       5.6002414      487.24767      4872.4649      14.988887    
  59532400   105155.47     -58.110627     -43884763       1.7176066      313135.03     -43571628       704.70558      704.70558      704.70558      2147.6472      2852.3528      2147.6472      2852.3528      2147.6472      2852.3528      3.4996381e+08  0.1            16877740       5.6413048      487.05168      4870.52        14.947405    
  59532600   105757.54     -58.163308     -43884848       1.7176066      314927.9      -43569920       704.70558      704.70558      704.70558      2147.6472      2852.3528      2147.6472      2852.3528      2147.6472      2852.3528      3.4996381e+08  0.1            16877760       5.6831264      478.22058      4782.2085      14.907917    
  59532800   106077.16     -58.538823     -43883024       1.7176066      315879.66     -43567144       704.70558      704.70558      704.70558      2147.6472      2852.3528      2147.6472      2852.3528      2147.6472      2852.3528      3.4996381e+08  0.1            16877780       5.7241834      487.12792      4871.2719      14.866411    
  59533000   106149.18     -59.41526      -43890463       1.7176066      316094.13     -43574369       704.70558      704.70558      704.70558      2147.6472      2852.3528      2147.6472      2852.3528      2147.6472      2852.3528      3.4996381e+08  0.1            16877800       5.7651568      488.12261      4881.2332      14.824695    
  59533200   106029.09     -58.478863     -43875760       1.7176066      315736.53     -43560024       704.70558      704.70558      704.70558      2147.6472      2852.3528      2147.6472      2852.3528      2147.6472      2852.3528      3.4996381e+08  0.1            16877820       5.8061225      488.2131       4882.1208      14.78297     
  59533400   105785.67     -57.921339     -43875800       1.7176066      315011.67     -43560788       704.70558      704.70558      704.70558      2147.6472      2852.3528      2147.6472      2852.3528      2147.6472      2852.3528      3.4996381e+08  0.1            16877840       5.8470872      488.22486      4882.2539      14.741254    
  59533600   105498.2      -57.013634     -43875825       1.7176066      314155.62     -43561669       704.70558      704.70558      704.70558      2147.6472      2852.3528      2147.6472      2852.3528      2147.6472      2852.3528      3.4996381e+08  0.1            16877860       5.8880141      488.67749      4886.7737      14.699453    
  59533800   105248.02     -56.311858     -43875836       1.7176066      313410.62     -43562425       704.70558      704.70558      704.70558      2147.6472      2852.3528      2147.6472      2852.3528      2147.6472      2852.3528      3.4996381e+08  0.1            16877880       5.9290002      487.96936      4879.693       14.657812    
  59534000   105111.78     -56.09563      -43875831       1.7176066      313004.93     -43562826       704.70558      704.70558      704.70558      2147.6472      2852.3528      2147.6472      2852.3528      2147.6472      2852.3528      3.4996381e+08  0.1            16877900       5.9700426      487.3018       4873.0157      14.616317    
  59534200   105158.71     -56.276038     -43875816       1.7176066      313144.67     -43562671       704.70558      704.70558      704.70558      2147.6472      2852.3528      2147.6472      2852.3528      2147.6472      2852.3528      3.4996381e+08  0.1            16877920       6.0110689      487.49226      4874.9268      14.574789    
  59534400   105442.37     -56.394615     -43876159       1.7176066      313989.38     -43562170       704.70558      704.70558      704.70558      2147.6472      2852.3528      2147.6472      2852.3528      2147.6472      2852.3528      3.4996381e+08  0.1            16877940       6.0520858      487.60183      4876.0179      14.533246    
  59534600   105997.61     -56.189605     -43876121       1.7176066      315642.77     -43560478       704.70558      704.70558      704.70558      2147.6472      2852.3528      2147.6472      2852.3528      2147.6472      2852.3528      3.4996381e+08  0.1            16877960       6.0931322      487.25208      4872.5065      14.49178     
  59534800   106840.54     -55.869092     -43868691       1.7176066      318152.88     -43550538       704.70558      704.70558      704.70558      2147.6472      2852.3528      2147.6472      2852.3528      2147.6472      2852.3528      3.4996381e+08  0.1            16877980       6.1341776      487.26823      4872.6971      14.450316    
  59535000   107966.08     -56.243967     -43870524       1.7176066      321504.54     -43549020       704.70558      704.70558      704.70558      2147.6472      2852.3528      2147.6472      2852.3528      2147.6472      2852.3528      3.4996381e+08  0.1            16878000       6.1753286      486.01396      4860.1388      14.409105    
  59535200   109347.38     -55.810024     -43868560       1.7176066      325617.83     -43542943       704.70558      704.70558      704.70558      2147.6472      2852.3528      2147.6472      2852.3528      2147.6472      2852.3528      3.4996381e+08  0.1            16878020       6.2163365      487.71186      4877.1153      14.367565    
  59535400   110935.15     -54.396719     -43861107       1.7176066      330345.92     -43530762       704.70558      704.70558      704.70558      2147.6472      2852.3528      2147.6472      2852.3528      2147.6472      2852.3528      3.4996381e+08  0.1            16878040       6.2574343      486.64435      4866.4481      14.326236    
  59535600   112661.07     -52.925952     -43861020       1.7176066      335485.42     -43525535       704.70558      704.70558      704.70558      2147.6472      2852.3528      2147.6472      2852.3528      2147.6472      2852.3528      3.4996381e+08  0.1            16878060       6.2988416      483.00197      4830.0045      14.285614    
  59535800   114445.72     -51.409409     -43860917       1.7176066      340799.8      -43520117       704.70558      704.70558      704.70558      2147.6472      2852.3528      2147.6472      2852.3528      2147.6472      2852.3528      3.4996381e+08  0.1            16878080       6.3407598      477.12392      4771.2481      14.246128    
  59536000   116206.77     -50.210119     -43866652       1.7176066      346043.93     -43520608       704.70558      704.70558      704.70558      2147.6472      2852.3528      2147.6472      2852.3528      2147.6472      2852.3528      3.4996381e+08  0.1            16878100       6.3818145      487.15536      4871.5574      14.204689    
  59536200   117863.17     -48.953886     -43868417       1.7176066      350976.4      -43517441       704.70558      704.70558      704.70558      2147.6472      2852.3528      2147.6472      2852.3528      2147.6472      2852.3528      3.4996381e+08  0.1            16878120       6.4228612      487.24928      4872.4921      14.163237    
  59536400   119341.17     -47.77317      -43868273       1.7176066      355377.63     -43512896       704.70558      704.70558      704.70558      2147.6472      2852.3528      2147.6472      2852.3528      2147.6472      2852.3528      3.4996381e+08  0.1            16878140       6.4639382      486.89043      4868.909       14.121857    
  59536600   120581.65     -45.996064     -43864329       1.7176066      359071.55     -43505257       704.70558      704.70558      704.70558      2147.6472      2852.3528      2147.6472      2852.3528      2147.6472      2852.3528      3.4996381e+08  0.1            16878160       6.5049553      487.60176      4876.0162      14.080351    
  59536800   121543.91     -44.652118     -43864166       1.7176066      361937.02     -43502229       704.70558      704.70558      704.70558      2147.6472      2852.3528      2147.6472      2852.3528      2147.6472      2852.3528      3.4996381e+08  0.1            16878180       6.5469285      476.49202      4764.9258      14.040902    
  59537000   122208.37     -43.40586      -43854726       1.7176066      363915.66     -43490810       704.70558      704.70558      704.70558      2147.6472      2852.3528      2147.6472      2852.3528      2147.6472      2852.3528      3.4996381e+08  0.1            16878200       6.5880472      486.39942      4863.9904      13.999605    
  59537200   122578.51     -42.996747     -43854548       1.7176066      365017.88     -43489530       704.70558      704.70558      704.70558      2147.6472      2852.3528      2147.6472      2852.3528      2147.6472      2852.3528      3.4996381e+08  0.1            16878220       6.6291129      487.02464      4870.2484      13.958199    
  59537400   122682.89     -43.084118     -43861737       1.7176066      365328.69     -43496408       704.70558      704.70558      704.70558      2147.6472      2852.3528      2147.6472      2852.3528      2147.6472      2852.3528      3.4996381e+08  0.1            16878240       6.6700879      488.10203      4881.0147      13.916608    
  59537600   122573.02     -42.906634     -43861537       1.7176066      365001.52     -43496536       704.70558      704.70558      704.70558      2147.6472      2852.3528      2147.6472      2852.3528      2147.6472      2852.3528      3.4996381e+08  0.1            16878260       6.7111619      486.92649      4869.2657      13.875229    
  59537800   122318.95     -42.289803     -43855845       1.7176066      364244.94     -43491600       704.70558      704.70558      704.70558      2147.6472      2852.3528      2147.6472      2852.3528      2147.6472      2852.3528      3.4996381e+08  0.1            16878280       6.7522078      487.25981      4872.6005      13.833796    
  59538000   122000.54     -42.58641      -43863004       1.7176066      363296.79     -43499707       704.70558      704.70558      704.70558      2147.6472      2852.3528      2147.6472      2852.3528      2147.6472      2852.3528      3.4996381e+08  0.1            16878300       6.793338       486.2597       4862.5897      13.792539    
  59538200   121702.13     -43.203194     -43870152       1.7176066      362408.16     -43507744       704.70558      704.70558      704.70558      2147.6472      2852.3528      2147.6472      2852.3528      2147.6472      2852.3528      3.4996381e+08  0.1            16878320       6.834405       487.00813      4870.0869      13.751157    
  59538400   121505.85     -43.804938     -43879186       1.7176066      361823.68     -43517363       704.70558      704.70558      704.70558      2147.6472      2852.3528      2147.6472      2852.3528      2147.6472      2852.3528      3.4996381e+08  0.1            16878340       6.875385       488.04316      4880.4339      13.709605    
  59538600   121484.73     -42.404512     -43856807       1.7176066      361760.79     -43495047       704.70558      704.70558      704.70558      2147.6472      2852.3528      2147.6472      2852.3528      2147.6472      2852.3528      3.4996381e+08  0.1            16878360       6.9163518      488.19999      4881.9952      13.668033    
  59538800   121697.85     -41.601964     -43856187       1.7176066      362395.4      -43493792       704.70558      704.70558      704.70558      2147.6472      2852.3528      2147.6472      2852.3528      2147.6472      2852.3528      3.4996381e+08  0.1            16878380       6.9573929      487.31749      4873.1758      13.626614    
  59539000   122186.41     -40.468761     -43848551       1.7176066      363850.27     -43484701       704.70558      704.70558      704.70558      2147.6472      2852.3528      2147.6472      2852.3528      2147.6472      2852.3528      3.4996381e+08  0.1            16878400       6.9991516      478.94152      4789.41        13.586593    
  59539200   122971.83     -39.936877     -43855665       1.7176066      366189.11     -43489476       704.70558      704.70558      704.70558      2147.6472      2852.3528      2147.6472      2852.3528      2147.6472      2852.3528      3.4996381e+08  0.1            16878420       7.0402309      486.86308      4868.6349      13.545244    
  59539400   124051.93     -38.574334     -43855393       1.7176066      369405.47     -43485988       704.70558      704.70558      704.70558      2147.6472      2852.3528      2147.6472      2852.3528      2147.6472      2852.3528      3.4996381e+08  0.1            16878440       7.0811578      488.67684      4886.7692      13.503608    
  59539600   125399.5      -36.815036     -43857001       1.7176066      373418.31     -43483583       704.70558      704.70558      704.70558      2147.6472      2852.3528      2147.6472      2852.3528      2147.6472      2852.3528      3.4996381e+08  0.1            16878460       7.1221339      488.08811      4880.8827      13.462073    
  59539800   126968.85     -35.063576     -43856702       1.7176066      378091.55     -43478611       704.70558      704.70558      704.70558      2147.6472      2852.3528      2147.6472      2852.3528      2147.6472      2852.3528      3.4996381e+08  0.1            16878480       7.1632619      486.28732      4862.8728      13.420828    
  59540000   128695.82     -34.017428     -43856396       1.7176066      383234.17     -43473162       704.70558      704.70558      704.70558      2147.6472      2852.3528      2147.6472      2852.3528      2147.6472      2852.3528      3.4996381e+08  0.1            16878500       7.2043431      486.84092      4868.4111      13.379498    
  59540200   130502.09     -32.735368     -43856079       1.7176066      388612.93     -43467466       704.70558      704.70558      704.70558      2147.6472      2852.3528      2147.6472      2852.3528      2147.6472      2852.3528      3.4996381e+08  0.1            16878520       7.245489       486.07382      4860.733       13.338291    
  59540400   132302.31     -31.254585     -43863129       1.7176066      393973.7      -43469156       704.70558      704.70558      704.70558      2147.6472      2852.3528      2147.6472      2852.3528      2147.6472      2852.3528      3.4996381e+08  0.1            16878540       7.2865366      487.24125      4872.4093      13.296904    
  59540600   134012.85     -29.297992     -43860897       1.7176066      399067.38     -43461830       704.70558      704.70558      704.70558      2147.6472      2852.3528      2147.6472      2852.3528      2147.6472      2852.3528      3.4996381e+08  0.1            16878560       7.3276296      486.69946      4867.0016      13.255604    
  59540800   135558.43     -28.477022     -43862453       1.7176066      403669.87     -43458783       704.70558      704.70558      704.70558      2147.6472      2852.3528      2147.6472      2852.3528      2147.6472      2852.3528      3.4996381e+08  0.1            16878580       7.3686404      487.67742      4876.7719      13.214158    
  59541000   136872.53     -28.130024     -43862476       1.7176066      407583.02     -43454893       704.70558      704.70558      704.70558      2147.6472      2852.3528      2147.6472      2852.3528      2147.6472      2852.3528      3.4996381e+08  0.1            16878600       7.4096905      487.21035      4872.1104      13.172787    
  59541200   137906.95     -27.589744     -43862490       1.7176066      410663.35     -43451826       704.70558      704.70558      704.70558      2147.6472      2852.3528      2147.6472      2852.3528      2147.6472      2852.3528      3.4996381e+08  0.1            16878620       7.4507928      486.58978      4865.8967      13.131512    
  59541400   138635.9      -27.2345       -43867608       1.7176066      412834.05     -43454774       704.70558      704.70558      704.70558      2147.6472      2852.3528      2147.6472      2852.3528      2147.6472      2852.3528      3.4996381e+08  0.1            16878640       7.4918391      487.25502      4872.5489      13.09014     
  59541600   139058.36     -26.638352     -43867233       1.7176066      414092.06     -43453141       704.70558      704.70558      704.70558      2147.6472      2852.3528      2147.6472      2852.3528      2147.6472      2852.3528      3.4996381e+08  0.1            16878660       7.5328772      487.34998      4873.4947      13.048759    
  59541800   139198.24     -25.791346     -43866845       1.7176066      414508.58     -43452336       704.70558      704.70558      704.70558      2147.6472      2852.3528      2147.6472      2852.3528      2147.6472      2852.3528      3.4996381e+08  0.1            16878680       7.5756843      467.21237      4672.1298      13.010418    
  59542000   139104.24     -25.340497     -43873824       1.7176066      414228.69     -43459595       704.70558      704.70558      704.70558      2147.6472      2852.3528      2147.6472      2852.3528      2147.6472      2852.3528      3.4996381e+08  0.1            16878700       7.6167958      486.48448      4864.8322      12.969143    
  59542200   138845.07     -24.297087     -43873417       1.7176066      413456.91     -43459960       704.70558      704.70558      704.70558      2147.6472      2852.3528      2147.6472      2852.3528      2147.6472      2852.3528      3.4996381e+08  0.1            16878720       7.6578878      486.70925      4867.1021      12.927836    
  59542400   138502.15     -23.647057     -43873004       1.7176066      412435.76     -43460568       704.70558      704.70558      704.70558      2147.6472      2852.3528      2147.6472      2852.3528      2147.6472      2852.3528      3.4996381e+08  0.1            16878740       7.6990699      485.64984      4856.4971      12.886682    
  59542600   138162.34     -22.673582     -43865208       1.7176066      411423.86     -43453784       704.70558      704.70558      704.70558      2147.6472      2852.3528      2147.6472      2852.3528      2147.6472      2852.3528      3.4996381e+08  0.1            16878760       7.7401624      486.70636      4867.0659      12.84538     
  59542800   137911.93     -21.862425     -43855515       1.7176066      410678.17     -43444837       704.70558      704.70558      704.70558      2147.6472      2852.3528      2147.6472      2852.3528      2147.6472      2852.3528      3.4996381e+08  0.1            16878780       7.7812639      486.60187      4866.0175      12.804094    
  59543000   137828.05     -20.83975      -43855095       1.7176066      410428.39     -43444667       704.70558      704.70558      704.70558      2147.6472      2852.3528      2147.6472      2852.3528      2147.6472      2852.3528      3.4996381e+08  0.1            16878800       7.8224479      485.62595      4856.2597      12.762945    
  59543200   137972.8      -19.50885      -43854667       1.7176066      410859.45     -43443807       704.70558      704.70558      704.70558      2147.6472      2852.3528      2147.6472      2852.3528      2147.6472      2852.3528      3.4996381e+08  0.1            16878820       7.8635967      486.03939      4860.3919      12.721739    
  59543400   138392.12     -18.508211     -43854228       1.7176066      412108.09     -43442120       704.70558      704.70558      704.70558      2147.6472      2852.3528      2147.6472      2852.3528      2147.6472      2852.3528      3.4996381e+08  0.1            16878840       7.905019       482.83154      4828.3215      12.680972    
  59543600   139112.14     -17.184881     -43848295       1.7176066      414252.2      -43434043       704.70558      704.70558      704.70558      2147.6472      2852.3528      2147.6472      2852.3528      2147.6472      2852.3528      3.4996381e+08  0.1            16878860       7.9461765      485.93465      4859.3312      12.639777    
  59543800   140137.83     -15.478172     -43842357       1.7176066      417306.53     -43425051       704.70558      704.70558      704.70558      2147.6472      2852.3528      2147.6472      2852.3528      2147.6472      2852.3528      3.4996381e+08  0.1            16878880       7.9872874      486.4925       4864.9288      12.598509    
  59544000   141449.4      -13.38757      -43841899       1.7176066      421212.17     -43420687       704.70558      704.70558      704.70558      2147.6472      2852.3528      2147.6472      2852.3528      2147.6472      2852.3528      3.4996381e+08  0.1            16878900       8.0285305      484.92871      4849.2874      12.557449    
  59544200   143001.35     -11.419849     -43841432       1.7176066      425833.61     -43415599       704.70558      704.70558      704.70558      2147.6472      2852.3528      2147.6472      2852.3528      2147.6472      2852.3528      3.4996381e+08  0.1            16878920       8.0696882      485.93456      4859.3509      12.516255    
  59544400   144729.15     -10.517712     -43848333       1.7176066      430978.69     -43417354       704.70558      704.70558      704.70558      2147.6472      2852.3528      2147.6472      2852.3528      2147.6472      2852.3528      3.4996381e+08  0.1            16878940       8.1117005      476.05104      4760.5219      12.476376    
  59544600   146555.24     -9.4391271     -43855225       1.7176066      436416.48     -43418809       704.70558      704.70558      704.70558      2147.6472      2852.3528      2147.6472      2852.3528      2147.6472      2852.3528      3.4996381e+08  0.1            16878960       8.152872       485.77466      4857.7267      12.435192    
  59544800   148393.51     -7.3855983     -43856628       1.7176066      441890.54     -43414737       704.70558      704.70558      704.70558      2147.6472      2852.3528      2147.6472      2852.3528      2147.6472      2852.3528      3.4996381e+08  0.1            16878980       8.1939623      486.7337       4867.3393      12.393886    
  59545000   150155.6      -4.663499      -43848747       1.7176066      447137.74     -43401609       704.70558      704.70558      704.70558      2147.6472      2852.3528      2147.6472      2852.3528      2147.6472      2852.3528      3.4996381e+08  0.1            16879000       8.2351029      486.13734      4861.3786      12.352658    
  59545200   151762.28     -2.2717869     -43840863       1.7176066      451922.15     -43388941       704.70558      704.70558      704.70558      2147.6472      2852.3528      2147.6472      2852.3528      2147.6472      2852.3528      3.4996381e+08  0.1            16879020       8.2762712      485.81044      4858.1057      12.311472    
  59545400   153143.2      -0.51257892    -43838456       1.7176066      456034.3      -43382421       704.70558      704.70558      704.70558      2147.6472      2852.3528      2147.6472      2852.3528      2147.6472      2852.3528      3.4996381e+08  0.1            16879040       8.3174389      485.8157       4858.142       12.270285    
  59545600   154247.32      0.42318619    -43845320       1.7176066      459322.18     -43385997       704.70558      704.70558      704.70558      2147.6472      2852.3528      2147.6472      2852.3528      2147.6472      2852.3528      3.4996381e+08  0.1            16879060       8.3585399      486.60666      4866.0814      12.229       
  59545800   155042.6       1.5923225     -43844799       1.7176066      461690.39     -43383109       704.70558      704.70558      704.70558      2147.6472      2852.3528      2147.6472      2852.3528      2147.6472      2852.3528      3.4996381e+08  0.1            16879080       8.3996147      486.9165       4869.1633      12.18768     
  59546000   155520.84      2.392836      -43844268       1.7176066      463114.5      -43381154       704.70558      704.70558      704.70558      2147.6472      2852.3528      2147.6472      2852.3528      2147.6472      2852.3528      3.4996381e+08  0.1            16879100       8.4407839      485.80298      4858.026       12.146497    
  59546200   155701.72      3.6691014     -43836346       1.7176066      463653.13     -43372693       704.70558      704.70558      704.70558      2147.6472      2852.3528      2147.6472      2852.3528      2147.6472      2852.3528      3.4996381e+08  0.1            16879120       8.4818168      487.414        4874.135       12.105121    
  59546400   155631.52      4.155433      -43843173       1.7176066      463444.09     -43379729       704.70558      704.70558      704.70558      2147.6472      2852.3528      2147.6472      2852.3528      2147.6472      2852.3528      3.4996381e+08  0.1            16879140       8.5228145      487.83195      4878.3302      12.063697    
  59546600   155375.41      5.0313403     -43842614       1.7176066      462681.43     -43379933       704.70558      704.70558      704.70558      2147.6472      2852.3528      2147.6472      2852.3528      2147.6472      2852.3528      3.4996381e+08  0.1            16879160       8.5648668      475.59846      4755.9802      12.023758    
  59546800   155014.08      5.356937      -43841679       1.7176066      461605.45     -43380074       704.70558      704.70558      704.70558      2147.6472      2852.3528      2147.6472      2852.3528      2147.6472      2852.3528      3.4996381e+08  0.1            16879180       8.6059266      487.09176      4870.9225      11.982418    
  59547000   154637.07      4.6083734     -43855867       1.7176066      460482.78     -43395384       704.70558      704.70558      704.70558      2147.6472      2852.3528      2147.6472      2852.3528      2147.6472      2852.3528      3.4996381e+08  0.1            16879200       8.6481245      473.95576      4739.5529      11.942652    
  59547200   154333.89      5.4393871     -43855299       1.7176066      459579.96     -43395719       704.70558      704.70558      704.70558      2147.6472      2852.3528      2147.6472      2852.3528      2147.6472      2852.3528      3.4996381e+08  0.1            16879220       8.6894026      484.52104      4845.2098      11.901602    
  59547400   154185.9       6.6761364     -43852836       1.7176066      459139.28     -43393697       704.70558      704.70558      704.70558      2147.6472      2852.3528      2147.6472      2852.3528      2147.6472      2852.3528      3.4996381e+08  0.1            16879240       8.7305045      486.59618      4865.9609      11.860312    
  59547600   154259.23      8.1946565     -43852258       1.7176066      459357.65     -43392900       704.70558      704.70558      704.70558      2147.6472      2852.3528      2147.6472      2852.3528      2147.6472      2852.3528      3.4996381e+08  0.1            16879260       8.7716182      486.45615      4864.5631      11.819038    
  59547800   154606.02      9.6506602     -43859047       1.7176066      460390.34     -43398657       704.70558      704.70558      704.70558      2147.6472      2852.3528      2147.6472      2852.3528      2147.6472      2852.3528      3.4996381e+08  0.1            16879280       8.8127382      486.38203      4863.8266      11.777775    
  59548000   155260.72      11.162834     -43858457       1.7176066      462339.91     -43396117       704.70558      704.70558      704.70558      2147.6472      2852.3528      2147.6472      2852.3528      2147.6472      2852.3528      3.4996381e+08  0.1            16879300       8.8539064      485.81106      4858.1072      11.736577    
  59548200   156231.99      12.66281      -43859759       1.7176066      465232.19     -43394527       704.70558      704.70558      704.70558      2147.6472      2852.3528      2147.6472      2852.3528      2147.6472      2852.3528      3.4996381e+08  0.1            16879320       8.8950364      486.26346      4862.6342      11.695329    
  59548400   157500.76      14.54738      -43859155       1.7176066      469010.37     -43390145       704.70558      704.70558      704.70558      2147.6472      2852.3528      2147.6472      2852.3528      2147.6472      2852.3528      3.4996381e+08  0.1            16879340       8.9362382      485.41269      4854.1283      11.654176    
  59548600   159027.08      16.23875      -43860437       1.7176066      473555.48     -43386881       704.70558      704.70558      704.70558      2147.6472      2852.3528      2147.6472      2852.3528      2147.6472      2852.3528      3.4996381e+08  0.1            16879360       8.9773114      486.93888      4869.3848      11.612855    
  59548800   160750.26      18.322386     -43859819       1.7176066      478686.83     -43381132       704.70558      704.70558      704.70558      2147.6472      2852.3528      2147.6472      2852.3528      2147.6472      2852.3528      3.4996381e+08  0.1            16879380       9.0183707      487.09991      4871.0025      11.57152     
  59549000   162589.48      20.548234     -43859187       1.7176066      484163.71     -43375024       704.70558      704.70558      704.70558      2147.6472      2852.3528      2147.6472      2852.3528      2147.6472      2852.3528      3.4996381e+08  0.1            16879400       9.0595972      485.12452      4851.2481      11.530399    
  59549200   164457.07      22.826967     -43858173       1.7176066      489725.07     -43368448       704.70558      704.70558      704.70558      2147.6472      2852.3528      2147.6472      2852.3528      2147.6472      2852.3528      3.4996381e+08  0.1            16879420       9.1006946      486.64896      4866.4887      11.489115    
  59549400   166264.35      24.554091     -43857516       1.7176066      495106.85     -43362409       704.70558      704.70558      704.70558      2147.6472      2852.3528      2147.6472      2852.3528      2147.6472      2852.3528      3.4996381e+08  0.1            16879440       9.1425933      477.3398       4773.3918      11.448836    
  59549600   167925.86      26.250406     -43856847       1.7176066      500054.52     -43356793       704.70558      704.70558      704.70558      2147.6472      2852.3528      2147.6472      2852.3528      2147.6472      2852.3528      3.4996381e+08  0.1            16879460       9.1836848      486.72028      4867.2042      11.40754     
  59549800   169368.81      28.323745     -43848790       1.7176066      504351.39     -43344439       704.70558      704.70558      704.70558      2147.6472      2852.3528      2147.6472      2852.3528      2147.6472      2852.3528      3.4996381e+08  0.1            16879480       9.2248384      485.98411      4859.8451      11.366322    
[...]
  60194400   305.65187      1.3741302     -44094451       1.7201796      910.17907     -44093541       704.35404      704.35404      704.35404      2147.823       2852.177       2147.823       2852.177       2147.823       2852.177       3.4944033e+08  0.1            16943940       68.558584      424.10518      4241.0567      2.51113      
  60194600   305.64014      5.4348417     -44094518       1.7203021      910.14416     -44093608       704.33732      704.33732      704.33732      2147.8313      2852.1687      2147.8313      2852.1687      2147.8313      2852.1687      3.4941545e+08  0.1            16943960       68.606711      415.56772      4155.6773      2.463777     
  60194800   305.59989     -3.466892      -44094587       1.7200492      910.02428     -44093677       704.37185      704.37185      704.37185      2147.8141      2852.1859      2147.8141      2852.1859      2147.8141      2852.1859      3.4946684e+08  0.1            16943980       68.653887      423.93907      4239.3907      2.4163895    
  60195000   305.56508     -0.83686232    -44094656       1.7201301      909.92062     -44093746       704.3608       704.3608       704.3608       2147.8196      2852.1804      2147.8196      2852.1804      2147.8196      2852.1804      3.494504e+08   0.1            16944000       68.701158      423.09799      4230.9516      2.3690055    
  60195200   305.63997      8.5902794     -44094721       1.7204081      910.14363     -44093811       704.32286      704.32286      704.32286      2147.8386      2852.1614      2147.8386      2852.1614      2147.8386      2852.1614      3.4939393e+08  0.1            16944020       68.748404      423.31663      4233.1992      2.3216209    
  60195400   305.6619       5.0999875     -44094791       1.7203117      910.20893     -44093881       704.33602      704.33602      704.33602      2147.832       2852.168       2147.832       2852.168       2147.832       2852.168       3.4941351e+08  0.1            16944040       68.795687      422.98068      4229.805       2.2742377    
  60195600   305.59895     -5.6938332     -44087482       1.719993       910.0215      -44086572       704.37951      704.37951      704.37951      2147.8102      2852.1898      2147.8102      2852.1898      2147.8102      2852.1898      3.4947824e+08  0.1            16944060       68.842841      424.14236      4241.4194      2.2268504    
  60195800   305.63025      6.2622587     -44094927       1.720355       910.11469     -44094017       704.33011      704.33011      704.33011      2147.8349      2852.1651      2147.8349      2852.1651      2147.8349      2852.1651      3.4940472e+08  0.1            16944080       68.890063      423.53064      4235.2937      2.1794656    
  60196000   305.55379     -2.9586818     -44087619       1.7200818      909.88702     -44086709       704.36739      704.36739      704.36739      2147.8163      2852.1837      2147.8163      2852.1837      2147.8163      2852.1837      3.494602e+08   0.1            16944100       68.937328      423.14588      4231.4768      2.1320824    
  60196200   305.61966      3.1481351     -44095065       1.7202744      910.08315     -44094155       704.34111      704.34111      704.34111      2147.8294      2852.1706      2147.8294      2852.1706      2147.8294      2852.1706      3.4942108e+08  0.1            16944120       68.984493      424.04829      4240.4841      2.0846963    
  60196400   305.65609      4.4643939     -44095133       1.7203173      910.19164     -44094223       704.33525      704.33525      704.33525      2147.8324      2852.1676      2147.8324      2852.1676      2147.8324      2852.1676      3.4941237e+08  0.1            16944140       69.031676      423.87739      4238.7651      2.037311     
  60196600   305.59088     -6.7412692     -44087822       1.7199872      909.99745     -44086912       704.38031      704.38031      704.38031      2147.8098      2852.1902      2147.8098      2852.1902      2147.8098      2852.1902      3.4947944e+08  0.1            16944160       69.078874      423.74681      4237.4441      1.9899265    
  60196800   305.58833     -5.1753421     -44087891       1.7200372      909.98988     -44086981       704.37348      704.37348      704.37348      2147.8133      2852.1867      2147.8133      2852.1867      2147.8133      2852.1867      3.4946926e+08  0.1            16944180       69.126095      423.54583      4235.4869      1.9425428    
  60197000   305.57629      3.8900856     -44087960       1.7203039      909.95401     -44087050       704.33709      704.33709      704.33709      2147.8315      2852.1685      2147.8315      2852.1685      2147.8315      2852.1685      3.494151e+08   0.1            16944200       69.173269      423.95573      4239.5525      1.8951581    
  60197200   305.6066       1.0039201     -44088029       1.7202252      910.04426     -44087119       704.34782      704.34782      704.34782      2147.8261      2852.1739      2147.8261      2852.1739      2147.8261      2852.1739      3.4943107e+08  0.1            16944220       69.220412      424.24335      4242.4336      1.8477729    
  60197400   305.63112     -0.92377962    -44088097       1.7201743      910.11729     -44087187       704.35476      704.35476      704.35476      2147.8226      2852.1774      2147.8226      2852.1774      2147.8226      2852.1774      3.4944141e+08  0.1            16944240       69.267622      423.63685      4236.3692      1.8003897    
  60197600   305.62286      3.8120358     -44088165       1.7203157      910.0927      -44087255       704.33548      704.33548      704.33548      2147.8323      2852.1677      2147.8323      2852.1677      2147.8323      2852.1677      3.494127e+08   0.1            16944260       69.314799      423.9367       4239.3497      1.7530059    
  60197800   305.59253     -1.8425764     -44088233       1.7201572      910.00237     -44087323       704.3571       704.3571       704.3571       2147.8215      2852.1785      2147.8215      2852.1785      2147.8215      2852.1785      3.4944488e+08  0.1            16944280       69.36192       424.43969      4244.419       1.705621     
  60198000   305.56487      3.3536416     -44088301       1.7203116      909.91999     -44087391       704.33603      704.33603      704.33603      2147.832       2852.168       2147.832       2852.168       2147.832       2852.168       3.4941352e+08  0.1            16944300       69.409123      423.70306      4237.0294      1.6582385    
  60198200   305.59309     -0.68122646    -44088370       1.7201999      910.00403     -44087460       704.35127      704.35127      704.35127      2147.8244      2852.1756      2147.8244      2852.1756      2147.8244      2852.1756      3.4943621e+08  0.1            16944320       69.457189      416.09163      4160.9148      1.6108762    
  60198400   305.63359      2.0567103     -44088437       1.7202833      910.12463     -44087527       704.33989      704.33989      704.33989      2147.8301      2852.1699      2147.8301      2852.1699      2147.8301      2852.1699      3.4941928e+08  0.1            16944340       69.504325      424.30663      4243.0692      1.563492     
  60198600   305.60148      0.39363694    -44088506       1.7202399      910.02903     -44087596       704.34581      704.34581      704.34581      2147.8271      2852.1729      2147.8271      2852.1729      2147.8271      2852.1729      3.4942809e+08  0.1            16944360       69.551439      424.50635      4245.0642      1.5161077    
  60198800   305.59355      1.3908838     -44088574       1.720273       910.00542     -44087664       704.34129      704.34129      704.34129      2147.8294      2852.1706      2147.8294      2852.1706      2147.8294      2852.1706      3.4942136e+08  0.1            16944380       69.598585      424.20734      4242.0769      1.4687245    
  60199000   305.54583      0.54975298    -44088642       1.7202532      909.8633      -44087732       704.34399      704.34399      704.34399      2147.828       2852.172       2147.828       2852.172       2147.828       2852.172       3.4942538e+08  0.1            16944400       69.64571       424.40228      4244.0217      1.4213411    
  60199200   305.59122      1.8304742     -44088710       1.7202944      909.99848     -44087800       704.33838      704.33838      704.33838      2147.8308      2852.1692      2147.8308      2852.1692      2147.8308      2852.1692      3.4941703e+08  0.1            16944420       69.692864      424.14651      4241.4609      1.3739586    
  60199400   305.6135      -0.58310124    -44088778       1.7202294      910.06482     -44087868       704.34725      704.34725      704.34725      2147.8264      2852.1736      2147.8264      2852.1736      2147.8264      2852.1736      3.4943023e+08  0.1            16944440       69.739952      424.73657      4247.3627      1.3265752    
  60199600   305.59196      0.37320153    -44088846       1.7202611      910.00068     -44087936       704.34293      704.34293      704.34293      2147.8285      2852.1715      2147.8285      2852.1715      2147.8285      2852.1715      3.4942379e+08  0.1            16944460       69.787047      424.67797      4246.783       1.2791923    
  60199800   305.56753     -3.7136672     -44081535       1.7201371      909.92794     -44080625       704.35985      704.35985      704.35985      2147.8201      2852.1799      2147.8201      2852.1799      2147.8201      2852.1799      3.4944898e+08  0.1            16944480       69.834238      423.80347      4238.0353      1.2318116    
  60200000   305.55266      5.1002353     -44088980       1.7204048      909.88363     -44088070       704.32331      704.32331      704.32331      2147.8383      2852.1617      2147.8383      2852.1617      2147.8383      2852.1617      3.4939459e+08  0.1            16944500       69.881435      423.75345      4237.5329      1.1844312    
  60200200   305.60658      8.3651671     -44098319       1.720518       910.0442      -44097409       704.30787      704.30787      704.30787      2147.8461      2852.1539      2147.8461      2852.1539      2147.8461      2852.1539      3.4937162e+08  0.1            16944520       69.928595      424.09571      4240.9638      1.1370504    
  60200400   305.62952      5.8143672     -44098388       1.7204489      910.11251     -44097478       704.31729      704.31729      704.31729      2147.8414      2852.1586      2147.8414      2852.1586      2147.8414      2852.1586      3.4938564e+08  0.1            16944540       69.975744      424.18631      4241.8542      1.0896697    
  60200600   305.57384     -1.7607533     -44081807       1.7202097      909.9467      -44080897       704.34994      704.34994      704.34994      2147.825       2852.175       2147.825       2852.175       2147.825       2852.175       3.4943423e+08  0.1            16944560       70.022888      424.22746      4242.2757      1.0422893    
  60200800   305.57011     -0.021445681   -44081875       1.7202634      909.93562     -44080965       704.3426       704.3426       704.3426       2147.8287      2852.1713      2147.8287      2852.1713      2147.8287      2852.1713      3.4942331e+08  0.1            16944580       70.07          424.52211      4245.2245      0.99490876   
  60201000   305.53084      1.7257727     -44081942       1.7203173      909.81866     -44081033       704.33525      704.33525      704.33525      2147.8324      2852.1676      2147.8324      2852.1676      2147.8324      2852.1676      3.4941236e+08  0.1            16944600       70.11724       423.37129      4233.7079      0.9475303    
  60201200   305.55008     -4.2111324     -44082009       1.7201517      909.87595     -44081099       704.35785      704.35785      704.35785      2147.8211      2852.1789      2147.8211      2852.1789      2147.8211      2852.1789      3.49446e+08    0.1            16944620       70.164319      424.82097      4248.2173      0.90014997   
  60201400   305.58856     -1.9704029     -44082078       1.7202197      909.99055     -44081168       704.34857      704.34857      704.34857      2147.8257      2852.1743      2147.8257      2852.1743      2147.8257      2852.1743      3.494322e+08   0.1            16944640       70.211469      424.17845      4241.7836      0.8527709    
  60201600   305.57977      2.6674998     -44091418       1.7203715      909.96437     -44090508       704.32786      704.32786      704.32786      2147.8361      2852.1639      2147.8361      2852.1639      2147.8361      2852.1639      3.4940137e+08  0.1            16944660       70.258627      424.1053       4241.0512      0.80539224   
  60201800   305.57528      4.6528693     -44091485       1.7204319      909.95102     -44090575       704.31961      704.31961      704.31961      2147.8402      2852.1598      2147.8402      2852.1598      2147.8402      2852.1598      3.493891e+08   0.1            16944680       70.305765      424.28338      4242.8294      0.75801367   
  60202000   305.52238      2.6817894     -44091553       1.7203795      909.79347     -44090643       704.32676      704.32676      704.32676      2147.8366      2852.1634      2147.8366      2852.1634      2147.8366      2852.1634      3.4939973e+08  0.1            16944700       70.35294       423.95277      4239.5336      0.71063578   
  60202200   305.56238      2.4579074     -44091621       1.7203769      909.91258     -44090711       704.32711      704.32711      704.32711      2147.8364      2852.1636      2147.8364      2852.1636      2147.8364      2852.1636      3.4940026e+08  0.1            16944720       70.400081      424.25605      4242.5661      0.66325786   
  60202400   305.59976      4.4074407     -44091688       1.7204362      910.02389     -44090778       704.31903      704.31903      704.31903      2147.8405      2852.1595      2147.8405      2852.1595      2147.8405      2852.1595      3.4938822e+08  0.1            16944740       70.448112      416.4047       4164.0336      0.61588802   
  60202600   305.55355     -1.2354747     -44091756       1.7202793      909.88629     -44090846       704.34044      704.34044      704.34044      2147.8298      2852.1702      2147.8298      2852.1702      2147.8298      2852.1702      3.4942009e+08  0.1            16944760       70.495229      424.47504      4244.7354      0.56850993   
  60202800   305.54549     -0.29171175    -44091824       1.7203099      909.8623      -44090914       704.33626      704.33626      704.33626      2147.8319      2852.1681      2147.8319      2852.1681      2147.8319      2852.1681      3.4941387e+08  0.1            16944780       70.542333      424.58652      4245.8892      0.5211321    
  60203000   305.51102      3.0491274     -44091891       1.7204087      909.75965     -44090981       704.32277      704.32277      704.32277      2147.8386      2852.1614      2147.8386      2852.1614      2147.8386      2852.1614      3.493938e+08   0.1            16944800       70.589512      423.92072      4239.2001      0.47375513   
  60203200   305.54913      2.3561184     -44091958       1.7203927      909.87315     -44091048       704.32496      704.32496      704.32496      2147.8375      2852.1625      2147.8375      2852.1625      2147.8375      2852.1625      3.4939705e+08  0.1            16944820       70.63662       424.55138      4245.5143      0.42637801   
  60203400   305.56878     -0.85276655    -44092026       1.7203052      909.93164     -44091116       704.33691      704.33691      704.33691      2147.8315      2852.1685      2147.8315      2852.1685      2147.8315      2852.1685      3.4941483e+08  0.1            16944840       70.683767      424.2066       4242.0725      0.37900145   
  60203600   305.54179     -0.71483435    -44092093       1.7203128      909.85129     -44091183       704.33587      704.33587      704.33587      2147.8321      2852.1679      2147.8321      2852.1679      2147.8321      2852.1679      3.4941328e+08  0.1            16944860       70.73086       424.69251      4246.9245      0.33162494   
  60203800   305.54144      2.5348516     -44092160       1.7204089      909.85025     -44091250       704.32275      704.32275      704.32275      2147.8386      2852.1614      2147.8386      2852.1614      2147.8386      2852.1614      3.4939376e+08  0.1            16944880       70.777954      424.68435      4246.8387      0.28424882   
  60204000   305.49946      3.2233901     -44092227       1.7204322      909.72522     -44091318       704.31957      704.31957      704.31957      2147.8402      2852.1598      2147.8402      2852.1598      2147.8402      2852.1598      3.4938903e+08  0.1            16944900       70.825099      424.22431      4242.25        0.23687325   
  60204200   305.52849      0.0031736751  -44092295       1.7203443      909.81168     -44091385       704.33156      704.33156      704.33156      2147.8342      2852.1658      2147.8342      2852.1658      2147.8342      2852.1658      3.4940688e+08  0.1            16944920       70.872128      425.27036      4252.7039      0.18949767   
  60204400   305.55244     -1.7290902     -44092362       1.7202988      909.88299     -44091452       704.33778      704.33778      704.33778      2147.8311      2852.1689      2147.8311      2852.1689      2147.8311      2852.1689      3.4941613e+08  0.1            16944940       70.91922       424.69747      4246.9675      0.14212269   
  60204600   305.5353       1.2147924     -44092429       1.7203862      909.83196     -44091519       704.32584      704.32584      704.32584      2147.8371      2852.1629      2147.8371      2852.1629      2147.8371      2852.1629      3.4939837e+08  0.1            16944960       70.966341      424.44076      4244.4103      0.094748122  
  60204800   305.53416      4.094638      -44092496       1.7204718      909.82855     -44091586       704.31416      704.31416      704.31416      2147.8429      2852.1571      2147.8429      2852.1571      2147.8429      2852.1571      3.4938098e+08  0.1            16944980       71.013479      424.28771      4242.8808      0.047373903  
  60205000   305.48257      1.7515933     -44092564       1.720409       909.67493     -44091654       704.32274      704.32274      704.32274      2147.8386      2852.1614      2147.8386      2852.1614      2147.8386      2852.1614      3.4939375e+08  0.1            16945000       71.060576      424.65068      4246.5074      0            
Loop time of 71.0606 on 1 procs for 300000 steps with 1000 atoms

Performance: 36.476 ns/day, 0.658 hours/ns, 4221.749 timesteps/s
99.7% CPU use with 1 MPI tasks x 1 OpenMP threads

MPI task timing breakdown:
Section |  min time  |  avg time  |  max time  |%varavg| %total
---------------------------------------------------------------
Pair    | 55.948     | 55.948     | 55.948     |   0.0 | 78.73
Neigh   | 0.026931   | 0.026931   | 0.026931   |   0.0 |  0.04
Comm    | 2.0172     | 2.0172     | 2.0172     |   0.0 |  2.84
Output  | 0.052203   | 0.052203   | 0.052203   |   0.0 |  0.07
Modify  | 11.511     | 11.511     | 11.511     |   0.0 | 16.20
Other   |            | 1.505      |            |       |  2.12

Nlocal:           1000 ave        1000 max        1000 min
Histogram: 1 0 0 0 0 0 0 0 0 0
Nghost:           1308 ave        1308 max        1308 min
Histogram: 1 0 0 0 0 0 0 0 0 0
Neighs:           6751 ave        6751 max        6751 min
Histogram: 1 0 0 0 0 0 0 0 0 0

Total # of neighbors = 6751
Ave neighs/atom = 6.751
Neighbor list builds = 38
Dangerous builds = 7

# run_style
run_style verlet

# write restart
write_restart ${write_res}
write_restart ./pgnpmf/37/equpmf86.res
System init for write_restart ...
Generated 0 of 1 mixed pair_coeff terms from geometric mixing rule

Total wall time: 0:02:35
