LAMMPS (23 Jun 2022 - Update 1)
OMP_NUM_THREADS environment is not set. Defaulting to 1 thread. (src/comm.cpp:98)
  using 1 OpenMP thread(s) per MPI task
# Read restart
read_restart ${read_res}
read_restart ./pgnpmf/37/equpmf45.res
Reading restart file ...
  restart file = 23 Jun 2022, LAMMPS = 23 Jun 2022
  restoring atom style atomic from restart
  orthogonal box = (2063.9529 2063.9529 2063.9529) to (2936.0471 2936.0471 2936.0471)
  1 by 1 by 1 MPI processor grid
  restoring pair style table from restart
  1000 atoms
  read_restart CPU = 0.004 seconds

# Settings

pair_style table spline 9941

pair_coeff 1 1 ./pgnpmf/N20.txt DE_GNP 75.6
pair_coeff 2 2 ./pgnpmf/N100.txt DE_GNP 115.92
WARNING: 3 of 9941 force values in table DE_GNP are inconsistent with -dE/dr.
WARNING:  Should only be flagged at inflection points (src/pair_table.cpp:463)
pair_coeff 1 2 ./pgnpmf/mixed_potential.txt DE_GNP 95.66
WARNING: 1562 of 9941 force values in table DE_GNP are inconsistent with -dE/dr.
WARNING:  Should only be flagged at inflection points (src/pair_table.cpp:463)

#Neigh_list Calc Frequency

neigh_modify delay 0 every 1 check yes

# Saving Frequency (50 frames)

variable ts_save equal ${steps_equ}
variable ts_save equal 5000

# Dump
#dump 1 all custom ${ts_save} ./pgnpmf/${folder}/equilibration/trajectory/trajectory_${usic}_${trial}.equ.custom type x y z ix iy iz
#dump_modify 1 first no sort id
#dump 2 all cfg 50000 ./equilibration/trajectory/ovito/dumpgen.tens_*.cfg mass type xs ys zs fx fy fz

# thermo_style
thermo_style custom step temp press pe density ke etotal lx ly lz xlo xhi ylo yhi zlo zhi vol dt time cpu tpcpu spcpu cpuremain

# run info
timestep ${ts}
timestep 0.1
thermo 200

# fix

fix 1 all momentum 1000 linear 1 1 1 angular
variable T equal ${temp}
variable T equal 300
fix 2 all nvt temp ${T} 370000 100.0
fix 2 all nvt temp 300 370000 100.0

run 100000
Generated 0 of 1 mixed pair_coeff terms from geometric mixing rule
Unused restart file global fix info:
  fix style: npt, fix ID: 5
Neighbor list info ...
  update every 1 steps, delay 0 steps, check yes
  max neighbors/atom: 2000, page size: 100000
  master list distance cutoff = 117.92
  ghost atom cutoff = 117.92
  binsize = 58.96, bins = 15 15 15
  1 neighbor lists, perpetual/occasional/extra = 1 0 0
  (1) pair table, perpetual
      attributes: half, newton on
      pair build: half/bin/atomonly/newton
      stencil: half/bin/3d
      bin: standard
Per MPI rank memory allocation (min/avg/max) = 3.129 | 3.129 | 3.129 Mbytes
   Step          Temp          Press          PotEng        Density         KinEng         TotEng           Lx             Ly             Lz            Xlo            Xhi            Ylo            Yhi            Zlo            Zhi           Volume           Dt            Time           CPU           T/CPU          S/CPU         CPULeft    
  31505000   309.49896      0.0018703981  -37292261       0.90626792     921.63506     -37291339       872.09422      872.09422      872.09422      2063.9529      2936.0471      2063.9529      2936.0471      2063.9529      2936.0471      6.6326981e+08  0.1            14075000       0              0              0              0            
  31505200   354.903       -0.18063188    -37292381       0.90626792     1056.8405     -37291325       872.09422      872.09422      872.09422      2063.9529      2936.0471      2063.9529      2936.0471      2063.9529      2936.0471      6.6326981e+08  0.1            14075020       0.033729637    592.93602      5929.2062      16.832353    
  31505400   417.03746     -0.37408041    -37292512       0.90626792     1241.8663     -37291270       872.09422      872.09422      872.09422      2063.9529      2936.0471      2063.9529      2936.0471      2063.9529      2936.0471      6.6326981e+08  0.1            14075040       0.067592325    590.62142      5906.2114      16.8311      
  31505600   485.71997     -0.64313772    -37293021       0.90626792     1446.3911     -37291575       872.09422      872.09422      872.09422      2063.9529      2936.0471      2063.9529      2936.0471      2063.9529      2936.0471      6.6326981e+08  0.1            14075060       0.10126238     593.99955      5940.0114      16.776186    
  31505800   568.05608     -0.86568264    -37293173       0.90626792     1691.574      -37291482       872.09422      872.09422      872.09422      2063.9529      2936.0471      2063.9529      2936.0471      2063.9529      2936.0471      6.6326981e+08  0.1            14075080       0.13500456     592.72775      5927.2684      16.740876    
  31506000   664.55678     -1.1039775     -37293338       0.90626792     1978.9366     -37291359       872.09422      872.09422      872.09422      2063.9529      2936.0471      2063.9529      2936.0471      2063.9529      2936.0471      6.6326981e+08  0.1            14075100       0.16864515     594.52378      5945.2482      16.696098    
  31506200   775.83597     -1.3592145     -37293515       0.90626792     2310.307      -37291205       872.09422      872.09422      872.09422      2063.9529      2936.0471      2063.9529      2936.0471      2063.9529      2936.0471      6.6326981e+08  0.1            14075120       0.20237013     593.03232      5930.3179      16.661994    
  31506400   903.68596     -1.6322842     -37293707       0.90626792     2691.0225     -37291016       872.09422      872.09422      872.09422      2063.9529      2936.0471      2063.9529      2936.0471      2063.9529      2936.0471      6.6326981e+08  0.1            14075140       0.23618783     591.40601      5914.065       16.634528    
  31506600   1050.0004     -1.9241472     -37293913       0.90626792     3126.7219     -37290786       872.09422      872.09422      872.09422      2063.9529      2936.0471      2063.9529      2936.0471      2063.9529      2936.0471      6.6326981e+08  0.1            14075160       0.26984828     594.1684       5941.6753      16.595815    
  31506800   1216.9339     -2.2357901     -37294135       0.90626792     3623.8214     -37290511       872.09422      872.09422      872.09422      2063.9529      2936.0471      2063.9529      2936.0471      2063.9529      2936.0471      6.6326981e+08  0.1            14075180       0.30357489     593.00443      5930.0497      16.561819    
  31507000   1406.8778     -2.5682471     -37294374       0.90626792     4189.442      -37290184       872.09422      872.09422      872.09422      2063.9529      2936.0471      2063.9529      2936.0471      2063.9529      2936.0471      6.6326981e+08  0.1            14075200       0.33735932     591.98854      5919.8766      16.530722    
  31507200   1622.5211     -2.9225379     -37294630       0.90626792     4831.5909     -37289798       872.09422      872.09422      872.09422      2063.9529      2936.0471      2063.9529      2936.0471      2063.9529      2936.0471      6.6326981e+08  0.1            14075220       0.37101582     594.24004      5942.4087      16.493439    
  31507400   1866.7902     -3.2996552     -37294904       0.90626792     5558.9824     -37289345       872.09422      872.09422      872.09422      2063.9529      2936.0471      2063.9529      2936.0471      2063.9529      2936.0471      6.6326981e+08  0.1            14075240       0.40476813     592.55002      5925.4831      16.460669    
  31507600   2142.8985     -3.7007081     -37295198       0.90626792     6381.1858     -37288817       872.09422      872.09422      872.09422      2063.9529      2936.0471      2063.9529      2936.0471      2063.9529      2936.0471      6.6326981e+08  0.1            14075260       0.43832482     596.00854      5960.1051      16.420403    
  31507800   2454.3444     -4.1270235     -37295512       0.90626792     7308.6186     -37288203       872.09422      872.09422      872.09422      2063.9529      2936.0471      2063.9529      2936.0471      2063.9529      2936.0471      6.6326981e+08  0.1            14075280       0.47200656     593.79082      5937.8981      16.385454    
  31508000   2804.8976     -4.5800874     -37295847       0.90626792     8352.5062     -37287494       872.09422      872.09422      872.09422      2063.9529      2936.0471      2063.9529      2936.0471      2063.9529      2936.0471      6.6326981e+08  0.1            14075300       0.5056422      594.60898      5946.1002      16.349169    
  31508200   3198.6504     -5.0611885     -37296204       0.90626792     9525.0348     -37286679       872.09422      872.09422      872.09422      2063.9529      2936.0471      2063.9529      2936.0471      2063.9529      2936.0471      6.6326981e+08  0.1            14075320       0.53960222     588.92843      5889.2699      16.323037    
  31508400   3639.9309     -5.5715131     -37296585       0.90626792     10839.093     -37285746       872.09422      872.09422      872.09422      2063.9529      2936.0471      2063.9529      2936.0471      2063.9529      2936.0471      6.6326981e+08  0.1            14075340       0.5731874      595.49928      5955.0003      16.285332    
  31508600   4133.3211     -6.1119223     -37296990       0.90626792     12308.325     -37284682       872.09422      872.09422      872.09422      2063.9529      2936.0471      2063.9529      2936.0471      2063.9529      2936.0471      6.6326981e+08  0.1            14075360       0.606821       594.6434       5946.4236      16.249383    
  31508800   4683.6094     -6.6826504     -37297420       0.90626792     13946.989     -37283473       872.09422      872.09422      872.09422      2063.9529      2936.0471      2063.9529      2936.0471      2063.9529      2936.0471      6.6326981e+08  0.1            14075380       0.64056661     592.67098      5926.7216      16.216507    
  31509000   5295.7179     -7.4866017     -37305254       0.90626792     15769.743     -37289485       872.09422      872.09422      872.09422      2063.9529      2936.0471      2063.9529      2936.0471      2063.9529      2936.0471      6.6326981e+08  0.1            14075400       0.67424182     593.90829      5939.06        16.181866    
  31509200   5974.6988     -8.1184759     -37305738       0.90626792     17791.633     -37287946       872.09422      872.09422      872.09422      2063.9529      2936.0471      2063.9529      2936.0471      2063.9529      2936.0471      6.6326981e+08  0.1            14075420       0.70798482     592.71275      5927.1433      16.148854    
  31509400   6725.5155     -8.7813162     -37306250       0.90626792     20027.437     -37286223       872.09422      872.09422      872.09422      2063.9529      2936.0471      2063.9529      2936.0471      2063.9529      2936.0471      6.6326981e+08  0.1            14075440       0.74165286     594.03959      5940.3992      16.114142    
  31509600   7552.9915     -9.4774718     -37306792       0.90626792     22491.519     -37284300       872.09422      872.09422      872.09422      2063.9529      2936.0471      2063.9529      2936.0471      2063.9529      2936.0471      6.6326981e+08  0.1            14075460       0.77526175     595.08155      5950.8192      16.078299    
  31509800   8461.6241     -10.208604     -37307363       0.90626792     25197.272     -37282166       872.09422      872.09422      872.09422      2063.9529      2936.0471      2063.9529      2936.0471      2063.9529      2936.0471      6.6326981e+08  0.1            14075480       0.80894115     593.83375      5938.3357      16.044044    
  31510000   9455.3626     -10.97551      -37307966       0.90626792     28156.455     -37279809       872.09422      872.09422      872.09422      2063.9529      2936.0471      2063.9529      2936.0471      2063.9529      2936.0471      6.6326981e+08  0.1            14075500       0.84273392     591.83944      5918.3891      16.011992    
  31510200   10537.425     -11.776929     -37308600       0.90626792     31378.652     -37277222       872.09422      872.09422      872.09422      2063.9529      2936.0471      2063.9529      2936.0471      2063.9529      2936.0471      6.6326981e+08  0.1            14075520       0.87675425     587.88709      5878.8688      15.983946    
  31510400   11709.926     -12.608303     -37309267       0.90626792     34870.161     -37274397       872.09422      872.09422      872.09422      2063.9529      2936.0471      2063.9529      2936.0471      2063.9529      2936.0471      6.6326981e+08  0.1            14075540       0.91045757     593.41273      5934.1409      15.949906    
  31510600   12973.594     -13.46525      -37309967       0.90626792     38633.148     -37271334       872.09422      872.09422      872.09422      2063.9529      2936.0471      2063.9529      2936.0471      2063.9529      2936.0471      6.6326981e+08  0.1            14075560       0.94417123     593.232        5932.3135      15.916067    
  31510800   14327.383     -14.345187     -37310701       0.90626792     42664.5       -37268036       872.09422      872.09422      872.09422      2063.9529      2936.0471      2063.9529      2936.0471      2063.9529      2936.0471      6.6326981e+08  0.1            14075580       0.97788149     593.28953      5932.8889      15.882182    
  31511000   15768.047     -15.244933     -37311468       0.90626792     46954.551     -37264514       872.09422      872.09422      872.09422      2063.9529      2936.0471      2063.9529      2936.0471      2063.9529      2936.0471      6.6326981e+08  0.1            14075600       1.0126356      575.47222      5754.7331      15.86466     
  31511200   17289.763     -16.16246      -37312270       0.90626792     51485.961     -37260784       872.09422      872.09422      872.09422      2063.9529      2936.0471      2063.9529      2936.0471      2063.9529      2936.0471      6.6326981e+08  0.1            14075620       1.0463959      592.41222      5924.1264      15.830994    
  31511400   18883.59      -17.105718     -37313105       0.90626792     56232.107     -37256872       872.09422      872.09422      872.09422      2063.9529      2936.0471      2063.9529      2936.0471      2063.9529      2936.0471      6.6326981e+08  0.1            14075640       1.0800899      593.57735      5935.7712      15.796347    
  31511600   20537.074     -18.092606     -37313973       0.90626792     61155.899     -37252817       872.09422      872.09422      872.09422      2063.9529      2936.0471      2063.9529      2936.0471      2063.9529      2936.0471      6.6326981e+08  0.1            14075660       1.1137407      594.33903      5943.3769      15.761151    
  31511800   22233.825     -19.152607     -37314873       0.90626792     66208.535     -37248664       872.09422      872.09422      872.09422      2063.9529      2936.0471      2063.9529      2936.0471      2063.9529      2936.0471      6.6326981e+08  0.1            14075680       1.1474496      593.31665      5933.1785      15.726839    
  31512000   23953.273     -20.254755     -37315435       0.90626792     71328.758     -37244107       872.09422      872.09422      872.09422      2063.9529      2936.0471      2063.9529      2936.0471      2063.9529      2936.0471      6.6326981e+08  0.1            14075700       1.181208       592.44456      5924.4489      15.693221    
  31512200   25670.509     -21.520246     -37316395       0.90626792     76442.394     -37239953       872.09422      872.09422      872.09422      2063.9529      2936.0471      2063.9529      2936.0471      2063.9529      2936.0471      6.6326981e+08  0.1            14075720       1.2149384      592.93788      5929.3781      15.659236    
  31512400   27356.396     -22.873188     -37317382       0.90626792     81462.675     -37235920       872.09422      872.09422      872.09422      2063.9529      2936.0471      2063.9529      2936.0471      2063.9529      2936.0471      6.6326981e+08  0.1            14075740       1.2486044      594.06889      5940.6999      15.624455    
  31512600   28978.016     -24.311996     -37318394       0.90626792     86291.584     -37232103       872.09422      872.09422      872.09422      2063.9529      2936.0471      2063.9529      2936.0471      2063.9529      2936.0471      6.6326981e+08  0.1            14075760       1.2821865      595.55675      5955.5445      15.588716    
  31512800   30499.507     -25.822127     -37319429       0.90626792     90822.324     -37228607       872.09422      872.09422      872.09422      2063.9529      2936.0471      2063.9529      2936.0471      2063.9529      2936.0471      6.6326981e+08  0.1            14075780       1.3158537      594.04867      5940.5067      15.554092    
  31513000   31883.458     -27.364108     -37320483       0.90626792     94943.495     -37225540       872.09422      872.09422      872.09422      2063.9529      2936.0471      2063.9529      2936.0471      2063.9529      2936.0471      6.6326981e+08  0.1            14075800       1.3496152      592.3926       5923.9221      15.5206      
  31513200   33093.465     -28.843901     -37319658       0.90626792     98546.687     -37221111       872.09422      872.09422      872.09422      2063.9529      2936.0471      2063.9529      2936.0471      2063.9529      2936.0471      6.6326981e+08  0.1            14075820       1.3832441      594.72637      5947.2495      15.485611    
  31513400   34097.806     -30.461091     -37320738       0.90626792     101537.44     -37219201       872.09422      872.09422      872.09422      2063.9529      2936.0471      2063.9529      2936.0471      2063.9529      2936.0471      6.6326981e+08  0.1            14075840       1.4170401      591.78426      5917.8405      15.45251     
  31513600   34874.604     -31.975244     -37314446       0.90626792     103850.62     -37210596       872.09422      872.09422      872.09422      2063.9529      2936.0471      2063.9529      2936.0471      2063.9529      2936.0471      6.6326981e+08  0.1            14075860       1.4507258      593.7238       5937.2428      15.418204    
  31513800   35417.791     -33.800604     -37315536       0.90626792     105468.13     -37210068       872.09422      872.09422      872.09422      2063.9529      2936.0471      2063.9529      2936.0471      2063.9529      2936.0471      6.6326981e+08  0.1            14075880       1.4844062      593.81795      5938.1783      15.38387     
  31514000   35740.524     -35.686206     -37316624       0.90626792     106429.18     -37210195       872.09422      872.09422      872.09422      2063.9529      2936.0471      2063.9529      2936.0471      2063.9529      2936.0471      6.6326981e+08  0.1            14075900       1.5180871      593.80827      5938.0887      15.349569    
  31514200   35877.812     -37.547564     -37317709       0.90626792     106838        -37210871       872.09422      872.09422      872.09422      2063.9529      2936.0471      2063.9529      2936.0471      2063.9529      2936.0471      6.6326981e+08  0.1            14075920       1.5517289      594.49929      5944.9818      15.314912    
  31514400   35882.679     -39.333067     -37318787       0.90626792     106852.49     -37211935       872.09422      872.09422      872.09422      2063.9529      2936.0471      2063.9529      2936.0471      2063.9529      2936.0471      6.6326981e+08  0.1            14075940       1.5853687      594.53543      5945.3631      15.280276    
  31514600   35819.118     -40.841779     -37312479       0.90626792     106663.22     -37205816       872.09422      872.09422      872.09422      2063.9529      2936.0471      2063.9529      2936.0471      2063.9529      2936.0471      6.6326981e+08  0.1            14075960       1.6190257      594.22817      5942.286       15.245846    
  31514800   35753.457     -42.521516     -37313540       0.90626792     106467.69     -37207073       872.09422      872.09422      872.09422      2063.9529      2936.0471      2063.9529      2936.0471      2063.9529      2936.0471      6.6326981e+08  0.1            14075980       1.6526805      594.26997      5942.6922      15.211426    
  31515000   35747.6       -44.197511     -37314593       0.90626792     106450.25     -37208143       872.09422      872.09422      872.09422      2063.9529      2936.0471      2063.9529      2936.0471      2063.9529      2936.0471      6.6326981e+08  0.1            14076000       1.6863016      594.86319      5948.6326      15.176735    
  31515200   35855.83      -46.055519     -37323017       0.90626792     106772.54     -37216245       872.09422      872.09422      872.09422      2063.9529      2936.0471      2063.9529      2936.0471      2063.9529      2936.0471      6.6326981e+08  0.1            14076020       1.7198826      595.57174      5955.7119      15.141733    
  31515400   36123.391     -47.681466     -37324060       0.90626792     107569.29     -37216491       872.09422      872.09422      872.09422      2063.9529      2936.0471      2063.9529      2936.0471      2063.9529      2936.0471      6.6326981e+08  0.1            14076040       1.7535226      594.53375      5945.3467      15.107291    
  31515600   36585.45      -49.364495     -37326995       0.90626792     108945.22     -37218050       872.09422      872.09422      872.09422      2063.9529      2936.0471      2063.9529      2936.0471      2063.9529      2936.0471      6.6326981e+08  0.1            14076060       1.7878558      582.52613      5825.2519      15.078728    
  31515800   37265.507     -50.925566     -37328037       0.90626792     110970.32     -37217066       872.09422      872.09422      872.09422      2063.9529      2936.0471      2063.9529      2936.0471      2063.9529      2936.0471      6.6326981e+08  0.1            14076080       1.8214819      594.77546      5947.7504      15.044111    
  31516000   38172.07      -52.451433     -37329081       0.90626792     113669.91     -37215411       872.09422      872.09422      872.09422      2063.9529      2936.0471      2063.9529      2936.0471      2063.9529      2936.0471      6.6326981e+08  0.1            14076100       1.8555156      587.65288      5876.5302      15.012827    
  31516200   39295.526     -54.175028     -37337509       0.90626792     117015.37     -37220493       872.09422      872.09422      872.09422      2063.9529      2936.0471      2063.9529      2936.0471      2063.9529      2936.0471      6.6326981e+08  0.1            14076120       1.8891582      594.481        5944.8068      14.978346    
  31516400   40607.002     -55.701071     -37338567       0.90626792     120920.72     -37217646       872.09422      872.09422      872.09422      2063.9529      2936.0471      2063.9529      2936.0471      2063.9529      2936.0471      6.6326981e+08  0.1            14076140       1.9228843      593.01616      5930.1862      14.944539    
  31516600   42060.255     -56.980653     -37332257       0.90626792     125248.26     -37207008       872.09422      872.09422      872.09422      2063.9529      2936.0471      2063.9529      2936.0471      2063.9529      2936.0471      6.6326981e+08  0.1            14076160       1.9566048      593.11197      5931.1237      14.910694    
  31516800   43597.495     -58.385614     -37333334       0.90626792     129825.9      -37203509       872.09422      872.09422      872.09422      2063.9529      2936.0471      2063.9529      2936.0471      2063.9529      2936.0471      6.6326981e+08  0.1            14076180       1.9910892      579.97115      5799.6763      14.882566    
  31517000   45155.385     -59.732391     -37334421       0.90626792     134465.03     -37199956       872.09422      872.09422      872.09422      2063.9529      2936.0471      2063.9529      2936.0471      2063.9529      2936.0471      6.6326981e+08  0.1            14076200       2.0265743      563.61613      5636.1719      14.861563    
  31517200   46670.846     -61.075857     -37335516       0.90626792     138977.81     -37196538       872.09422      872.09422      872.09422      2063.9529      2936.0471      2063.9529      2936.0471      2063.9529      2936.0471      6.6326981e+08  0.1            14076220       2.0602891      593.21064      5932.1129      14.827343    
  31517400   48084.729     -62.661029     -37343996       0.90626792     143188.11     -37200807       872.09422      872.09422      872.09422      2063.9529      2936.0471      2063.9529      2936.0471      2063.9529      2936.0471      6.6326981e+08  0.1            14076240       2.0939825      593.59129      5935.9144      14.792989    
  31517600   49344.508     -64.104345     -37345103       0.90626792     146939.52     -37198163       872.09422      872.09422      872.09422      2063.9529      2936.0471      2063.9529      2936.0471      2063.9529      2936.0471      6.6326981e+08  0.1            14076260       2.127726       592.70536      5927.0421      14.759004    
  31517800   50407.36      -65.599609     -37346213       0.90626792     150104.51     -37196109       872.09422      872.09422      872.09422      2063.9529      2936.0471      2063.9529      2936.0471      2063.9529      2936.0471      6.6326981e+08  0.1            14076280       2.1612634      596.35244      5963.5285      14.723621    
  31518000   51243.888     -67.334414     -37351114       0.90626792     152595.55     -37198519       872.09422      872.09422      872.09422      2063.9529      2936.0471      2063.9529      2936.0471      2063.9529      2936.0471      6.6326981e+08  0.1            14076300       2.1949396      593.88811      5938.897       14.689226    
  31518200   51842.022     -69.279901     -37361495       0.90626792     154376.69     -37207119       872.09422      872.09422      872.09422      2063.9529      2936.0471      2063.9529      2936.0471      2063.9529      2936.0471      6.6326981e+08  0.1            14076320       2.2285622      594.83764      5948.3734      14.6545      
  31518400   52210.28      -71.251109     -37369977       0.90626792     155473.3      -37214504       872.09422      872.09422      872.09422      2063.9529      2936.0471      2063.9529      2936.0471      2063.9529      2936.0471      6.6326981e+08  0.1            14076340       2.2636225      570.44504      5704.4508      14.629098    
  31518600   52378.666     -73.154904     -37371075       0.90626792     155974.72     -37215101       872.09422      872.09422      872.09422      2063.9529      2936.0471      2063.9529      2936.0471      2063.9529      2936.0471      6.6326981e+08  0.1            14076360       2.2973552      592.89677      5928.9621      14.594977    
  31518800   52395.533     -75.364681     -37379543       0.90626792     156024.95     -37223518       872.09422      872.09422      872.09422      2063.9529      2936.0471      2063.9529      2936.0471      2063.9529      2936.0471      6.6326981e+08  0.1            14076380       2.3310216      594.06524      5940.6591      14.560453    
  31519000   52322.17      -77.363986     -37380623       0.90626792     155806.49     -37224817       872.09422      872.09422      872.09422      2063.9529      2936.0471      2063.9529      2936.0471      2063.9529      2936.0471      6.6326981e+08  0.1            14076400       2.3646315      595.0637       5950.6404      14.525606    
  31519200   52225.418     -79.472518     -37389070       0.90626792     155518.38     -37233552       872.09422      872.09422      872.09422      2063.9529      2936.0471      2063.9529      2936.0471      2063.9529      2936.0471      6.6326981e+08  0.1            14076420       2.3983637      592.90317      5929.0275      14.491535    
  31519400   52170.893     -81.249428     -37390128       0.90626792     155356.01     -37234772       872.09422      872.09422      872.09422      2063.9529      2936.0471      2063.9529      2936.0471      2063.9529      2936.0471      6.6326981e+08  0.1            14076440       2.4319432      595.60322      5956.021       14.456564    
  31519600   52218.086     -82.910537     -37391173       0.90626792     155496.54     -37235677       872.09422      872.09422      872.09422      2063.9529      2936.0471      2063.9529      2936.0471      2063.9529      2936.0471      6.6326981e+08  0.1            14076460       2.4656397      593.53453      5935.3458      14.422316    
  31519800   52417.985     -84.515436     -37392207       0.90626792     156091.81     -37236115       872.09422      872.09422      872.09422      2063.9529      2936.0471      2063.9529      2936.0471      2063.9529      2936.0471      6.6326981e+08  0.1            14076480       2.4992787      594.5478       5945.4943      14.387752    
  31520000   52811.31      -86.028547     -37391336       0.90626792     157263.06     -37234073       872.09422      872.09422      872.09422      2063.9529      2936.0471      2063.9529      2936.0471      2063.9529      2936.0471      6.6326981e+08  0.1            14076500       2.5329952      593.18036      5931.792       14.353652    
  31520200   53426.51      -87.627347     -37392354       0.90626792     159095.03     -37233259       872.09422      872.09422      872.09422      2063.9529      2936.0471      2063.9529      2936.0471      2063.9529      2936.0471      6.6326981e+08  0.1            14076520       2.5666712      593.89578      5938.9506      14.319336    
  31520400   54276.734     -89.185687     -37393368       0.90626792     161626.84     -37231741       872.09422      872.09422      872.09422      2063.9529      2936.0471      2063.9529      2936.0471      2063.9529      2936.0471      6.6326981e+08  0.1            14076540       2.6003163      594.44091      5944.4239      14.284866    
  31520600   55357.478     -90.673167     -37394380       0.90626792     164845.12     -37229535       872.09422      872.09422      872.09422      2063.9529      2936.0471      2063.9529      2936.0471      2063.9529      2936.0471      6.6326981e+08  0.1            14076560       2.633995       593.84588      5938.462       14.2506      
  31520800   56645.056     -92.174424     -37397286       0.90626792     168679.31     -37228607       872.09422      872.09422      872.09422      2063.9529      2936.0471      2063.9529      2936.0471      2063.9529      2936.0471      6.6326981e+08  0.1            14076580       2.6680034      588.08881      5880.8789      14.218106    
  31521000   58097.547     -93.540431     -37398298       0.90626792     173004.57     -37225293       872.09422      872.09422      872.09422      2063.9529      2936.0471      2063.9529      2936.0471      2063.9529      2936.0471      6.6326981e+08  0.1            14076600       2.7017296      593.01097      5930.1035      14.184092    
  31521200   59658.814     -94.922923     -37399677       0.90626792     177653.76     -37222023       872.09422      872.09422      872.09422      2063.9529      2936.0471      2063.9529      2936.0471      2063.9529      2936.0471      6.6326981e+08  0.1            14076620       2.7355418      591.50221      5915.0274      14.15053     
  31521400   61263.786     -96.18754      -37400689       0.90626792     182433.09     -37218256       872.09422      872.09422      872.09422      2063.9529      2936.0471      2063.9529      2936.0471      2063.9529      2936.0471      6.6326981e+08  0.1            14076640       2.769139       595.2893       5952.8875      14.115866    
  31521600   62844.137     -97.196106     -37394323       0.90626792     187139.11     -37207184       872.09422      872.09422      872.09422      2063.9529      2936.0471      2063.9529      2936.0471      2063.9529      2936.0471      6.6326981e+08  0.1            14076660       2.802804       594.0838       5940.8594      14.081569    
  31521800   64333.185     -98.652505     -37404608       0.90626792     191573.24     -37213034       872.09422      872.09422      872.09422      2063.9529      2936.0471      2063.9529      2936.0471      2063.9529      2936.0471      6.6326981e+08  0.1            14076680       2.8363332      596.49882      5964.9809      14.046615    
  31522000   65670.045     -99.959133     -37407510       0.90626792     195554.18     -37211956       872.09422      872.09422      872.09422      2063.9529      2936.0471      2063.9529      2936.0471      2063.9529      2936.0471      6.6326981e+08  0.1            14076700       2.870009       593.89568      5938.9413      14.012409    
  31522200   66805.358     -101.58623     -37415890       0.90626792     198934.95     -37216955       872.09422      872.09422      872.09422      2063.9529      2936.0471      2063.9529      2936.0471      2063.9529      2936.0471      6.6326981e+08  0.1            14076720       2.904056       587.42422      5874.2506      13.980002    
  31522400   67704.417     -103.0308      -37409510       0.90626792     201612.19     -37207898       872.09422      872.09422      872.09422      2063.9529      2936.0471      2063.9529      2936.0471      2063.9529      2936.0471      6.6326981e+08  0.1            14076740       2.9377029      594.4096       5944.1008      13.945657    
  31522600   68349.99      -104.59083     -37403121       0.90626792     203534.6      -37199587       872.09422      872.09422      872.09422      2063.9529      2936.0471      2063.9529      2936.0471      2063.9529      2936.0471      6.6326981e+08  0.1            14076760       2.9714516      592.61698      5926.1677      13.911806    
  31522800   68746.782     -106.54184     -37411479       0.90626792     204716.18     -37206763       872.09422      872.09422      872.09422      2063.9529      2936.0471      2063.9529      2936.0471      2063.9529      2936.0471      6.6326981e+08  0.1            14076780       3.0060405      578.21809      5782.1712      13.881838    
  31523000   68921.025     -108.12198     -37412446       0.90626792     205235.04     -37207211       872.09422      872.09422      872.09422      2063.9529      2936.0471      2063.9529      2936.0471      2063.9529      2936.0471      6.6326981e+08  0.1            14076800       3.0404569      581.11841      5811.1895      13.850981    
  31523200   68919.607     -109.53785     -37413398       0.90626792     205230.82     -37208167       872.09422      872.09422      872.09422      2063.9529      2936.0471      2063.9529      2936.0471      2063.9529      2936.0471      6.6326981e+08  0.1            14076820       3.0741827      593.01828      5930.1932      13.816941    
  31523400   68804.869     -111.01427     -37416229       0.90626792     204889.15     -37211340       872.09422      872.09422      872.09422      2063.9529      2936.0471      2063.9529      2936.0471      2063.9529      2936.0471      6.6326981e+08  0.1            14076840       3.1078088      594.7759       5947.7366      13.782467    
  31523600   68647.181     -112.43868     -37417150       0.90626792     204419.58     -37212731       872.09422      872.09422      872.09422      2063.9529      2936.0471      2063.9529      2936.0471      2063.9529      2936.0471      6.6326981e+08  0.1            14076860       3.141425       594.95146      5949.5087      13.747967    
  31523800   68518.101     -113.89453     -37418056       0.90626792     204035.2      -37214021       872.09422      872.09422      872.09422      2063.9529      2936.0471      2063.9529      2936.0471      2063.9529      2936.0471      6.6326981e+08  0.1            14076880       3.175019       595.34345      5953.4581      13.71339     
  31524000   68484.579     -115.36769     -37418947       0.90626792     203935.38     -37215012       872.09422      872.09422      872.09422      2063.9529      2936.0471      2063.9529      2936.0471      2063.9529      2936.0471      6.6326981e+08  0.1            14076900       3.2087553      592.83076      5928.3004      13.679441    
  31524200   68605.069     -116.83604     -37419826       0.90626792     204294.18     -37215532       872.09422      872.09422      872.09422      2063.9529      2936.0471      2063.9529      2936.0471      2063.9529      2936.0471      6.6326981e+08  0.1            14076920       3.2424188      594.12042      5941.2081      13.645188    
  31524400   68926.451     -118.26524     -37420695       0.90626792     205251.2      -37215443       872.09422      872.09422      872.09422      2063.9529      2936.0471      2063.9529      2936.0471      2063.9529      2936.0471      6.6326981e+08  0.1            14076940       3.276034       594.96645      5949.6418      13.610749    
  31524600   69481.68      -119.58364     -37421553       0.90626792     206904.58     -37214648       872.09422      872.09422      872.09422      2063.9529      2936.0471      2063.9529      2936.0471      2063.9529      2936.0471      6.6326981e+08  0.1            14076960       3.3096302      595.30439      5953.0648      13.576248    
  31524800   70287.188     -120.54875     -37415024       0.90626792     209303.24     -37205720       872.09422      872.09422      872.09422      2063.9529      2936.0471      2063.9529      2936.0471      2063.9529      2936.0471      6.6326981e+08  0.1            14076980       3.3432579      594.75148      5947.5127      13.541892    
  31525000   71340.683     -121.65199     -37415861       0.90626792     212440.37     -37203421       872.09422      872.09422      872.09422      2063.9529      2936.0471      2063.9529      2936.0471      2063.9529      2936.0471      6.6326981e+08  0.1            14077000       3.3769236      594.07502      5940.7583      13.507703    
  31525200   72620.266     -122.76429     -37416686       0.90626792     216250.75     -37200436       872.09422      872.09422      872.09422      2063.9529      2936.0471      2063.9529      2936.0471      2063.9529      2936.0471      6.6326981e+08  0.1            14077020       3.4105691      594.43223      5944.3176      13.473445    
  31525400   74085.954     -123.70242     -37410125       0.90626792     220615.32     -37189510       872.09422      872.09422      872.09422      2063.9529      2936.0471      2063.9529      2936.0471      2063.9529      2936.0471      6.6326981e+08  0.1            14077040       3.4441915      594.84313      5948.4153      13.439109    
  31525600   75681.813     -124.904       -37410935       0.90626792     225367.52     -37185568       872.09422      872.09422      872.09422      2063.9529      2936.0471      2063.9529      2936.0471      2063.9529      2936.0471      6.6326981e+08  0.1            14077060       3.4778035      595.02605      5950.2824      13.404746    
  31525800   77340.307     -126.13818     -37411740       0.90626792     230306.23     -37181434       872.09422      872.09422      872.09422      2063.9529      2936.0471      2063.9529      2936.0471      2063.9529      2936.0471      6.6326981e+08  0.1            14077080       3.5114145      595.04262      5950.4221      13.370394    
  31526000   78988.78      -127.26331     -37410647       0.90626792     235215.1      -37175432       872.09422      872.09422      872.09422      2063.9529      2936.0471      2063.9529      2936.0471      2063.9529      2936.0471      6.6326981e+08  0.1            14077100       3.5451154      593.45675      5934.5637      13.336395    
  31526200   80554.715     -128.62527     -37418820       0.90626792     239878.19     -37178942       872.09422      872.09422      872.09422      2063.9529      2936.0471      2063.9529      2936.0471      2063.9529      2936.0471      6.6326981e+08  0.1            14077120       3.5786558      596.29423      5962.9261      13.301805    
  31526400   81971.846     -129.62921     -37412231       0.90626792     244098.16     -37168133       872.09422      872.09422      872.09422      2063.9529      2936.0471      2063.9529      2936.0471      2063.9529      2936.0471      6.6326981e+08  0.1            14077140       3.61233        593.92605      5939.2862      13.267725    
  31526600   83183.557     -130.9912      -37413009       0.90626792     247706.43     -37165302       872.09422      872.09422      872.09422      2063.9529      2936.0471      2063.9529      2936.0471      2063.9529      2936.0471      6.6326981e+08  0.1            14077160       3.6458931      595.89455      5958.9352      13.23325     
  31526800   84149.417     -132.45279     -37413775       0.90626792     250582.59     -37163193       872.09422      872.09422      872.09422      2063.9529      2936.0471      2063.9529      2936.0471      2063.9529      2936.0471      6.6326981e+08  0.1            14077180       3.6795748      593.79401      5937.9426      13.199216    
  31527000   84847.94      -133.83289     -37414529       0.90626792     252662.68     -37161866       872.09422      872.09422      872.09422      2063.9529      2936.0471      2063.9529      2936.0471      2063.9529      2936.0471      6.6326981e+08  0.1            14077200       3.7132355      594.16335      5941.6155      13.165116    
  31527200   85279.65      -135.01809     -37415269       0.90626792     253948.23     -37161321       872.09422      872.09422      872.09422      2063.9529      2936.0471      2063.9529      2936.0471      2063.9529      2936.0471      6.6326981e+08  0.1            14077220       3.7468406      595.14888      5951.4997      13.130828    
  31527400   85467.581     -136.49321     -37430749       0.90626792     254507.86     -37176241       872.09422      872.09422      872.09422      2063.9529      2936.0471      2063.9529      2936.0471      2063.9529      2936.0471      6.6326981e+08  0.1            14077240       3.7804775      594.5802       5945.8096      13.096663    
  31527600   85456.832     -137.70175     -37431455       0.90626792     254475.85     -37176979       872.09422      872.09422      872.09422      2063.9529      2936.0471      2063.9529      2936.0471      2063.9529      2936.0471      6.6326981e+08  0.1            14077260       3.8141297      594.32044      5943.2095      13.062558    
  31527800   85309.67      -139.41741     -37446900       0.90626792     254037.63     -37192862       872.09422      872.09422      872.09422      2063.9529      2936.0471      2063.9529      2936.0471      2063.9529      2936.0471      6.6326981e+08  0.1            14077280       3.8485688      580.73019      5807.2832      13.031128    
  31528000   85098.543     -140.74506     -37447569       0.90626792     253408.93     -37194160       872.09422      872.09422      872.09422      2063.9529      2936.0471      2063.9529      2936.0471      2063.9529      2936.0471      6.6326981e+08  0.1            14077300       3.8831171      578.90289      5789.0258      13.000009    
  31528200   84899.503     -141.98271     -37448219       0.90626792     252816.22     -37195403       872.09422      872.09422      872.09422      2063.9529      2936.0471      2063.9529      2936.0471      2063.9529      2936.0471      6.6326981e+08  0.1            14077320       3.9172746      585.52247      5855.2276      12.967538    
  31528400   84785.404     -143.07147     -37448848       0.90626792     252476.45     -37196372       872.09422      872.09422      872.09422      2063.9529      2936.0471      2063.9529      2936.0471      2063.9529      2936.0471      6.6326981e+08  0.1            14077340       3.9510031      592.96886      5929.6976      12.933633    
  31528600   84821.634     -144.092       -37449459       0.90626792     252584.34     -37196875       872.09422      872.09422      872.09422      2063.9529      2936.0471      2063.9529      2936.0471      2063.9529      2936.0471      6.6326981e+08  0.1            14077360       3.9847571      592.52442      5925.2546      12.899814    
  31528800   85062.3       -145.20154     -37450053       0.90626792     253301        -37196752       872.09422      872.09422      872.09422      2063.9529      2936.0471      2063.9529      2936.0471      2063.9529      2936.0471      6.6326981e+08  0.1            14077380       4.0194136      577.09255      5770.9224      12.868886    
  31529000   85546.598     -146.41003     -37450632       0.90626792     254743.16     -37195889       872.09422      872.09422      872.09422      2063.9529      2936.0471      2063.9529      2936.0471      2063.9529      2936.0471      6.6326981e+08  0.1            14077400       4.0531046      593.62878      5936.273       12.834839    
  31529200   86296.112     -147.56661     -37451197       0.90626792     256975.09     -37194222       872.09422      872.09422      872.09422      2063.9529      2936.0471      2063.9529      2936.0471      2063.9529      2936.0471      6.6326981e+08  0.1            14077420       4.0867248      594.88088      5948.8203      12.800575    
  31529400   87312.941     -148.72726     -37451747       0.90626792     260003.03     -37191744       872.09422      872.09422      872.09422      2063.9529      2936.0471      2063.9529      2936.0471      2063.9529      2936.0471      6.6326981e+08  0.1            14077440       4.1203656      594.51602      5945.1627      12.766386    
  31529600   88578.629     -149.94477     -37452285       0.90626792     263772.03     -37188513       872.09422      872.09422      872.09422      2063.9529      2936.0471      2063.9529      2936.0471      2063.9529      2936.0471      6.6326981e+08  0.1            14077460       4.1540707      593.38129      5933.7944      12.732403    
  31529800   90053.856     -151.25159     -37460191       0.90626792     268165        -37192026       872.09422      872.09422      872.09422      2063.9529      2936.0471      2063.9529      2936.0471      2063.9529      2936.0471      6.6326981e+08  0.1            14077480       4.18765        595.60762      5956.0941      12.698042    
  31530000   91680.315     -152.09052     -37460708       0.90626792     273008.32     -37187699       872.09422      872.09422      872.09422      2063.9529      2936.0471      2063.9529      2936.0471      2063.9529      2936.0471      6.6326981e+08  0.1            14077500       4.2214395      591.8994       5918.9712      12.664326    
  31530200   93387.46      -152.52347     -37453835       0.90626792     278091.91     -37175743       872.09422      872.09422      872.09422      2063.9529      2936.0471      2063.9529      2936.0471      2063.9529      2936.0471      6.6326981e+08  0.1            14077520       4.2550915      594.31862      5943.2001      12.630199    
  31530400   95097.996     -153.07139     -37456222       0.90626792     283185.59     -37173036       872.09422      872.09422      872.09422      2063.9529      2936.0471      2063.9529      2936.0471      2063.9529      2936.0471      6.6326981e+08  0.1            14077540       4.2886964      595.15098      5951.518       12.595942    
  31530600   96734.207     -153.394       -37454805       0.90626792     288057.95     -37166747       872.09422      872.09422      872.09422      2063.9529      2936.0471      2063.9529      2936.0471      2063.9529      2936.0471      6.6326981e+08  0.1            14077560       4.3224334      592.82018      5928.1909      12.562079    
  31530800   98225.163     -154.24312     -37462646       0.90626792     292497.76     -37170148       872.09422      872.09422      872.09422      2063.9529      2936.0471      2063.9529      2936.0471      2063.9529      2936.0471      6.6326981e+08  0.1            14077580       4.356106       593.95356      5939.5429      12.528033    
  31531000   99510.844     -154.94656     -37455718       0.90626792     296326.3      -37159392       872.09422      872.09422      872.09422      2063.9529      2936.0471      2063.9529      2936.0471      2063.9529      2936.0471      6.6326981e+08  0.1            14077600       4.3897413      594.61478      5946.1421      12.493886    
  31531200   100545.99     -155.70351     -37448777       0.90626792     299408.8      -37149369       872.09422      872.09422      872.09422      2063.9529      2936.0471      2063.9529      2936.0471      2063.9529      2936.0471      6.6326981e+08  0.1            14077620       4.4233887      594.39951      5943.9999      12.459781    
  31531400   101303.79     -156.44982     -37449198       0.90626792     301665.38     -37147532       872.09422      872.09422      872.09422      2063.9529      2936.0471      2063.9529      2936.0471      2063.9529      2936.0471      6.6326981e+08  0.1            14077640       4.4570024      594.99445      5949.9409      12.425589    
  31531600   101778.85     -156.98432     -37449596       0.90626792     303080.02     -37146516       872.09422      872.09422      872.09422      2063.9529      2936.0471      2063.9529      2936.0471      2063.9529      2936.0471      6.6326981e+08  0.1            14077660       4.4905719      595.7785       5957.7898      12.391284    
  31531800   101991.66     -157.72133     -37449974       0.90626792     303713.76     -37146261       872.09422      872.09422      872.09422      2063.9529      2936.0471      2063.9529      2936.0471      2063.9529      2936.0471      6.6326981e+08  0.1            14077680       4.524231       594.19449      5941.9398      12.357234    
  31532000   101986.62     -158.78094     -37450338       0.90626792     303698.75     -37146640       872.09422      872.09422      872.09422      2063.9529      2936.0471      2063.9529      2936.0471      2063.9529      2936.0471      6.6326981e+08  0.1            14077700       4.5579384      593.34172      5933.4247      12.323321    
  31532200   101824.86     -159.81009     -37450687       0.90626792     303217.03     -37147470       872.09422      872.09422      872.09422      2063.9529      2936.0471      2063.9529      2936.0471      2063.9529      2936.0471      6.6326981e+08  0.1            14077720       4.5916808      592.72369      5927.2445      12.289505    
  31532400   101578.57     -160.6575      -37451015       0.90626792     302483.64     -37148532       872.09422      872.09422      872.09422      2063.9529      2936.0471      2063.9529      2936.0471      2063.9529      2936.0471      6.6326981e+08  0.1            14077740       4.6253145      594.64282      5946.4151      12.255402    
  31532600   101326.75     -161.94601     -37466079       0.90626792     301733.77     -37164345       872.09422      872.09422      872.09422      2063.9529      2936.0471      2063.9529      2936.0471      2063.9529      2936.0471      6.6326981e+08  0.1            14077760       4.659056       592.74084      5927.3652      12.221589    
  31532800   101148.16     -162.92665     -37466370       0.90626792     301201.94     -37165168       872.09422      872.09422      872.09422      2063.9529      2936.0471      2063.9529      2936.0471      2063.9529      2936.0471      6.6326981e+08  0.1            14077780       4.6934623      581.29129      5812.9421      12.189502    
  31533000   101114.03     -163.88275     -37466644       0.90626792     301100.3      -37165544       872.09422      872.09422      872.09422      2063.9529      2936.0471      2063.9529      2936.0471      2063.9529      2936.0471      6.6326981e+08  0.1            14077800       4.7272006      592.79804      5928.0012      12.155664    
  31533200   101283.72     -164.95169     -37469166       0.90626792     301605.61     -37167561       872.09422      872.09422      872.09422      2063.9529      2936.0471      2063.9529      2936.0471      2063.9529      2936.0471      6.6326981e+08  0.1            14077820       4.7614216      584.43547      5844.3449      12.123058    
  31533400   101700.79     -165.70748     -37469406       0.90626792     302847.58     -37166559       872.09422      872.09422      872.09422      2063.9529      2936.0471      2063.9529      2936.0471      2063.9529      2936.0471      6.6326981e+08  0.1            14077840       4.8004868      511.96165      5119.6059      12.102642    
  31533600   102391.65     -166.30592     -37469628       0.90626792     304904.85     -37164723       872.09422      872.09422      872.09422      2063.9529      2936.0471      2063.9529      2936.0471      2063.9529      2936.0471      6.6326981e+08  0.1            14077860       4.8394127      513.8004       5138.0008      12.081617    
  31533800   103363.04     -166.70367     -37462454       0.90626792     307797.48     -37154657       872.09422      872.09422      872.09422      2063.9529      2936.0471      2063.9529      2936.0471      2063.9529      2936.0471      6.6326981e+08  0.1            14077880       4.8729925      595.59632      5955.9849      12.047127    
  31534000   104599.23     -167.35768     -37462645       0.90626792     311478.65     -37151166       872.09422      872.09422      872.09422      2063.9529      2936.0471      2063.9529      2936.0471      2063.9529      2936.0471      6.6326981e+08  0.1            14077900       4.9066593      594.05414      5940.5587      12.012861    
  31534200   106062.88     -167.72477     -37455444       0.90626792     315837.13     -37139607       872.09422      872.09422      872.09422      2063.9529      2936.0471      2063.9529      2936.0471      2063.9529      2936.0471      6.6326981e+08  0.1            14077920       4.9403192      594.18308      5941.8169      11.978587    
  31534400   107696.58     -168.09648     -37455609       0.90626792     320702.01     -37134907       872.09422      872.09422      872.09422      2063.9529      2936.0471      2063.9529      2936.0471      2063.9529      2936.0471      6.6326981e+08  0.1            14077940       4.9739681      594.37116      5943.6775      11.944297    
  31534600   109427.91     -168.33378     -37455757       0.90626792     325857.63     -37129900       872.09422      872.09422      872.09422      2063.9529      2936.0471      2063.9529      2936.0471      2063.9529      2936.0471      6.6326981e+08  0.1            14077960       5.0084844      579.43724      5794.4004      11.912076    
  31534800   111177.05     -168.54255     -37455888       0.90626792     331066.27     -37124822       872.09422      872.09422      872.09422      2063.9529      2936.0471      2063.9529      2936.0471      2063.9529      2936.0471      6.6326981e+08  0.1            14077980       5.0422329      592.61797      5926.1833      11.878017    
  31535000   112864.39     -168.72341     -37454108       0.90626792     336090.88     -37118017       872.09422      872.09422      872.09422      2063.9529      2936.0471      2063.9529      2936.0471      2063.9529      2936.0471      6.6326981e+08  0.1            14078000       5.0761017      590.51592      5905.1672      11.844242    
  31535200   114415.07     -169.04557     -37454207       0.90626792     340708.53     -37113498       872.09422      872.09422      872.09422      2063.9529      2936.0471      2063.9529      2936.0471      2063.9529      2936.0471      6.6326981e+08  0.1            14078020       5.1097714      594.00347      5940.0271      11.810007    
  31535400   115764.12     -169.43009     -37454287       0.90626792     344725.78     -37109561       872.09422      872.09422      872.09422      2063.9529      2936.0471      2063.9529      2936.0471      2063.9529      2936.0471      6.6326981e+08  0.1            14078040       5.1434751      593.40694      5934.0713      11.775856    
  31535600   116862.7      -169.95345     -37454350       0.90626792     347997.15     -37106353       872.09422      872.09422      872.09422      2063.9529      2936.0471      2063.9529      2936.0471      2063.9529      2936.0471      6.6326981e+08  0.1            14078060       5.1771595      593.74895      5937.4982      11.741667    
  31535800   117681.47     -170.55482     -37456293       0.90626792     350435.32     -37105857       872.09422      872.09422      872.09422      2063.9529      2936.0471      2063.9529      2936.0471      2063.9529      2936.0471      6.6326981e+08  0.1            14078080       5.2108618      593.43133      5934.3057      11.707525    
  31536000   118212.08     -171.01622     -37456324       0.90626792     352015.39     -37104309       872.09422      872.09422      872.09422      2063.9529      2936.0471      2063.9529      2936.0471      2063.9529      2936.0471      6.6326981e+08  0.1            14078100       5.2446192      592.46032      5924.6118      11.673512    
  31536200   118470.25     -171.56956     -37463718       0.90626792     352784.18     -37110934       872.09422      872.09422      872.09422      2063.9529      2936.0471      2063.9529      2936.0471      2063.9529      2936.0471      6.6326981e+08  0.1            14078120       5.2783067      593.69495      5936.947       11.639348    
  31536400   118493.54     -171.35903     -37448961       0.90626792     352853.53     -37096107       872.09422      872.09422      872.09422      2063.9529      2936.0471      2063.9529      2936.0471      2063.9529      2936.0471      6.6326981e+08  0.1            14078140       5.3118712      595.86746      5958.6723      11.604921    
  31536600   118339.88     -171.67096     -37448940       0.90626792     352395.96     -37096544       872.09422      872.09422      872.09422      2063.9529      2936.0471      2063.9529      2936.0471      2063.9529      2936.0471      6.6326981e+08  0.1            14078160       5.3456704      591.72942      5917.2953      11.571013    
  31536800   118083.32     -172.51172     -37456282       0.90626792     351631.96     -37104650       872.09422      872.09422      872.09422      2063.9529      2936.0471      2063.9529      2936.0471      2063.9529      2936.0471      6.6326981e+08  0.1            14078180       5.379254       595.52868      5955.2879      11.536644    
  31537000   117805.67     -173.13965     -37456238       0.90626792     350805.18     -37105432       872.09422      872.09422      872.09422      2063.9529      2936.0471      2063.9529      2936.0471      2063.9529      2936.0471      6.6326981e+08  0.1            14078200       5.4130574      591.65277      5916.5114      11.502752    
  31537200   117586.25     -173.31788     -37448803       0.90626792     350151.76     -37098651       872.09422      872.09422      872.09422      2063.9529      2936.0471      2063.9529      2936.0471      2063.9529      2936.0471      6.6326981e+08  0.1            14078220       5.4476537      578.10036      5781.0118      11.47053     
  31537400   117497.37     -173.54677     -37448726       0.90626792     349887.12     -37098839       872.09422      872.09422      872.09422      2063.9529      2936.0471      2063.9529      2936.0471      2063.9529      2936.0471      6.6326981e+08  0.1            14078240       5.481281       594.75256      5947.5265      11.436258    
  31537600   117602.61     -173.80318     -37448627       0.90626792     350200.48     -37098426       872.09422      872.09422      872.09422      2063.9529      2936.0471      2063.9529      2936.0471      2063.9529      2936.0471      6.6326981e+08  0.1            14078260       5.5149213      594.52405      5945.244       11.40202     
  31537800   117952.87     -174.1759      -37448509       0.90626792     351243.49     -37097266       872.09422      872.09422      872.09422      2063.9529      2936.0471      2063.9529      2936.0471      2063.9529      2936.0471      6.6326981e+08  0.1            14078280       5.5485635      594.49496      5944.9443      11.367793    
  31538000   118581.46     -174.76466     -37455757       0.90626792     353115.34     -37102641       872.09422      872.09422      872.09422      2063.9529      2936.0471      2063.9529      2936.0471      2063.9529      2936.0471      6.6326981e+08  0.1            14078300       5.5822145      594.33384      5943.3437      11.333592    
  31538200   119498.7      -174.86277     -37455614       0.90626792     355846.71     -37099768       872.09422      872.09422      872.09422      2063.9529      2936.0471      2063.9529      2936.0471      2063.9529      2936.0471      6.6326981e+08  0.1            14078320       5.615799       595.51348      5955.1379      11.299263    
  31538400   120691.2      -174.80421     -37455457       0.90626792     359397.79     -37096059       872.09422      872.09422      872.09422      2063.9529      2936.0471      2063.9529      2936.0471      2063.9529      2936.0471      6.6326981e+08  0.1            14078340       5.6494981      593.48907      5934.888       11.265171    
  31538600   122124.18     -174.73011     -37455285       0.90626792     363664.96     -37091620       872.09422      872.09422      872.09422      2063.9529      2936.0471      2063.9529      2936.0471      2063.9529      2936.0471      6.6326981e+08  0.1            14078360       5.683233       592.85622      5928.5582      11.231155    
  31538800   123741.71     -174.59846     -37455099       0.90626792     368481.69     -37086617       872.09422      872.09422      872.09422      2063.9529      2936.0471      2063.9529      2936.0471      2063.9529      2936.0471      6.6326981e+08  0.1            14078380       5.7168666      594.64566      5946.4639      11.196944    
  31539000   125473.43     -174.30969     -37447889       0.90626792     373638.45     -37074250       872.09422      872.09422      872.09422      2063.9529      2936.0471      2063.9529      2936.0471      2063.9529      2936.0471      6.6326981e+08  0.1            14078400       5.7506671      591.70519      5917.0582      11.163064    
  31539200   127240.46     -174.20225     -37447676       0.90626792     378900.37     -37068775       872.09422      872.09422      872.09422      2063.9529      2936.0471      2063.9529      2936.0471      2063.9529      2936.0471      6.6326981e+08  0.1            14078420       5.7843415      593.92354      5939.2205      11.128942    
  31539400   128960.51     -174.05495     -37447448       0.90626792     384022.38     -37063425       872.09422      872.09422      872.09422      2063.9529      2936.0471      2063.9529      2936.0471      2063.9529      2936.0471      6.6326981e+08  0.1            14078440       5.817936       595.33528      5953.361       11.094673    
  31539600   130556.39     -173.93288     -37449100       0.90626792     388774.64     -37060325       872.09422      872.09422      872.09422      2063.9529      2936.0471      2063.9529      2936.0471      2063.9529      2936.0471      6.6326981e+08  0.1            14078460       5.8515514      594.96701      5949.6724      11.060451    
  31539800   131961.71     -173.84405     -37448845       0.90626792     392959.45     -37055885       872.09422      872.09422      872.09422      2063.9529      2936.0471      2063.9529      2936.0471      2063.9529      2936.0471      6.6326981e+08  0.1            14078480       5.8853065      592.50046      5925.0097      11.026498    
  31540000   133124.47     -174.29713     -37463335       0.90626792     396421.94     -37066914       872.09422      872.09422      872.09422      2063.9529      2936.0471      2063.9529      2936.0471      2063.9529      2936.0471      6.6326981e+08  0.1            14078500       5.9191078      591.69313      5916.9247      10.992633    
  31540200   134009.53     -174.27133     -37462690       0.90626792     399057.5      -37063632       872.09422      872.09422      872.09422      2063.9529      2936.0471      2063.9529      2936.0471      2063.9529      2936.0471      6.6326981e+08  0.1            14078520       5.9527958      593.68481      5936.8365      10.95856     
  31540400   134603.07     -174.48168     -37469774       0.90626792     400824.97     -37068949       872.09422      872.09422      872.09422      2063.9529      2936.0471      2063.9529      2936.0471      2063.9529      2936.0471      6.6326981e+08  0.1            14078540       5.9864721      593.88965      5938.9071      10.92447     
  31540600   134916.44     -174.57555     -37469468       0.90626792     401758.13     -37067710       872.09422      872.09422      872.09422      2063.9529      2936.0471      2063.9529      2936.0471      2063.9529      2936.0471      6.6326981e+08  0.1            14078560       6.0239725      533.32681      5333.2598      10.897303    
  31540800   134983.91     -174.7943      -37469149       0.90626792     401959.04     -37067190       872.09422      872.09422      872.09422      2063.9529      2936.0471      2063.9529      2936.0471      2063.9529      2936.0471      6.6326981e+08  0.1            14078580       6.0575136      596.28438      5962.8521      10.862919    
  31541000   134859.04     -174.9753      -37468818       0.90626792     401587.2      -37067231       872.09422      872.09422      872.09422      2063.9529      2936.0471      2063.9529      2936.0471      2063.9529      2936.0471      6.6326981e+08  0.1            14078600       6.0911674      594.28519      5942.8298      10.828746    
  31541200   134611.85     -175.32358     -37475851       0.90626792     400851.09     -37075000       872.09422      872.09422      872.09422      2063.9529      2936.0471      2063.9529      2936.0471      2063.9529      2936.0471      6.6326981e+08  0.1            14078620       6.1255421      581.82348      5818.2438      10.795849    
  31541400   134321.98     -175.3396      -37473601       0.90626792     399987.92     -37073613       872.09422      872.09422      872.09422      2063.9529      2936.0471      2063.9529      2936.0471      2063.9529      2936.0471      6.6326981e+08  0.1            14078640       6.159124       595.55892      5955.5934      10.76155     
  31541600   134072.43     -175.66639     -37477026       0.90626792     399244.81     -37077781       872.09422      872.09422      872.09422      2063.9529      2936.0471      2063.9529      2936.0471      2063.9529      2936.0471      6.6326981e+08  0.1            14078660       6.1927294      595.14388      5951.4367      10.7273      
  31541800   133941.41     -175.82123     -37478551       0.90626792     398854.64     -37079696       872.09422      872.09422      872.09422      2063.9529      2936.0471      2063.9529      2936.0471      2063.9529      2936.0471      6.6326981e+08  0.1            14078680       6.2265215      591.85287      5918.528       10.693378    
  31542000   133995.93     -175.78115     -37478172       0.90626792     399017        -37079155       872.09422      872.09422      872.09422      2063.9529      2936.0471      2063.9529      2936.0471      2063.9529      2936.0471      6.6326981e+08  0.1            14078700       6.2601979      593.88748      5938.8855      10.65926     
  31542200   134289.29     -175.70402     -37477783       0.90626792     399890.57     -37077892       872.09422      872.09422      872.09422      2063.9529      2936.0471      2063.9529      2936.0471      2063.9529      2936.0471      6.6326981e+08  0.1            14078720       6.2938424      594.4522       5944.5101      10.625093    
  31542400   134857.56     -175.3769      -37470006       0.90626792     401582.78     -37068423       872.09422      872.09422      872.09422      2063.9529      2936.0471      2063.9529      2936.0471      2063.9529      2936.0471      6.6326981e+08  0.1            14078740       6.3279519      586.3454       5863.4662      10.591709    
  31542600   135716.08     -175.22466     -37469598       0.90626792     404139.32     -37065458       872.09422      872.09422      872.09422      2063.9529      2936.0471      2063.9529      2936.0471      2063.9529      2936.0471      6.6326981e+08  0.1            14078760       6.3616504      593.49874      5934.977       10.557636    
  31542800   136856.45     -175.0409      -37476558       0.90626792     407535.14     -37069023       872.09422      872.09422      872.09422      2063.9529      2936.0471      2063.9529      2936.0471      2063.9529      2936.0471      6.6326981e+08  0.1            14078780       6.3952825      594.66955      5946.6875      10.523458    
  31543000   138246.45     -174.44257     -37476129       0.90626792     411674.32     -37064454       872.09422      872.09422      872.09422      2063.9529      2936.0471      2063.9529      2936.0471      2063.9529      2936.0471      6.6326981e+08  0.1            14078800       6.4290336      592.57405      5925.7519      10.48948     
  31543200   139834.25     -173.39957     -37460933       0.90626792     416402.5      -37044530       872.09422      872.09422      872.09422      2063.9529      2936.0471      2063.9529      2936.0471      2063.9529      2936.0471      6.6326981e+08  0.1            14078820       6.462704       593.99144      5939.9184      10.455373    
  31543400   141551.48     -172.98649     -37467861       0.90626792     421516.15     -37046344       872.09422      872.09422      872.09422      2063.9529      2936.0471      2063.9529      2936.0471      2063.9529      2936.0471      6.6326981e+08  0.1            14078840       6.4964411      592.818        5928.163       10.421378    
  31543600   143319.49     -172.32115     -37467400       0.90626792     426780.98     -37040619       872.09422      872.09422      872.09422      2063.9529      2936.0471      2063.9529      2936.0471      2063.9529      2936.0471      6.6326981e+08  0.1            14078860       6.5301525      593.27267      5932.6869      10.387345    
  31543800   145056.76     -171.74161     -37468825       0.90626792     431954.25     -37036871       872.09422      872.09422      872.09422      2063.9529      2936.0471      2063.9529      2936.0471      2063.9529      2936.0471      6.6326981e+08  0.1            14078880       6.5638621      593.30273      5933.0759      10.353312    
  31544000   146684        -171.10079     -37468345       0.90626792     436799.91     -37031545       872.09422      872.09422      872.09422      2063.9529      2936.0471      2063.9529      2936.0471      2063.9529      2936.0471      6.6326981e+08  0.1            14078900       6.5976416      592.07555      5920.7746      10.319392    
  31544200   148131.66     -170.68581     -37467855       0.90626792     441110.8      -37026744       872.09422      872.09422      872.09422      2063.9529      2936.0471      2063.9529      2936.0471      2063.9529      2936.0471      6.6326981e+08  0.1            14078920       6.6312854      594.46485      5944.6315      10.285263    
  31544400   149344.41     -170.2874      -37467354       0.90626792     444722.16     -37022632       872.09422      872.09422      872.09422      2063.9529      2936.0471      2063.9529      2936.0471      2063.9529      2936.0471      6.6326981e+08  0.1            14078940       6.6649926      593.34272      5933.4261      10.251236    
  31544600   150284.31     -169.91991     -37468736       0.90626792     447521        -37021215       872.09422      872.09422      872.09422      2063.9529      2936.0471      2063.9529      2936.0471      2063.9529      2936.0471      6.6326981e+08  0.1            14078960       6.6986065      594.99395      5949.9346      10.21707     
  31544800   150936.02     -169.86885     -37475593       0.90626792     449461.7      -37026131       872.09422      872.09422      872.09422      2063.9529      2936.0471      2063.9529      2936.0471      2063.9529      2936.0471      6.6326981e+08  0.1            14078980       6.7323099      593.41103      5934.1154      10.183045    
  31545000   151305.68     -169.89287     -37475065       0.90626792     450562.46     -37024503       872.09422      872.09422      872.09422      2063.9529      2936.0471      2063.9529      2936.0471      2063.9529      2936.0471      6.6326981e+08  0.1            14079000       6.7659681      594.20918      5942.0937      10.148956    
  31545200   151423.73     -170.3187      -37481912       0.90626792     450914.01     -37030998       872.09422      872.09422      872.09422      2063.9529      2936.0471      2063.9529      2936.0471      2063.9529      2936.0471      6.6326981e+08  0.1            14079020       6.8003767      581.24855      5812.449       10.115987    
  31545400   151340.47     -170.29307     -37481380       0.90626792     450666.07     -37030714       872.09422      872.09422      872.09422      2063.9529      2936.0471      2063.9529      2936.0471      2063.9529      2936.0471      6.6326981e+08  0.1            14079040       6.8339375      595.93703      5959.4102      10.081753    
  31545600   151120.99     -169.9054      -37480845       0.90626792     450012.51     -37030832       872.09422      872.09422      872.09422      2063.9529      2936.0471      2063.9529      2936.0471      2063.9529      2936.0471      6.6326981e+08  0.1            14079060       6.8676213      593.75494      5937.5496      10.047705    
  31545800   150841.58     -169.12336     -37480303       0.90626792     449180.46     -37031123       872.09422      872.09422      872.09422      2063.9529      2936.0471      2063.9529      2936.0471      2063.9529      2936.0471      6.6326981e+08  0.1            14079080       6.901366       592.68546      5926.8531      10.01375     
  31546000   150583.32     -168.4451      -37487133       0.90626792     448411.42     -37038722       872.09422      872.09422      872.09422      2063.9529      2936.0471      2063.9529      2936.0471      2063.9529      2936.0471      6.6326981e+08  0.1            14079100       6.9351584      591.84648      5918.4609      9.9798656    
  31546200   150425.25     -168.03503     -37493959       0.90626792     447940.72     -37046018       872.09422      872.09422      872.09422      2063.9529      2936.0471      2063.9529      2936.0471      2063.9529      2936.0471      6.6326981e+08  0.1            14079120       6.9688522      593.5835       5935.8147      9.945841     
  31546400   150439.17     -167.7907      -37493405       0.90626792     447982.17     -37045423       872.09422      872.09422      872.09422      2063.9529      2936.0471      2063.9529      2936.0471      2063.9529      2936.0471      6.6326981e+08  0.1            14079140       7.0035293      576.74975      5767.5146      9.9132115    
  31546600   150682.52     -167.65595     -37492851       0.90626792     448706.82     -37044144       872.09422      872.09422      872.09422      2063.9529      2936.0471      2063.9529      2936.0471      2063.9529      2936.0471      6.6326981e+08  0.1            14079160       7.0372229      593.58584      5935.8697      9.8791813    
  31546800   151194.33     -167.41198     -37492293       0.90626792     450230.89     -37042063       872.09422      872.09422      872.09422      2063.9529      2936.0471      2063.9529      2936.0471      2063.9529      2936.0471      6.6326981e+08  0.1            14079180       7.0708227      595.2421       5952.4135      9.8450241    
  31547000   151994.01     -167.198       -37491734       0.90626792     452612.19     -37039121       872.09422      872.09422      872.09422      2063.9529      2936.0471      2063.9529      2936.0471      2063.9529      2936.0471      6.6326981e+08  0.1            14079200       7.1045895      592.29583      5922.962       9.811103     
  31547200   153078.34     -166.90102     -37491172       0.90626792     455841.15     -37035331       872.09422      872.09422      872.09422      2063.9529      2936.0471      2063.9529      2936.0471      2063.9529      2936.0471      6.6326981e+08  0.1            14079220       7.1384267      591.06556      5910.6467      9.7772795    
  31547400   154419.39     -166.04978     -37483226       0.90626792     459834.58     -37023391       872.09422      872.09422      872.09422      2063.9529      2936.0471      2063.9529      2936.0471      2063.9529      2936.0471      6.6326981e+08  0.1            14079240       7.1721182      593.62309      5936.2321      9.743258     
  31547600   155968.24     -165.62615     -37495512       0.90626792     464446.8      -37031065       872.09422      872.09422      872.09422      2063.9529      2936.0471      2063.9529      2936.0471      2063.9529      2936.0471      6.6326981e+08  0.1            14079260       7.2059488      591.18162      5911.8279      9.7094268    
  31547800   157661.13     -164.68786     -37493041       0.90626792     469487.91     -37023553       872.09422      872.09422      872.09422      2063.9529      2936.0471      2063.9529      2936.0471      2063.9529      2936.0471      6.6326981e+08  0.1            14079280       7.2396722      593.0597       5930.6012      9.6754526    
  31548000   159421.59     -163.63868     -37494361       0.90626792     474730.28     -37019631       872.09422      872.09422      872.09422      2063.9529      2936.0471      2063.9529      2936.0471      2063.9529      2936.0471      6.6326981e+08  0.1            14079300       7.2733902      593.15341      5931.5262      9.6414737    
  31548200   161167.09     -162.47269     -37493783       0.90626792     479928.08     -37013855       872.09422      872.09422      872.09422      2063.9529      2936.0471      2063.9529      2936.0471      2063.9529      2936.0471      6.6326981e+08  0.1            14079320       7.3070717      593.79902      5937.9775      9.607449     
  31548400   162817.73     -161.80892     -37500579       0.90626792     484843.39     -37015736       872.09422      872.09422      872.09422      2063.9529      2936.0471      2063.9529      2936.0471      2063.9529      2936.0471      6.6326981e+08  0.1            14079340       7.3407741      593.4295       5934.3008      9.5734548    
  31548600   164303.5      -161.1705      -37501891       0.90626792     489267.77     -37012624       872.09422      872.09422      872.09422      2063.9529      2936.0471      2063.9529      2936.0471      2063.9529      2936.0471      6.6326981e+08  0.1            14079360       7.3752264      580.51103      5805.1245      9.5404333    
  31548800   165564.45     -160.63246     -37510576       0.90626792     493022.67     -37017553       872.09422      872.09422      872.09422      2063.9529      2936.0471      2063.9529      2936.0471      2063.9529      2936.0471      6.6326981e+08  0.1            14079380       7.4089813      592.50787      5925.0743      9.5065039    
  31549000   166559.06     -159.8789      -37508086       0.90626792     495984.45     -37012101       872.09422      872.09422      872.09422      2063.9529      2936.0471      2063.9529      2936.0471      2063.9529      2936.0471      6.6326981e+08  0.1            14079400       7.4428045      591.30698      5913.0644      9.4726633    
  31549200   167268.16     -158.98895     -37500111       0.90626792     498096.02     -37002015       872.09422      872.09422      872.09422      2063.9529      2936.0471      2063.9529      2936.0471      2063.9529      2936.0471      6.6326981e+08  0.1            14079420       7.4765191      593.21757      5932.1805      9.4386853    
  31549400   167693.42     -158.09443     -37499513       0.90626792     499362.38     -37000151       872.09422      872.09422      872.09422      2063.9529      2936.0471      2063.9529      2936.0471      2063.9529      2936.0471      6.6326981e+08  0.1            14079440       7.5101489      594.70898      5947.0873      9.4046037    
  31549600   167859.1      -157.27281     -37497019       0.90626792     499855.73     -36997164       872.09422      872.09422      872.09422      2063.9529      2936.0471      2063.9529      2936.0471      2063.9529      2936.0471      6.6326981e+08  0.1            14079460       7.5438525      593.40955      5934.0914      9.3706178    
  31549800   167811.98     -156.71912     -37496424       0.90626792     499715.41     -36996708       872.09422      872.09422      872.09422      2063.9529      2936.0471      2063.9529      2936.0471      2063.9529      2936.0471      6.6326981e+08  0.1            14079480       7.5775989      592.65476      5926.5374      9.3366874    
[...]
  32194400   309.90233      0.3760552     -37918906       0.95329866     922.83622     -37917983       857.51018      857.51018      857.51018      2071.2449      2928.7551      2071.2449      2928.7551      2071.2449      2928.7551      6.3054756e+08  0.1            14143940       57.916419      500.88923      5008.8848      2.121334     
  32194600   309.92352      1.6968553     -37919027       0.95335316     922.89932     -37918104       857.49384      857.49384      857.49384      2071.2531      2928.7469      2071.2531      2928.7469      2071.2531      2928.7469      6.3051151e+08  0.1            14143960       57.956352      500.83814      5008.3941      2.0813056    
  32194800   309.88491      0.2184021     -37919149       0.95330779     922.78435     -37918226       857.50744      857.50744      857.50744      2071.2463      2928.7537      2071.2463      2928.7537      2071.2463      2928.7537      6.3054152e+08  0.1            14143980       57.996219      501.6736       5016.7283      2.0412749    
  32195000   309.67395      1.8814993     -37919270       0.95337452     922.15614     -37918348       857.48743      857.48743      857.48743      2071.2563      2928.7437      2071.2563      2928.7437      2071.2563      2928.7437      6.3049739e+08  0.1            14144000       58.036176      500.5414       5005.4164      2.0012475    
  32195200   309.78677     -0.0028880261  -37919392       0.95331463     922.4921      -37918469       857.50539      857.50539      857.50539      2071.2473      2928.7527      2071.2473      2928.7527      2071.2473      2928.7527      6.30537e+08    0.1            14144020       58.076119      500.71184      5007.1218      1.9612198    
  32195400   309.89794      2.1481022     -37919512       0.95339878     922.82315     -37918589       857.48016      857.48016      857.48016      2071.2599      2928.7401      2071.2599      2928.7401      2071.2599      2928.7401      6.3048134e+08  0.1            14144040       58.116053      500.82268      5008.2225      1.9211919    
  32195600   309.8898      -0.32241931    -37919634       0.95331795     922.79891     -37918712       857.50439      857.50439      857.50439      2071.2478      2928.7522      2071.2478      2928.7522      2071.2478      2928.7522      6.305348e+08   0.1            14144060       58.155961      501.15942      5011.6007      1.8811633    
  32195800   309.88435      2.521914      -37919755       0.95342691     922.78268     -37918832       857.47173      857.47173      857.47173      2071.2641      2928.7359      2071.2641      2928.7359      2071.2641      2928.7359      6.3046274e+08  0.1            14144080       58.195855      501.32395      5013.2424      1.8411344    
  32196000   309.63582     -0.74088799    -37919877       0.95331778     922.04259     -37918955       857.50445      857.50445      857.50445      2071.2478      2928.7522      2071.2478      2928.7522      2071.2478      2928.7522      6.3053491e+08  0.1            14144100       58.23586       499.93971      4999.3845      1.8011091    
  32196200   309.79146      2.9493778     -37919996       0.95345698     922.50607     -37919074       857.46271      857.46271      857.46271      2071.2686      2928.7314      2071.2686      2928.7314      2071.2686      2928.7314      6.3044286e+08  0.1            14144120       58.275806      500.67163      5006.7278      1.7610821    
  32196400   309.85508     -1.0983553     -37920119       0.95331976     922.69552     -37919196       857.50385      857.50385      857.50385      2071.2481      2928.7519      2071.2481      2928.7519      2071.2481      2928.7519      6.305336e+08   0.1            14144140       58.315772      500.42004      5004.2094      1.7210558    
  32196600   309.89803      3.1011773     -37920238       0.95347723     922.82342     -37919315       857.45664      857.45664      857.45664      2071.2717      2928.7283      2071.2717      2928.7283      2071.2717      2928.7283      6.3042947e+08  0.1            14144160       58.355735      500.47238      5004.7089      1.6810295    
  32196800   309.84044     -0.84780304    -37920361       0.9533435      922.65192     -37919438       857.49673      857.49673      857.49673      2071.2516      2928.7484      2071.2516      2928.7484      2071.2516      2928.7484      6.305179e+08   0.1            14144180       58.395691      500.55123      5005.5059      1.641003     
  32197000   309.64078      2.2691647     -37920481       0.95346233     922.05737     -37919559       857.46111      857.46111      857.46111      2071.2694      2928.7306      2071.2694      2928.7306      2071.2694      2928.7306      6.3043932e+08  0.1            14144200       58.43566       500.38215      5003.8288      1.6009771    
  32197200   309.7562       0.65153385    -37920603       0.95341189     922.40107     -37919680       857.47623      857.47623      857.47623      2071.2619      2928.7381      2071.2619      2928.7381      2071.2619      2928.7381      6.3047267e+08  0.1            14144220       58.47651       489.59237      4895.9262      1.5609747    
  32197400   309.84726      0.27939158    -37920724       0.95340602     922.67224     -37919801       857.47799      857.47799      857.47799      2071.261       2928.739       2071.261       2928.739       2071.261       2928.739       6.3047656e+08  0.1            14144240       58.516435      500.94415      5009.4385      1.5209471    
  32197600   309.87762      2.7307807     -37920843       0.95350118     922.76262     -37919920       857.44946      857.44946      857.44946      2071.2753      2928.7247      2071.2753      2928.7247      2071.2753      2928.7247      6.3041363e+08  0.1            14144260       58.556366      500.85899      5008.5968      1.4809198    
  32197800   309.81705     -1.4243079     -37920965       0.95336005     922.58227     -37920042       857.49177      857.49177      857.49177      2071.2541      2928.7459      2071.2541      2928.7459      2071.2541      2928.7459      6.3050696e+08  0.1            14144280       58.596291      500.94097      5009.4057      1.4408925    
  32198000   309.63419      3.714164      -37921084       0.95355139     922.03776     -37920162       857.43441      857.43441      857.43441      2071.2828      2928.7172      2071.2828      2928.7172      2071.2828      2928.7172      6.3038044e+08  0.1            14144300       58.63623       500.76504      5007.6537      1.4008656    
  32198200   309.71975     -1.6205046     -37921206       0.95336796     922.29253     -37920284       857.4894       857.4894       857.4894       2071.2553      2928.7447      2071.2553      2928.7447      2071.2553      2928.7447      6.3050173e+08  0.1            14144320       58.676156      500.93083      5009.2981      1.3608386    
  32198400   309.85214      3.2237223     -37921325       0.95354878     922.68676     -37920403       857.4352       857.4352       857.4352       2071.2824      2928.7176      2071.2824      2928.7176      2071.2824      2928.7176      6.3038217e+08  0.1            14144340       58.7161        500.69956      5007.0007      1.3208121    
  32198600   309.83256     -0.64859535    -37921448       0.95341764     922.62847     -37920525       857.47451      857.47451      857.47451      2071.2627      2928.7373      2071.2627      2928.7373      2071.2627      2928.7373      6.3046887e+08  0.1            14144360       58.755975      501.56186      5015.6169      1.2807843    
  32198800   309.82485      1.993968      -37921568       0.95351972     922.60549     -37920645       857.4439       857.4439       857.4439       2071.278       2928.722       2071.278       2928.722       2071.278       2928.722       6.3040138e+08  0.1            14144380       58.795891      501.06215      5010.623       1.2407574    
  32199000   309.59137      0.64509598    -37921689       0.95347895     921.91023     -37920767       857.45613      857.45613      857.45613      2071.2719      2928.7281      2071.2719      2928.7281      2071.2719      2928.7281      6.3042833e+08  0.1            14144400       58.835935      499.44984      4994.4902      1.2007334    
  32199200   309.71966      0.80826371    -37921809       0.95349231     922.29225     -37920887       857.45212      857.45212      857.45212      2071.2739      2928.7261      2071.2739      2928.7261      2071.2739      2928.7261      6.304195e+08   0.1            14144420       58.875827      501.34855      5013.4928      1.1607064    
  32199400   309.82098      1.5926711     -37921929       0.95352795     922.59397     -37921007       857.44144      857.44144      857.44144      2071.2793      2928.7207      2071.2793      2928.7207      2071.2793      2928.7207      6.3039594e+08  0.1            14144440       58.915721      501.33335      5013.3332      1.1206795    
  32199600   309.82027      0.18816145    -37922050       0.95348521     922.59186     -37921127       857.45425      857.45425      857.45425      2071.2729      2928.7271      2071.2729      2928.7271      2071.2729      2928.7271      6.304242e+08   0.1            14144460       58.955622      501.23913      5012.3836      1.080653     
  32199800   309.80499      1.8390734     -37922170       0.95355193     922.54636     -37921247       857.43425      857.43425      857.43425      2071.2829      2928.7171      2071.2829      2928.7171      2071.2829      2928.7171      6.3038008e+08  0.1            14144480       58.995598      500.29843      5002.9947      1.040628     
  32200000   309.57642      0.85569393    -37922291       0.9535243      921.86573     -37921369       857.44253      857.44253      857.44253      2071.2787      2928.7213      2071.2787      2928.7213      2071.2787      2928.7213      6.3039835e+08  0.1            14144500       59.035599      499.99004      4999.9068      1.0006034    
  32200200   309.71653      1.9220101     -37924305       0.95357331     922.28294     -37923383       857.42784      857.42784      857.42784      2071.2861      2928.7139      2071.2861      2928.7139      2071.2861      2928.7139      6.3036595e+08  0.1            14144520       59.075432      502.099        5020.9785      0.96057616   
  32200400   309.79694      0.086941737   -37924426       0.95351517     922.52239     -37923503       857.44527      857.44527      857.44527      2071.2774      2928.7226      2071.2774      2928.7226      2071.2774      2928.7226      6.3040438e+08  0.1            14144540       59.115316      501.45104      5014.5164      0.92054998   
  32200600   309.81741      1.6922583     -37924545       0.95358032     922.58334     -37923623       857.42574      857.42574      857.42574      2071.2871      2928.7129      2071.2871      2928.7129      2071.2871      2928.7129      6.3036131e+08  0.1            14144560       59.155176      501.75898      5017.5926      0.88052362   
  32200800   309.78069      0.69054026    -37924666       0.95355207     922.47399     -37923744       857.43421      857.43421      857.43421      2071.2829      2928.7171      2071.2829      2928.7171      2071.2829      2928.7171      6.3037999e+08  0.1            14144580       59.195092      501.0505       5010.5025      0.84049829   
  32201000   309.55829      0.84796934    -37924786       0.95356538     921.81173     -37923864       857.43022      857.43022      857.43022      2071.2849      2928.7151      2071.2849      2928.7151      2071.2849      2928.7151      6.3037119e+08  0.1            14144600       59.235115      499.70777      4997.0682      0.80047456   
  32201200   309.693        1.5882869     -37924906       0.95359958     922.21288     -37923983       857.41997      857.41997      857.41997      2071.29        2928.71        2071.29        2928.71        2071.29        2928.71        6.3034859e+08  0.1            14144620       59.274955      502.01072      5020.1121      0.76044847   
  32201400   309.77773      0.10797863    -37925026       0.95355421     922.46517     -37924104       857.43357      857.43357      857.43357      2071.2832      2928.7168      2071.2832      2928.7168      2071.2832      2928.7168      6.3037858e+08  0.1            14144640       59.314779      502.20301      5022.0333      0.72042245   
  32201600   309.80262      1.971723      -37925145       0.9536287      922.5393      -37924223       857.41124      857.41124      857.41124      2071.2944      2928.7056      2071.2944      2928.7056      2071.2944      2928.7056      6.3032933e+08  0.1            14144660       59.35468       501.24308      5012.4292      0.68039758   
  32201800   309.76074      0.22231377    -37925266       0.95357372     922.4146      -37924344       857.42772      857.42772      857.42772      2071.2861      2928.7139      2071.2861      2928.7139      2071.2861      2928.7139      6.3036568e+08  0.1            14144680       59.39457       501.38108      5013.8043      0.64037275   
  32202000   309.54493      1.3185219     -37925386       0.95362073     921.77194     -37924464       857.41363      857.41363      857.41363      2071.2932      2928.7068      2071.2932      2928.7068      2071.2932      2928.7068      6.3033461e+08  0.1            14144700       59.434504      500.82135      5008.226       0.60034855   
  32202200   309.67409      1.3262386     -37925505       0.95362872     922.15657     -37924583       857.41124      857.41124      857.41124      2071.2944      2928.7056      2071.2944      2928.7056      2071.2944      2928.7056      6.3032933e+08  0.1            14144720       59.475449      488.46698      4884.6559      0.560334     
  32202400   309.76021     -0.012694994   -37925625       0.95358847     922.413       -37924703       857.4233       857.4233       857.4233       2071.2884      2928.7116      2071.2884      2928.7116      2071.2884      2928.7116      6.3035593e+08  0.1            14144740       59.515292      501.96574      5019.6635      0.52030856   
  32202600   309.79082      2.5633073     -37925744       0.95368852     922.50416     -37924821       857.39331      857.39331      857.39331      2071.3033      2928.6967      2071.3033      2928.6967      2071.3033      2928.6967      6.302898e+08   0.1            14144760       59.555203      501.11437      5011.1352      0.48028392   
  32202800   309.73612     -0.8072258     -37925865       0.9535755      922.34127     -37924942       857.42719      857.42719      857.42719      2071.2864      2928.7136      2071.2864      2928.7136      2071.2864      2928.7136      6.303645e+08   0.1            14144780       59.59513       500.9139       5009.151       0.44025954   
  32203000   309.53798      2.6165376     -37925983       0.95370588     921.75126     -37925062       857.38811      857.38811      857.38811      2071.3059      2928.6941      2071.3059      2928.6941      2071.3059      2928.6941      6.3027832e+08  0.1            14144800       59.635086      500.55915      5005.5894      0.40023549   
  32203200   309.64755      0.048304996   -37926104       0.95362158     922.07752     -37925182       857.41337      857.41337      857.41337      2071.2933      2928.7067      2071.2933      2928.7067      2071.2933      2928.7067      6.3033404e+08  0.1            14144820       59.674942      501.80083      5018.0018      0.36021093   
  32203400   309.75053      0.87889818    -37926223       0.95365904     922.38419     -37925301       857.40215      857.40215      857.40215      2071.2989      2928.7011      2071.2989      2928.7011      2071.2989      2928.7011      6.3030928e+08  0.1            14144840       59.714789      501.92415      5019.2479      0.32018655   
  32203600   309.77342      2.4318158     -37926342       0.95372237     922.45234     -37925420       857.38317      857.38317      857.38317      2071.3084      2928.6916      2071.3084      2928.6916      2071.3084      2928.6916      6.3026743e+08  0.1            14144860       59.754689      501.25567      5012.5596      0.28016265   
  32203800   309.7121      -1.6932232     -37926462       0.95358244     922.26976     -37925540       857.42511      857.42511      857.42511      2071.2874      2928.7126      2071.2874      2928.7126      2071.2874      2928.7126      6.3035991e+08  0.1            14144880       59.794648      500.51004      5005.1041      0.24013916   
  32204000   309.53647      4.602721      -37926578       0.95381555     921.74676     -37925657       857.35525      857.35525      857.35525      2071.3224      2928.6776      2071.3224      2928.6776      2071.3224      2928.6776      6.3020585e+08  0.1            14144900       59.834564      501.04764      5010.4831      0.20011561   
  32204200   309.60709     -2.9522516     -37926700       0.95355285     921.95704     -37925778       857.43398      857.43398      857.43398      2071.283       2928.717       2071.283       2928.717       2071.283       2928.717       6.3037947e+08  0.1            14144920       59.874434      501.63227      5016.299       0.16009208   
  32204400   309.76348      4.697734      -37926817       0.95383422     922.42276     -37925894       857.34966      857.34966      857.34966      2071.3252      2928.6748      2071.3252      2928.6748      2071.3252      2928.6748      6.3019352e+08  0.1            14144940       59.914307      501.59775      5015.9898      0.12006876   
  32204600   309.7218      -2.0180805     -37926939       0.95360157     922.29863     -37926017       857.41937      857.41937      857.41937      2071.2903      2928.7097      2071.2903      2928.7097      2071.2903      2928.7097      6.3034727e+08  0.1            14144960       59.954155      501.90137      5019.0157      0.080045604  
  32204800   309.73228      3.1571469     -37927058       0.95379425     922.32985     -37926135       857.36163      857.36163      857.36163      2071.3192      2928.6808      2071.3192      2928.6808      2071.3192      2928.6808      6.3021993e+08  0.1            14144980       59.994038      501.46298      5014.6341      0.040022709  
  32205000   309.48085     -0.33471324    -37927179       0.95367698     921.58113     -37926257       857.39677      857.39677      857.39677      2071.3016      2928.6984      2071.3016      2928.6984      2071.3016      2928.6984      6.3029742e+08  0.1            14145000       60.033936      501.27797      5012.7753      0            
Loop time of 60.0339 on 1 procs for 300000 steps with 1000 atoms

Performance: 43.176 ns/day, 0.556 hours/ns, 4997.173 timesteps/s
99.7% CPU use with 1 MPI tasks x 1 OpenMP threads

MPI task timing breakdown:
Section |  min time  |  avg time  |  max time  |%varavg| %total
---------------------------------------------------------------
Pair    | 45.078     | 45.078     | 45.078     |   0.0 | 75.09
Neigh   | 0.024076   | 0.024076   | 0.024076   |   0.0 |  0.04
Comm    | 1.9053     | 1.9053     | 1.9053     |   0.0 |  3.17
Output  | 0.052291   | 0.052291   | 0.052291   |   0.0 |  0.09
Modify  | 11.513     | 11.513     | 11.513     |   0.0 | 19.18
Other   |            | 1.46       |            |       |  2.43

Nlocal:           1000 ave        1000 max        1000 min
Histogram: 1 0 0 0 0 0 0 0 0 0
Nghost:           1249 ave        1249 max        1249 min
Histogram: 1 0 0 0 0 0 0 0 0 0
Neighs:           5231 ave        5231 max        5231 min
Histogram: 1 0 0 0 0 0 0 0 0 0

Total # of neighbors = 5231
Ave neighs/atom = 5.231
Neighbor list builds = 37
Dangerous builds = 15

# run_style
run_style verlet

# write restart
write_restart ${write_res}
write_restart ./pgnpmf/37/equpmf46.res
System init for write_restart ...
Generated 0 of 1 mixed pair_coeff terms from geometric mixing rule

Total wall time: 0:02:08
