LAMMPS (23 Jun 2022 - Update 1)
OMP_NUM_THREADS environment is not set. Defaulting to 1 thread. (src/comm.cpp:98)
  using 1 OpenMP thread(s) per MPI task
# Read restart
read_restart ${read_res}
read_restart ./pgnpmf/37/equpmf95.res
Reading restart file ...
  restart file = 23 Jun 2022, LAMMPS = 23 Jun 2022
  restoring atom style atomic from restart
  orthogonal box = (2148.0095 2148.0095 2148.0095) to (2851.9905 2851.9905 2851.9905)
  1 by 1 by 1 MPI processor grid
  restoring pair style table from restart
  1000 atoms
  read_restart CPU = 0.004 seconds

# Settings

pair_style table spline 9941

pair_coeff 1 1 ./pgnpmf/N20.txt DE_GNP 75.6
pair_coeff 2 2 ./pgnpmf/N100.txt DE_GNP 115.92
WARNING: 3 of 9941 force values in table DE_GNP are inconsistent with -dE/dr.
WARNING:  Should only be flagged at inflection points (src/pair_table.cpp:463)
pair_coeff 1 2 ./pgnpmf/mixed_potential.txt DE_GNP 95.66
WARNING: 1562 of 9941 force values in table DE_GNP are inconsistent with -dE/dr.
WARNING:  Should only be flagged at inflection points (src/pair_table.cpp:463)

#Neigh_list Calc Frequency

neigh_modify delay 0 every 1 check yes

# Saving Frequency (50 frames)

variable ts_save equal ${steps_equ}
variable ts_save equal 5000

# Dump
#dump 1 all custom ${ts_save} ./pgnpmf/${folder}/equilibration/trajectory/trajectory_${usic}_${trial}.equ.custom type x y z ix iy iz
#dump_modify 1 first no sort id
#dump 2 all cfg 50000 ./equilibration/trajectory/ovito/dumpgen.tens_*.cfg mass type xs ys zs fx fy fz

# thermo_style
thermo_style custom step temp press pe density ke etotal lx ly lz xlo xhi ylo yhi zlo zhi vol dt time cpu tpcpu spcpu cpuremain

# run info
timestep ${ts}
timestep 0.1
thermo 200

# fix

fix 1 all momentum 1000 linear 1 1 1 angular
variable T equal ${temp}
variable T equal 300
fix 2 all nvt temp ${T} 370000 100.0
fix 2 all nvt temp 300 370000 100.0

run 100000
Generated 0 of 1 mixed pair_coeff terms from geometric mixing rule
Unused restart file global fix info:
  fix style: npt, fix ID: 5
Neighbor list info ...
  update every 1 steps, delay 0 steps, check yes
  max neighbors/atom: 2000, page size: 100000
  master list distance cutoff = 117.92
  ghost atom cutoff = 117.92
  binsize = 58.96, bins = 12 12 12
  1 neighbor lists, perpetual/occasional/extra = 1 0 0
  (1) pair table, perpetual
      attributes: half, newton on
      pair build: half/bin/atomonly/newton
      stencil: half/bin/3d
      bin: standard
Per MPI rank memory allocation (min/avg/max) = 3.112 | 3.112 | 3.112 Mbytes
   Step          Temp          Press          PotEng        Density         KinEng         TotEng           Lx             Ly             Lz            Xlo            Xhi            Ylo            Yhi            Zlo            Zhi           Volume           Dt            Time           CPU           T/CPU          S/CPU         CPULeft    
  66505000   304.96595      0.23302364    -44116950       1.7229159      908.13653     -44116042       703.98097      703.98097      703.98097      2148.0095      2851.9905      2148.0095      2851.9905      2148.0095      2851.9905      3.4888538e+08  0.1            17575000       0              0              0              0            
  66505200   331.95174      0.064176826   -44117017       1.7229159      988.4956      -44116028       703.98097      703.98097      703.98097      2148.0095      2851.9905      2148.0095      2851.9905      2148.0095      2851.9905      3.4888538e+08  0.1            17575020       0.042360167    472.13266      4721.228       21.138996    
  66505400   372.41113     -0.1086857     -44117086       1.7229159      1108.9768     -44115977       703.98097      703.98097      703.98097      2148.0095      2851.9905      2148.0095      2851.9905      2148.0095      2851.9905      3.4888538e+08  0.1            17575040       0.083772802    482.94514      4829.4147      20.860135    
  66505600   416.25427     -0.29078696    -44117160       1.7229159      1239.5341     -44115920       703.98097      703.98097      703.98097      2148.0095      2851.9905      2148.0095      2851.9905      2148.0095      2851.9905      3.4888538e+08  0.1            17575060       0.12514684     483.39679      4834.0036      20.733032    
  66505800   469.5358      -0.480311      -44117238       1.7229159      1398.1974     -44115840       703.98097      703.98097      703.98097      2148.0095      2851.9905      2148.0095      2851.9905      2148.0095      2851.9905      3.4888538e+08  0.1            17575080       0.16655076     483.04593      4830.4617      20.652578    
  66506000   531.20136     -0.67886528    -44117321       1.7229159      1581.8269     -44115740       703.98097      703.98097      703.98097      2148.0095      2851.9905      2148.0095      2851.9905      2148.0095      2851.9905      3.4888538e+08  0.1            17575100       0.20803678     482.09005      4820.9008      20.595862    
  66506200   602.41881     -0.88609018    -44117409       1.7229159      1793.9003     -44115615       703.98097      703.98097      703.98097      2148.0095      2851.9905      2148.0095      2851.9905      2148.0095      2851.9905      3.4888538e+08  0.1            17575120       0.24946365     482.7791       4827.7901      20.539354    
  66506400   683.84343     -1.1031298     -44117503       1.7229159      2036.369      -44115467       703.98097      703.98097      703.98097      2148.0095      2851.9905      2148.0095      2851.9905      2148.0095      2851.9905      3.4888538e+08  0.1            17575140       0.2909087      482.56562      4825.6441      20.488457    
  66506600   776.58767     -1.3304331     -44117603       1.7229159      2312.5455     -44115290       703.98097      703.98097      703.98097      2148.0095      2851.9905      2148.0095      2851.9905      2148.0095      2851.9905      3.4888538e+08  0.1            17575160       0.33228427     483.37803      4833.7879      20.435627    
  66506800   881.95692     -1.5682216     -44117709       1.7229159      2626.3171     -44115083       703.98097      703.98097      703.98097      2148.0095      2851.9905      2148.0095      2851.9905      2148.0095      2851.9905      3.4888538e+08  0.1            17575180       0.37393923     480.13433      4801.336       20.400595    
  66507000   1000.7491     -1.8167849     -44117823       1.7229159      2980.0599     -44114843       703.98097      703.98097      703.98097      2148.0095      2851.9905      2148.0095      2851.9905      2148.0095      2851.9905      3.4888538e+08  0.1            17575200       0.41688596     465.69189      4656.9179      20.427539    
  66507200   1135.6972     -2.0751494     -44117943       1.7229159      3381.9122     -44114561       703.98097      703.98097      703.98097      2148.0095      2851.9905      2148.0095      2851.9905      2148.0095      2851.9905      3.4888538e+08  0.1            17575220       0.45831915     482.70584      4827.0577      20.374481    
  66507400   1288.2791     -2.3434813     -44118071       1.7229159      3836.2751     -44114235       703.98097      703.98097      703.98097      2148.0095      2851.9905      2148.0095      2851.9905      2148.0095      2851.9905      3.4888538e+08  0.1            17575240       0.49973572     482.89832      4828.9866      20.322685    
  66507600   1460.5905     -2.6205178     -44118207       1.7229159      4349.3891     -44113857       703.98097      703.98097      703.98097      2148.0095      2851.9905      2148.0095      2851.9905      2148.0095      2851.9905      3.4888538e+08  0.1            17575260       0.54106431     483.92657      4839.2749      20.26919     
  66507800   1654.9625     -2.9047297     -44118352       1.7229159      4928.1957     -44113423       703.98097      703.98097      703.98097      2148.0095      2851.9905      2148.0095      2851.9905      2148.0095      2851.9905      3.4888538e+08  0.1            17575280       0.58248953     482.79895      4827.9782      20.220792    
  66508000   1873.2676     -3.195121      -44118505       1.7229159      5578.2709     -44112927       703.98097      703.98097      703.98097      2148.0095      2851.9905      2148.0095      2851.9905      2148.0095      2851.9905      3.4888538e+08  0.1            17575300       0.62386515     483.37638      4833.7711      20.171714    
  66508200   2119.4404     -3.4901593     -44118668       1.7229159      6311.3315     -44112357       703.98097      703.98097      703.98097      2148.0095      2851.9905      2148.0095      2851.9905      2148.0095      2851.9905      3.4888538e+08  0.1            17575320       0.66555611     479.71913      4797.1971      20.133143    
  66508400   2396.2054     -3.7896253     -44118841       1.7229159      7135.4906     -44111705       703.98097      703.98097      703.98097      2148.0095      2851.9905      2148.0095      2851.9905      2148.0095      2851.9905      3.4888538e+08  0.1            17575340       0.70708542     481.58545      4815.8454      20.089618    
  66508600   2707.0104     -3.708189      -44111646       1.7229159      8061.0147     -44103585       703.98097      703.98097      703.98097      2148.0095      2851.9905      2148.0095      2851.9905      2148.0095      2851.9905      3.4888538e+08  0.1            17575360       0.74858816     481.89905      4818.9951      20.045587    
  66508800   3055.6981     -4.0206412     -44111841       1.7229159      9099.3471     -44102742       703.98097      703.98097      703.98097      2148.0095      2851.9905      2148.0095      2851.9905      2148.0095      2851.9905      3.4888538e+08  0.1            17575380       0.79232636     457.26293      4572.6196      20.058436    
  66509000   3445.568      -3.9592636     -44104670       1.7229159      10260.313     -44094410       703.98097      703.98097      703.98097      2148.0095      2851.9905      2148.0095      2851.9905      2148.0095      2851.9905      3.4888538e+08  0.1            17575400       0.83383658     481.81162      4818.1211      20.012136    
  66509200   3882.1371     -4.2950352     -44104888       1.7229159      11560.341     -44093328       703.98097      703.98097      703.98097      2148.0095      2851.9905      2148.0095      2851.9905      2148.0095      2851.9905      3.4888538e+08  0.1            17575420       0.87565728     478.23262      4782.3386      19.973379    
  66509400   4369.6964     -4.6388514     -44105120       1.7229159      13012.21      -44092108       703.98097      703.98097      703.98097      2148.0095      2851.9905      2148.0095      2851.9905      2148.0095      2851.9905      3.4888538e+08  0.1            17575440       0.9172918      480.37073      4803.7065      19.930298    
  66509600   4913.2695     -5.3727414     -44112743       1.7229159      14630.878     -44098112       703.98097      703.98097      703.98097      2148.0095      2851.9905      2148.0095      2851.9905      2148.0095      2851.9905      3.4888538e+08  0.1            17575460       0.95902712     479.21037      4792.0978      19.889437    
  66509800   5518.1601     -5.7208439     -44113003       1.7229159      16432.138     -44096571       703.98097      703.98097      703.98097      2148.0095      2851.9905      2148.0095      2851.9905      2148.0095      2851.9905      3.4888538e+08  0.1            17575480       1.0006635      480.34902      4803.4917      19.846538    
  66510000   6189.0985     -6.0670349     -44113277       1.7229159      18430.078     -44094847       703.98097      703.98097      703.98097      2148.0095      2851.9905      2148.0095      2851.9905      2148.0095      2851.9905      3.4888538e+08  0.1            17575500       1.0432736      469.37278      4693.7331      19.82224     
  66510200   6932.8015     -6.4213701     -44113567       1.7229159      20644.699     -44092923       703.98097      703.98097      703.98097      2148.0095      2851.9905      2148.0095      2851.9905      2148.0095      2851.9905      3.4888538e+08  0.1            17575520       1.0849552      479.82831      4798.2774      19.779609    
  66510400   7754.5094     -6.4157486     -44106496       1.7229159      23091.605     -44083404       703.98097      703.98097      703.98097      2148.0095      2851.9905      2148.0095      2851.9905      2148.0095      2851.9905      3.4888538e+08  0.1            17575540       1.1265635      480.67351      4806.7381      19.735761    
  66510600   8659.7421     -6.8402501     -44106819       1.7229159      25787.233     -44081032       703.98097      703.98097      703.98097      2148.0095      2851.9905      2148.0095      2851.9905      2148.0095      2851.9905      3.4888538e+08  0.1            17575560       1.1681395      481.04661      4810.4705      19.691531    
  66510800   9653.6947     -7.3240629     -44107161       1.7229159      28747.054     -44078414       703.98097      703.98097      703.98097      2148.0095      2851.9905      2148.0095      2851.9905      2148.0095      2851.9905      3.4888538e+08  0.1            17575580       1.2096126      482.24092      4822.3977      19.645814    
  66511000   10740.36      -8.0338571     -44109415       1.7229159      31982.959     -44077432       703.98097      703.98097      703.98097      2148.0095      2851.9905      2148.0095      2851.9905      2148.0095      2851.9905      3.4888538e+08  0.1            17575600       1.2511061      482.0023       4819.9808      19.600704    
  66511200   11924.744     -8.6201654     -44109793       1.7229159      35509.852     -44074283       703.98097      703.98097      703.98097      2148.0095      2851.9905      2148.0095      2851.9905      2148.0095      2851.9905      3.4888538e+08  0.1            17575620       1.2925196      482.93471      4829.3953      19.554604    
  66511400   13209.175     -9.0619624     -44108295       1.7229159      39334.667     -44068961       703.98097      703.98097      703.98097      2148.0095      2851.9905      2148.0095      2851.9905      2148.0095      2851.9905      3.4888538e+08  0.1            17575640       1.3339346      482.91739      4829.1482      19.508829    
  66511600   14594.97      -9.6512075     -44108712       1.7229159      43461.328     -44065251       703.98097      703.98097      703.98097      2148.0095      2851.9905      2148.0095      2851.9905      2148.0095      2851.9905      3.4888538e+08  0.1            17575660       1.3754574      481.66255      4816.6415      19.464838    
  66511800   16081.318     -10.166477     -44109148       1.7229159      47887.418     -44061260       703.98097      703.98097      703.98097      2148.0095      2851.9905      2148.0095      2851.9905      2148.0095      2851.9905      3.4888538e+08  0.1            17575680       1.4168967      482.63343      4826.3504      19.419848    
  66512000   17664.373     -10.566869     -44109602       1.7229159      52601.486     -44057001       703.98097      703.98097      703.98097      2148.0095      2851.9905      2148.0095      2851.9905      2148.0095      2851.9905      3.4888538e+08  0.1            17575700       1.4583712      482.22491      4822.2435      19.375531    
  66512200   19339.235     -10.851068     -44110075       1.7229159      57588.94      -44052486       703.98097      703.98097      703.98097      2148.0095      2851.9905      2148.0095      2851.9905      2148.0095      2851.9905      3.4888538e+08  0.1            17575720       1.4997175      483.71874      4837.1797      19.329722    
  66512400   21096.242     -10.917337     -44110198       1.7229159      62821.008     -44047377       703.98097      703.98097      703.98097      2148.0095      2851.9905      2148.0095      2851.9905      2148.0095      2851.9905      3.4888538e+08  0.1            17575740       1.5411086      483.19093      4831.906       19.284717    
  66512600   22922.276     -11.033636     -44110707       1.7229159      68258.623     -44042449       703.98097      703.98097      703.98097      2148.0095      2851.9905      2148.0095      2851.9905      2148.0095      2851.9905      3.4888538e+08  0.1            17575760       1.5824906      483.30492      4833.0541      19.239783    
  66512800   24799.975     -11.156004     -44111235       1.7229159      73850.092     -44037385       703.98097      703.98097      703.98097      2148.0095      2851.9905      2148.0095      2851.9905      2148.0095      2851.9905      3.4888538e+08  0.1            17575780       1.6238126      484.00522      4840.0567      19.194324    
  66513000   26706.653     -11.306335     -44111783       1.7229159      79527.852     -44032255       703.98097      703.98097      703.98097      2148.0095      2851.9905      2148.0095      2851.9905      2148.0095      2851.9905      3.4888538e+08  0.1            17575800       1.6652666      482.46265      4824.6256      19.150592    
  66513200   28616.309     -11.793244     -44119357       1.7229159      85214.48      -44034143       703.98097      703.98097      703.98097      2148.0095      2851.9905      2148.0095      2851.9905      2148.0095      2851.9905      3.4888538e+08  0.1            17575820       1.7066463      483.32838      4833.2843      19.106138    
  66513400   30496.53      -12.065344     -44119941       1.7229159      90813.459     -44029127       703.98097      703.98097      703.98097      2148.0095      2851.9905      2148.0095      2851.9905      2148.0095      2851.9905      3.4888538e+08  0.1            17575840       1.7479962      483.67562      4836.7531      19.061508    
  66513600   32309.761     -12.438453     -44120538       1.7229159      96212.95      -44024325       703.98097      703.98097      703.98097      2148.0095      2851.9905      2148.0095      2851.9905      2148.0095      2851.9905      3.4888538e+08  0.1            17575860       1.7894597      482.35347      4823.5261      19.018236    
  66513800   34015.434     -13.106905     -44121145       1.7229159      101292.16     -44019853       703.98097      703.98097      703.98097      2148.0095      2851.9905      2148.0095      2851.9905      2148.0095      2851.9905      3.4888538e+08  0.1            17575880       1.830832       483.41457      4834.1579      18.974101    
  66514000   35571.093     -14.081501     -44121764       1.7229159      105924.64     -44015839       703.98097      703.98097      703.98097      2148.0095      2851.9905      2148.0095      2851.9905      2148.0095      2851.9905      3.4888538e+08  0.1            17575900       1.8722578      482.7925       4827.9192      18.930629    
  66514200   36936.732     -15.212913     -44122391       1.7229159      109991.28     -44012399       703.98097      703.98097      703.98097      2148.0095      2851.9905      2148.0095      2851.9905      2148.0095      2851.9905      3.4888538e+08  0.1            17575920       1.9135673      484.14919      4841.4886      18.886101    
  66514400   38075.236     -16.409889     -44123026       1.7229159      113381.55     -44009644       703.98097      703.98097      703.98097      2148.0095      2851.9905      2148.0095      2851.9905      2148.0095      2851.9905      3.4888538e+08  0.1            17575940       1.9549196      483.64954      4836.495       18.84212     
  66514600   38959.141     -17.705306     -44123666       1.7229159      116013.67     -44007652       703.98097      703.98097      703.98097      2148.0095      2851.9905      2148.0095      2851.9905      2148.0095      2851.9905      3.4888538e+08  0.1            17575960       1.9962555      483.84062      4838.4163      18.798094    
  66514800   39576.314     -19.075157     -44124308       1.7229159      117851.51     -44006457       703.98097      703.98097      703.98097      2148.0095      2851.9905      2148.0095      2851.9905      2148.0095      2851.9905      3.4888538e+08  0.1            17575980       2.0414021      443.00016      4429.9928      18.789254    
  66515000   39934.379     -20.549249     -44124951       1.7229159      118917.76     -44006033       703.98097      703.98097      703.98097      2148.0095      2851.9905      2148.0095      2851.9905      2148.0095      2851.9905      3.4888538e+08  0.1            17576000       2.0828418      482.62973      4826.2992      18.745598    
  66515200   40065.749     -21.940188     -44123696       1.7229159      119308.96     -44004387       703.98097      703.98097      703.98097      2148.0095      2851.9905      2148.0095      2851.9905      2148.0095      2851.9905      3.4888538e+08  0.1            17576020       2.124183       483.77836      4837.7914      18.701161    
  66515400   40023.06      -23.483325     -44124331       1.7229159      119181.84     -44005149       703.98097      703.98097      703.98097      2148.0095      2851.9905      2148.0095      2851.9905      2148.0095      2851.9905      3.4888538e+08  0.1            17576040       2.16555        483.47766      4834.7758      18.657066    
  66515600   39874.603     -24.816964     -44123064       1.7229159      118739.76     -44004324       703.98097      703.98097      703.98097      2148.0095      2851.9905      2148.0095      2851.9905      2148.0095      2851.9905      3.4888538e+08  0.1            17576060       2.206969       482.87057      4828.6981      18.613513    
  66515800   39695.28      -26.226621     -44123686       1.7229159      118205.77     -44005480       703.98097      703.98097      703.98097      2148.0095      2851.9905      2148.0095      2851.9905      2148.0095      2851.9905      3.4888538e+08  0.1            17576080       2.2490993      474.71691      4747.1766      18.575913    
  66516000   39557.434     -27.660402     -44124303       1.7229159      117795.28     -44006507       703.98097      703.98097      703.98097      2148.0095      2851.9905      2148.0095      2851.9905      2148.0095      2851.9905      3.4888538e+08  0.1            17576100       2.2905039      483.0382       4830.3752      18.532278    
  66516200   39527.147     -29.067587     -44124913       1.7229159      117705.09     -44007208       703.98097      703.98097      703.98097      2148.0095      2851.9905      2148.0095      2851.9905      2148.0095      2851.9905      3.4888538e+08  0.1            17576120       2.3317351      485.07069      4850.7165      18.487346    
  66516400   39659.118     -30.287755     -44125519       1.7229159      118098.08     -44007421       703.98097      703.98097      703.98097      2148.0095      2851.9905      2148.0095      2851.9905      2148.0095      2851.9905      3.4888538e+08  0.1            17576140       2.3735239      478.59541      4785.9481      18.44688     
  66516600   39997.592     -31.355626     -44126122       1.7229159      119106        -44007016       703.98097      703.98097      703.98097      2148.0095      2851.9905      2148.0095      2851.9905      2148.0095      2851.9905      3.4888538e+08  0.1            17576160       2.4148767      483.64451      4836.439       18.403044    
  66516800   40574.037     -32.196025     -44124830       1.7229159      120822.55     -44004007       703.98097      703.98097      703.98097      2148.0095      2851.9905      2148.0095      2851.9905      2148.0095      2851.9905      3.4888538e+08  0.1            17576180       2.4562211      483.74095      4837.4211      18.359229    
  66517000   41402.79      -33.180284     -44125434       1.7229159      123290.44     -44002143       703.98097      703.98097      703.98097      2148.0095      2851.9905      2148.0095      2851.9905      2148.0095      2851.9905      3.4888538e+08  0.1            17576200       2.4975877      483.48223      4834.8191      18.31566     
  66517200   42479.351     -33.851214     -44120554       1.7229159      126496.25     -43994058       703.98097      703.98097      703.98097      2148.0095      2851.9905      2148.0095      2851.9905      2148.0095      2851.9905      3.4888538e+08  0.1            17576220       2.5388221      485.0321       4850.322       18.271212    
  66517400   43777.097     -34.571094     -44121158       1.7229159      130360.72     -43990798       703.98097      703.98097      703.98097      2148.0095      2851.9905      2148.0095      2851.9905      2148.0095      2851.9905      3.4888538e+08  0.1            17576240       2.5802001      483.34895      4833.4818      18.227882    
  66517600   45250.329     -35.198028     -44121765       1.7229159      134747.75     -43987017       703.98097      703.98097      703.98097      2148.0095      2851.9905      2148.0095      2851.9905      2148.0095      2851.9905      3.4888538e+08  0.1            17576260       2.6215449      483.73655      4837.3663      18.184383    
  66517800   46839.668     -35.802283     -44122376       1.7229159      139480.53     -43982895       703.98097      703.98097      703.98097      2148.0095      2851.9905      2148.0095      2851.9905      2148.0095      2851.9905      3.4888538e+08  0.1            17576280       2.6629205      483.37686      4833.7774      18.141161    
  66518000   48477.45      -36.276754     -44122993       1.7229159      144357.57     -43978636       703.98097      703.98097      703.98097      2148.0095      2851.9905      2148.0095      2851.9905      2148.0095      2851.9905      3.4888538e+08  0.1            17576300       2.7043615      482.61387      4826.138       18.098434    
  66518200   50095.066     -36.586695     -44123615       1.7229159      149174.55     -43974440       703.98097      703.98097      703.98097      2148.0095      2851.9905      2148.0095      2851.9905      2148.0095      2851.9905      3.4888538e+08  0.1            17576320       2.7456453      484.4519       4844.5096      18.054713    
  66518400   51625.667     -37.194564     -44124608       1.7229159      153732.42     -43970875       703.98097      703.98097      703.98097      2148.0095      2851.9905      2148.0095      2851.9905      2148.0095      2851.9905      3.4888538e+08  0.1            17576340       2.7870444      483.10162      4831.0315      18.011808    
  66518600   53009.859     -38.011944     -44125236       1.7229159      157854.31     -43967382       703.98097      703.98097      703.98097      2148.0095      2851.9905      2148.0095      2851.9905      2148.0095      2851.9905      3.4888538e+08  0.1            17576360       2.8285277      482.12256      4821.218       17.969484    
  66518800   54197.449     -38.91386      -44125868       1.7229159      161390.75     -43964477       703.98097      703.98097      703.98097      2148.0095      2851.9905      2148.0095      2851.9905      2148.0095      2851.9905      3.4888538e+08  0.1            17576380       2.8699667      482.63706      4826.3728      17.926907    
  66519000   55150.619     -39.859067     -44126500       1.7229159      164229.13     -43962271       703.98097      703.98097      703.98097      2148.0095      2851.9905      2148.0095      2851.9905      2148.0095      2851.9905      3.4888538e+08  0.1            17576400       2.91181        477.97269      4779.7144      17.886848    
  66519200   55849.759     -40.713895     -44127129       1.7229159      166311.05     -43960818       703.98097      703.98097      703.98097      2148.0095      2851.9905      2148.0095      2851.9905      2148.0095      2851.9905      3.4888538e+08  0.1            17576420       2.9532282      482.87983      4828.8035      17.844167    
  66519400   56294.363     -41.603792     -44127752       1.7229159      167635        -43960117       703.98097      703.98097      703.98097      2148.0095      2851.9905      2148.0095      2851.9905      2148.0095      2851.9905      3.4888538e+08  0.1            17576440       2.9946108      483.29568      4832.9648      17.80131     
  66519600   56507.594     -42.7589       -44128368       1.7229159      168269.97     -43960098       703.98097      703.98097      703.98097      2148.0095      2851.9905      2148.0095      2851.9905      2148.0095      2851.9905      3.4888538e+08  0.1            17576460       3.0368561      473.42343      4734.225       17.763543    
  66519800   56534.075     -44.061048     -44128978       1.7229159      168348.82     -43960629       703.98097      703.98097      703.98097      2148.0095      2851.9905      2148.0095      2851.9905      2148.0095      2851.9905      3.4888538e+08  0.1            17576480       3.0782272      483.42876      4834.2887      17.72062     
  66520000   56434.37      -44.788519     -44115196       1.7229159      168051.92     -43947144       703.98097      703.98097      703.98097      2148.0095      2851.9905      2148.0095      2851.9905      2148.0095      2851.9905      3.4888538e+08  0.1            17576500       3.1196525      482.79876      4828.0018      17.678043    
  66520200   56279.085     -46.511923     -44123174       1.7229159      167589.5      -43955584       703.98097      703.98097      703.98097      2148.0095      2851.9905      2148.0095      2851.9905      2148.0095      2851.9905      3.4888538e+08  0.1            17576520       3.1608884      485.01471      4850.1427      17.634442    
  66520400   56139.201     -47.697883     -44123767       1.7229159      167172.95     -43956594       703.98097      703.98097      703.98097      2148.0095      2851.9905      2148.0095      2851.9905      2148.0095      2851.9905      3.4888538e+08  0.1            17576540       3.2021864      484.28513      4842.8394      17.591244    
  66520600   56081.824     -49.098137     -44131729       1.7229159      167002.1      -43964727       703.98097      703.98097      703.98097      2148.0095      2851.9905      2148.0095      2851.9905      2148.0095      2851.9905      3.4888538e+08  0.1            17576560       3.2443317      474.54799      4745.4827      17.552679    
  66520800   56165.797     -49.934162     -44132302       1.7229159      167252.15     -43965050       703.98097      703.98097      703.98097      2148.0095      2851.9905      2148.0095      2851.9905      2148.0095      2851.9905      3.4888538e+08  0.1            17576580       3.2856394      484.17127      4841.7169      17.509559    
  66521000   56439.773     -50.767873     -44132864       1.7229159      168068.01     -43964796       703.98097      703.98097      703.98097      2148.0095      2851.9905      2148.0095      2851.9905      2148.0095      2851.9905      3.4888538e+08  0.1            17576600       3.3269638      483.97634      4839.761       17.466571    
  66521200   56941.844     -51.794931     -44135316       1.7229159      169563.09     -43965753       703.98097      703.98097      703.98097      2148.0095      2851.9905      2148.0095      2851.9905      2148.0095      2851.9905      3.4888538e+08  0.1            17576620       3.3682205      484.76898      4847.6849      17.423276    
  66521400   57692.709     -52.50834      -44135872       1.7229159      171799.04     -43964073       703.98097      703.98097      703.98097      2148.0095      2851.9905      2148.0095      2851.9905      2148.0095      2851.9905      3.4888538e+08  0.1            17576640       3.4095428      484.00001      4840.0209      17.380363    
  66521600   58693.935     -52.883986     -44136425       1.7229159      174780.52     -43961645       703.98097      703.98097      703.98097      2148.0095      2851.9905      2148.0095      2851.9905      2148.0095      2851.9905      3.4888538e+08  0.1            17576660       3.4509018      483.56092      4835.5937      17.337679    
  66521800   59927.231     -53.075321     -44136976       1.7229159      178453.06     -43958523       703.98097      703.98097      703.98097      2148.0095      2851.9905      2148.0095      2851.9905      2148.0095      2851.9905      3.4888538e+08  0.1            17576680       3.492268       483.49575      4834.9609      17.295053    
  66522000   61354.913     -53.328929     -44137525       1.7229159      182704.45     -43954821       703.98097      703.98097      703.98097      2148.0095      2851.9905      2148.0095      2851.9905      2148.0095      2851.9905      3.4888538e+08  0.1            17576700       3.5337377      482.28096      4822.8021      17.252966    
  66522200   62924.084     -53.871493     -44138073       1.7229159      187377.18     -43950696       703.98097      703.98097      703.98097      2148.0095      2851.9905      2148.0095      2851.9905      2148.0095      2851.9905      3.4888538e+08  0.1            17576720       3.5750922      483.55045      4835.5097      17.210368    
  66522400   64568.576     -54.931338     -44144103       1.7229159      192274.2      -43951829       703.98097      703.98097      703.98097      2148.0095      2851.9905      2148.0095      2851.9905      2148.0095      2851.9905      3.4888538e+08  0.1            17576740       3.6164385      483.79181      4837.923       17.167701    
  66522600   66216.332     -56.085476     -44146910       1.7229159      197180.93     -43949729       703.98097      703.98097      703.98097      2148.0095      2851.9905      2148.0095      2851.9905      2148.0095      2851.9905      3.4888538e+08  0.1            17576760       3.657818       483.33099      4833.3085      17.125249    
  66522800   67796.164     -56.722288     -44147451       1.7229159      201885.4      -43945566       703.98097      703.98097      703.98097      2148.0095      2851.9905      2148.0095      2851.9905      2148.0095      2851.9905      3.4888538e+08  0.1            17576780       3.6992184      483.08715      4830.865       17.082918    
  66523000   69240.948     -57.388849     -44155367       1.7229159      206187.72     -43949179       703.98097      703.98097      703.98097      2148.0095      2851.9905      2148.0095      2851.9905      2148.0095      2851.9905      3.4888538e+08  0.1            17576800       3.7406136      483.1481       4831.4831      17.040583    
  66523200   70494.897     -58.050692     -44163279       1.7229159      209921.76     -43953357       703.98097      703.98097      703.98097      2148.0095      2851.9905      2148.0095      2851.9905      2148.0095      2851.9905      3.4888538e+08  0.1            17576820       3.7820294      482.90438      4829.0449      16.998363    
  66523400   71514.866     -58.839141     -44171189       1.7229159      212959.06     -43958230       703.98097      703.98097      703.98097      2148.0095      2851.9905      2148.0095      2851.9905      2148.0095      2851.9905      3.4888538e+08  0.1            17576840       3.8233308      484.24873      4842.4832      16.955651    
  66523600   72275.502     -59.494906     -44171719       1.7229159      215224.1      -43956495       703.98097      703.98097      703.98097      2148.0095      2851.9905      2148.0095      2851.9905      2148.0095      2851.9905      3.4888538e+08  0.1            17576860       3.8646435      484.11252      4841.1337      16.91302     
  66523800   72771.322     -60.718109     -44179619       1.7229159      216700.57     -43962919       703.98097      703.98097      703.98097      2148.0095      2851.9905      2148.0095      2851.9905      2148.0095      2851.9905      3.4888538e+08  0.1            17576880       3.9060609      482.8882       4828.8762      16.870868    
  66524000   73019.201     -61.429699     -44178237       1.7229159      217438.71     -43960798       703.98097      703.98097      703.98097      2148.0095      2851.9905      2148.0095      2851.9905      2148.0095      2851.9905      3.4888538e+08  0.1            17576900       3.9474261      483.49801      4834.9849      16.82851     
  66524200   73060.105     -62.473062     -44178737       1.7229159      217560.52     -43961177       703.98097      703.98097      703.98097      2148.0095      2851.9905      2148.0095      2851.9905      2148.0095      2851.9905      3.4888538e+08  0.1            17576920       3.9887337      484.17363      4841.729       16.785932    
  66524400   72952.352     -63.230224     -44177333       1.7229159      217239.65     -43960093       703.98097      703.98097      703.98097      2148.0095      2851.9905      2148.0095      2851.9905      2148.0095      2851.9905      3.4888538e+08  0.1            17576940       4.0309334      473.93484      4739.3448      16.747084    
  66524600   72765.571     -64.22712      -44177810       1.7229159      216683.44     -43961127       703.98097      703.98097      703.98097      2148.0095      2851.9905      2148.0095      2851.9905      2148.0095      2851.9905      3.4888538e+08  0.1            17576960       4.0722295      484.30678      4843.0784      16.704461    
  66524800   72574.626     -65.717757     -44178644       1.7229159      216114.84     -43962529       703.98097      703.98097      703.98097      2148.0095      2851.9905      2148.0095      2851.9905      2148.0095      2851.9905      3.4888538e+08  0.1            17576980       4.1143002      475.39103      4753.9034      16.665003    
  66525000   72452.938     -67.264243     -44180994       1.7229159      215752.48     -43965242       703.98097      703.98097      703.98097      2148.0095      2851.9905      2148.0095      2851.9905      2148.0095      2851.9905      3.4888538e+08  0.1            17577000       4.1555463      484.8954       4848.9502      16.622194    
  66525200   72467.123     -68.215598     -44181441       1.7229159      215794.72     -43965647       703.98097      703.98097      703.98097      2148.0095      2851.9905      2148.0095      2851.9905      2148.0095      2851.9905      3.4888538e+08  0.1            17577020       4.1967838      484.99481      4849.9581      16.579383    
  66525400   72671.968     -69.21891      -44181882       1.7229159      216404.71     -43965477       703.98097      703.98097      703.98097      2148.0095      2851.9905      2148.0095      2851.9905      2148.0095      2851.9905      3.4888538e+08  0.1            17577040       4.2380287      484.90848      4849.0861      16.536631    
  66525600   73108.894     -70.357012     -44182317       1.7229159      217705.8      -43964611       703.98097      703.98097      703.98097      2148.0095      2851.9905      2148.0095      2851.9905      2148.0095      2851.9905      3.4888538e+08  0.1            17577060       4.2793055      484.5342       4845.3422      16.494031    
  66525800   73801.824     -71.08333      -44182744       1.7229159      219769.23     -43962975       703.98097      703.98097      703.98097      2148.0095      2851.9905      2148.0095      2851.9905      2148.0095      2851.9905      3.4888538e+08  0.1            17577080       4.3205711      484.66518      4846.653       16.451414    
  66526000   74756.39      -71.266098     -44183164       1.7229159      222611.76     -43960552       703.98097      703.98097      703.98097      2148.0095      2851.9905      2148.0095      2851.9905      2148.0095      2851.9905      3.4888538e+08  0.1            17577100       4.3618343      484.69317      4846.9311      16.408814    
  66526200   75959.85      -70.532037     -44174304       1.7229159      226195.46     -43948108       703.98097      703.98097      703.98097      2148.0095      2851.9905      2148.0095      2851.9905      2148.0095      2851.9905      3.4888538e+08  0.1            17577120       4.4030857      484.83272      4848.3184      16.366195    
  66526400   77377.213     -69.870556     -44167331       1.7229159      230416.13     -43936915       703.98097      703.98097      703.98097      2148.0095      2851.9905      2148.0095      2851.9905      2148.0095      2851.9905      3.4888538e+08  0.1            17577140       4.4444556      483.44241      4834.4319      16.324037    
  66526600   78955.368     -69.721134     -44167728       1.7229159      235115.6      -43932612       703.98097      703.98097      703.98097      2148.0095      2851.9905      2148.0095      2851.9905      2148.0095      2851.9905      3.4888538e+08  0.1            17577160       4.4856856      485.08356      4850.8323      16.281386    
  66526800   80628.77      -70.029685     -44175494       1.7229159      240098.71     -43935395       703.98097      703.98097      703.98097      2148.0095      2851.9905      2148.0095      2851.9905      2148.0095      2851.9905      3.4888538e+08  0.1            17577180       4.5269275      484.9433       4849.4238      16.238804    
  66527000   82324.071     -69.771554     -44173984       1.7229159      245147.03     -43928837       703.98097      703.98097      703.98097      2148.0095      2851.9905      2148.0095      2851.9905      2148.0095      2851.9905      3.4888538e+08  0.1            17577200       4.5682467      484.03683      4840.3747      16.196519    
  66527200   83965.232     -69.218798     -44166982       1.7229159      250034.12     -43916948       703.98097      703.98097      703.98097      2148.0095      2851.9905      2148.0095      2851.9905      2148.0095      2851.9905      3.4888538e+08  0.1            17577220       4.6095507      484.21535      4842.1581      16.154199    
  66527400   85479.452     -69.212404     -44167348       1.7229159      254543.21     -43912805       703.98097      703.98097      703.98097      2148.0095      2851.9905      2148.0095      2851.9905      2148.0095      2851.9905      3.4888538e+08  0.1            17577240       4.6509317      483.31377      4833.1327      16.112164    
  66527600   86805.586     -69.2048       -44167709       1.7229159      258492.21     -43909217       703.98097      703.98097      703.98097      2148.0095      2851.9905      2148.0095      2851.9905      2148.0095      2851.9905      3.4888538e+08  0.1            17577260       4.6922548      483.99113      4839.9099      16.069942    
  66527800   87894.725     -69.088927     -44168064       1.7229159      261735.48     -43906328       703.98097      703.98097      703.98097      2148.0095      2851.9905      2148.0095      2851.9905      2148.0095      2851.9905      3.4888538e+08  0.1            17577280       4.7335034      484.86379      4848.6442      16.027484    
  66528000   88714.752     -69.033883     -44166514       1.7229159      264177.38     -43902336       703.98097      703.98097      703.98097      2148.0095      2851.9905      2148.0095      2851.9905      2148.0095      2851.9905      3.4888538e+08  0.1            17577300       4.7748815      483.34786      4833.4796      15.98548     
  66528200   89256.619     -69.327819     -44166847       1.7229159      265790.97     -43901056       703.98097      703.98097      703.98097      2148.0095      2851.9905      2148.0095      2851.9905      2148.0095      2851.9905      3.4888538e+08  0.1            17577320       4.8161875      484.19089      4841.9022      15.943249    
  66528400   89534.363     -69.716763     -44169431       1.7229159      266618.04     -43902813       703.98097      703.98097      703.98097      2148.0095      2851.9905      2148.0095      2851.9905      2148.0095      2851.9905      3.4888538e+08  0.1            17577340       4.8577761      480.90046      4809.0168      15.901958    
  66528600   89584.606     -70.190927     -44177117       1.7229159      266767.66     -43910349       703.98097      703.98097      703.98097      2148.0095      2851.9905      2148.0095      2851.9905      2148.0095      2851.9905      3.4888538e+08  0.1            17577360       4.8990031      485.117        4851.1508      15.859493    
  66528800   89464.204     -70.926009     -44179304       1.7229159      266409.12     -43912895       703.98097      703.98097      703.98097      2148.0095      2851.9905      2148.0095      2851.9905      2148.0095      2851.9905      3.4888538e+08  0.1            17577380       4.941046       475.70588      4757.0641      15.819659    
  66529000   89244.645     -71.660954     -44179585       1.7229159      265755.31     -43913829       703.98097      703.98097      703.98097      2148.0095      2851.9905      2148.0095      2851.9905      2148.0095      2851.9905      3.4888538e+08  0.1            17577400       4.9823857      483.79786      4837.9749      15.777562    
  66529200   89004.947     -71.660716     -44172478       1.7229159      265041.53     -43907436       703.98097      703.98097      703.98097      2148.0095      2851.9905      2148.0095      2851.9905      2148.0095      2851.9905      3.4888538e+08  0.1            17577420       5.0245218      474.65224      4746.5293      15.737972    
  66529400   88822.459     -72.084647     -44172740       1.7229159      264498.11     -43908242       703.98097      703.98097      703.98097      2148.0095      2851.9905      2148.0095      2851.9905      2148.0095      2851.9905      3.4888538e+08  0.1            17577440       5.0657251      485.39829      4853.9792      15.69545     
  66529600   88767.866     -72.918511     -44172993       1.7229159      264335.55     -43908657       703.98097      703.98097      703.98097      2148.0095      2851.9905      2148.0095      2851.9905      2148.0095      2851.9905      3.4888538e+08  0.1            17577460       5.1069152      485.554        4855.5361      15.65291     
  66529800   88901.695     -73.370244     -44165858       1.7229159      264734.07     -43901124       703.98097      703.98097      703.98097      2148.0095      2851.9905      2148.0095      2851.9905      2148.0095      2851.9905      3.4888538e+08  0.1            17577480       5.148063       486.05156      4860.5188      15.610263    
  66530000   89269.564     -73.70974      -44166090       1.7229159      265829.52     -43900260       703.98097      703.98097      703.98097      2148.0095      2851.9905      2148.0095      2851.9905      2148.0095      2851.9905      3.4888538e+08  0.1            17577500       5.1893425      484.50244      4845.0267      15.568034    
  66530200   89901.494     -73.105112     -44158931       1.7229159      267711.3      -43891220       703.98097      703.98097      703.98097      2148.0095      2851.9905      2148.0095      2851.9905      2148.0095      2851.9905      3.4888538e+08  0.1            17577520       5.2304632      486.37376      4863.7459      15.52535     
  66530400   90807.823     -72.520715     -44159138       1.7229159      270410.19     -43888728       703.98097      703.98097      703.98097      2148.0095      2851.9905      2148.0095      2851.9905      2148.0095      2851.9905      3.4888538e+08  0.1            17577540       5.271677       485.27343      4852.7245      15.482964    
  66530600   91978.244     -71.755066     -44159334       1.7229159      273895.51     -43885439       703.98097      703.98097      703.98097      2148.0095      2851.9905      2148.0095      2851.9905      2148.0095      2851.9905      3.4888538e+08  0.1            17577560       5.3129174      484.96229      4849.631       15.440672    
  66530800   93381.344     -71.186624     -44159520       1.7229159      278073.7      -43881446       703.98097      703.98097      703.98097      2148.0095      2851.9905      2148.0095      2851.9905      2148.0095      2851.9905      3.4888538e+08  0.1            17577580       5.3540757      485.9278       4859.2728      15.398162    
  66531000   94965.969     -71.118305     -44159695       1.7229159      282792.44     -43876903       703.98097      703.98097      703.98097      2148.0095      2851.9905      2148.0095      2851.9905      2148.0095      2851.9905      3.4888538e+08  0.1            17577600       5.3953537      484.52039      4845.1992      15.356013    
  66531200   96666.278     -71.054431     -44159492       1.7229159      287855.67     -43871636       703.98097      703.98097      703.98097      2148.0095      2851.9905      2148.0095      2851.9905      2148.0095      2851.9905      3.4888538e+08  0.1            17577620       5.4366302      484.53624      4845.3587      15.313874    
  66531400   98406.01      -71.124709     -44159647       1.7229159      293036.29     -43866610       703.98097      703.98097      703.98097      2148.0095      2851.9905      2148.0095      2851.9905      2148.0095      2851.9905      3.4888538e+08  0.1            17577640       5.4780235      483.16719      4831.6855      15.272072    
  66531600   100105.63     -70.894391     -44152413       1.7229159      298097.46     -43854316       703.98097      703.98097      703.98097      2148.0095      2851.9905      2148.0095      2851.9905      2148.0095      2851.9905      3.4888538e+08  0.1            17577660       5.5192992      484.55068      4845.4991      15.229952    
  66531800   101688.52     -70.469765     -44143274       1.7229159      302811.06     -43840463       703.98097      703.98097      703.98097      2148.0095      2851.9905      2148.0095      2851.9905      2148.0095      2851.9905      3.4888538e+08  0.1            17577680       5.560632       483.87502      4838.7521      15.188001    
  66532000   103085.79     -69.783402     -44143395       1.7229159      306971.89     -43836423       703.98097      703.98097      703.98097      2148.0095      2851.9905      2148.0095      2851.9905      2148.0095      2851.9905      3.4888538e+08  0.1            17577700       5.6019609      483.9241       4839.2464      15.146048    
  66532200   104244.18     -68.558668     -44143503       1.7229159      310421.37     -43833081       703.98097      703.98097      703.98097      2148.0095      2851.9905      2148.0095      2851.9905      2148.0095      2851.9905      3.4888538e+08  0.1            17577720       5.643196       485.0236       4850.2307      15.103854    
  66532400   105128.96     -67.388496     -44143603       1.7229159      313056.08     -43830547       703.98097      703.98097      703.98097      2148.0095      2851.9905      2148.0095      2851.9905      2148.0095      2851.9905      3.4888538e+08  0.1            17577740       5.6852032      476.10911      4761.0859      15.06372     
  66532600   105724.63     -66.156516     -44136314       1.7229159      314829.89     -43821484       703.98097      703.98097      703.98097      2148.0095      2851.9905      2148.0095      2851.9905      2148.0095      2851.9905      3.4888538e+08  0.1            17577760       5.7263579      485.97182      4859.7101      15.021322    
  66532800   106040.85     -65.548083     -44129379       1.7229159      315771.55     -43813608       703.98097      703.98097      703.98097      2148.0095      2851.9905      2148.0095      2851.9905      2148.0095      2851.9905      3.4888538e+08  0.1            17577780       5.7677316      483.39786      4833.9959      14.97951     
  66533000   106111.57     -65.410572     -44129442       1.7229159      315982.15     -43813460       703.98097      703.98097      703.98097      2148.0095      2851.9905      2148.0095      2851.9905      2148.0095      2851.9905      3.4888538e+08  0.1            17577800       5.8090059      484.56289      4845.626       14.93745     
  66533200   105991.92     -65.616851     -44129493       1.7229159      315625.84     -43813867       703.98097      703.98097      703.98097      2148.0095      2851.9905      2148.0095      2851.9905      2148.0095      2851.9905      3.4888538e+08  0.1            17577820       5.8501698      485.86363      4858.6324      14.895119    
  66533400   105752.8      -65.749764     -44125742       1.7229159      314913.77     -43810828       703.98097      703.98097      703.98097      2148.0095      2851.9905      2148.0095      2851.9905      2148.0095      2851.9905      3.4888538e+08  0.1            17577840       5.8913754      485.37054      4853.7153      14.85291     
  66533600   105474.47     -65.993208     -44125774       1.7229159      314084.97     -43811689       703.98097      703.98097      703.98097      2148.0095      2851.9905      2148.0095      2851.9905      2148.0095      2851.9905      3.4888538e+08  0.1            17577860       5.9327315      483.60474      4836.0416      14.81109     
  66533800   105238.01     -65.498652     -44116527       1.7229159      313380.82     -43803146       703.98097      703.98097      703.98097      2148.0095      2851.9905      2148.0095      2851.9905      2148.0095      2851.9905      3.4888538e+08  0.1            17577880       5.9739164      485.61472      4856.1446      14.768855    
  66534000   105117.39     -65.6384       -44118804       1.7229159      313021.63     -43805782       703.98097      703.98097      703.98097      2148.0095      2851.9905      2148.0095      2851.9905      2148.0095      2851.9905      3.4888538e+08  0.1            17577900       6.0151448      485.09951      4850.9987      14.72674     
  66534200   105177.95     -65.186867     -44121065       1.7229159      313201.97     -43807863       703.98097      703.98097      703.98097      2148.0095      2851.9905      2148.0095      2851.9905      2148.0095      2851.9905      3.4888538e+08  0.1            17577920       6.0573216      474.19722      4741.9642      14.686936    
  66534400   105472.15     -64.321645     -44119154       1.7229159      314078.06     -43805076       703.98097      703.98097      703.98097      2148.0095      2851.9905      2148.0095      2851.9905      2148.0095      2851.9905      3.4888538e+08  0.1            17577940       6.0985377      485.24739      4852.4812      14.644793    
  66534600   106036.6      -63.313371     -44111748       1.7229159      315758.87     -43795989       703.98097      703.98097      703.98097      2148.0095      2851.9905      2148.0095      2851.9905      2148.0095      2851.9905      3.4888538e+08  0.1            17577960       6.1397421      485.38213      4853.8184      14.602636    
  66534800   106887.76     -62.276986     -44109818       1.7229159      318293.48     -43791524       703.98097      703.98097      703.98097      2148.0095      2851.9905      2148.0095      2851.9905      2148.0095      2851.9905      3.4888538e+08  0.1            17577980       6.1809517      485.32647      4853.2694      14.560502    
  66535000   108018.74     -61.252225     -44109774       1.7229159      321661.37     -43788113       703.98097      703.98097      703.98097      2148.0095      2851.9905      2148.0095      2851.9905      2148.0095      2851.9905      3.4888538e+08  0.1            17578000       6.2220777      486.31052      4863.1127      14.518186    
  66535200   109400.7      -60.452335     -44109352       1.7229159      325776.61     -43783575       703.98097      703.98097      703.98097      2148.0095      2851.9905      2148.0095      2851.9905      2148.0095      2851.9905      3.4888538e+08  0.1            17578020       6.2631982      486.37613      4863.7494      14.475874    
  66535400   110982.83     -60.140901     -44109284       1.7229159      330487.91     -43778796       703.98097      703.98097      703.98097      2148.0095      2851.9905      2148.0095      2851.9905      2148.0095      2851.9905      3.4888538e+08  0.1            17578040       6.3047977      480.77398      4807.7425      14.434674    
  66535600   112699.26     -59.457348     -44109204       1.7229159      335599.15     -43773605       703.98097      703.98097      703.98097      2148.0095      2851.9905      2148.0095      2851.9905      2148.0095      2851.9905      3.4888538e+08  0.1            17578060       6.3459066      486.51334      4865.11        14.392356    
  66535800   114473.29     -58.303034     -44110639       1.7229159      340881.91     -43769757       703.98097      703.98097      703.98097      2148.0095      2851.9905      2148.0095      2851.9905      2148.0095      2851.9905      3.4888538e+08  0.1            17578080       6.3879861      475.28993      4752.9205      14.352234    
  66536000   116222.06     -57.047446     -44110536       1.7229159      346089.44     -43764446       703.98097      703.98097      703.98097      2148.0095      2851.9905      2148.0095      2851.9905      2148.0095      2851.9905      3.4888538e+08  0.1            17578100       6.4293163      483.90824      4839.0876      14.310419    
  66536200   117864.32     -55.517084     -44110416       1.7229159      350979.83     -43759436       703.98097      703.98097      703.98097      2148.0095      2851.9905      2148.0095      2851.9905      2148.0095      2851.9905      3.4888538e+08  0.1            17578120       6.4706295      484.10604      4841.0567      14.268573    
  66536400   119327.92     -54.057999     -44110281       1.7229159      355338.17     -43754943       703.98097      703.98097      703.98097      2148.0095      2851.9905      2148.0095      2851.9905      2148.0095      2851.9905      3.4888538e+08  0.1            17578140       6.5118784      484.86254      4848.6248      14.226593    
  66536600   120555.67     -53.205692     -44110137       1.7229159      358994.21     -43751142       703.98097      703.98097      703.98097      2148.0095      2851.9905      2148.0095      2851.9905      2148.0095      2851.9905      3.4888538e+08  0.1            17578160       6.5531367      484.75071      4847.5119      14.184642    
  66536800   121505.94     -52.557485     -44111875       1.7229159      361823.94     -43750051       703.98097      703.98097      703.98097      2148.0095      2851.9905      2148.0095      2851.9905      2148.0095      2851.9905      3.4888538e+08  0.1            17578180       6.5943793      484.93547      4849.3499      14.142667    
  66537000   122160.28     -51.296631     -44104330       1.7229159      363772.45     -43740558       703.98097      703.98097      703.98097      2148.0095      2851.9905      2148.0095      2851.9905      2148.0095      2851.9905      3.4888538e+08  0.1            17578200       6.6357717      483.18093      4831.814       14.10102     
  66537200   122524.54     -50.460177     -44096777       1.7229159      364857.14     -43731920       703.98097      703.98097      703.98097      2148.0095      2851.9905      2148.0095      2851.9905      2148.0095      2851.9905      3.4888538e+08  0.1            17578220       6.6771171      483.7277       4837.2743      14.059276    
  66537400   122626.65     -50.458671     -44096589       1.7229159      365161.24     -43731428       703.98097      703.98097      703.98097      2148.0095      2851.9905      2148.0095      2851.9905      2148.0095      2851.9905      3.4888538e+08  0.1            17578240       6.7184021      484.43878      4844.3888      14.017412    
  66537600   122518.47     -51.015055     -44096388       1.7229159      364839.07     -43731549       703.98097      703.98097      703.98097      2148.0095      2851.9905      2148.0095      2851.9905      2148.0095      2851.9905      3.4888538e+08  0.1            17578260       6.7597043      484.23619      4842.3612      13.97559     
  66537800   122269.57     -51.873602     -44103553       1.7229159      364097.89     -43739455       703.98097      703.98097      703.98097      2148.0095      2851.9905      2148.0095      2851.9905      2148.0095      2851.9905      3.4888538e+08  0.1            17578280       6.8010661      483.53686      4835.3687      13.933896    
  66538000   121960.28     -52.479388     -44110708       1.7229159      363176.87     -43747531       703.98097      703.98097      703.98097      2148.0095      2851.9905      2148.0095      2851.9905      2148.0095      2851.9905      3.4888538e+08  0.1            17578300       6.8423267      484.72464      4847.2451      13.892001    
  66538200   121675.25     -53.062409     -44119749       1.7229159      362328.11     -43757421       703.98097      703.98097      703.98097      2148.0095      2851.9905      2148.0095      2851.9905      2148.0095      2851.9905      3.4888538e+08  0.1            17578320       6.8836209      484.32795      4843.2813      13.850182    
  66538400   121493.53     -52.101681     -44110234       1.7229159      361786.99     -43748447       703.98097      703.98097      703.98097      2148.0095      2851.9905      2148.0095      2851.9905      2148.0095      2851.9905      3.4888538e+08  0.1            17578340       6.9249358      484.08889      4840.8787      13.808409    
  66538600   121486.75     -51.104695     -44109981       1.7229159      361766.79     -43748214       703.98097      703.98097      703.98097      2148.0095      2851.9905      2148.0095      2851.9905      2148.0095      2851.9905      3.4888538e+08  0.1            17578360       6.9663314      483.14235      4831.4226      13.766802    
  66538800   121712.86     -50.087613     -44109718       1.7229159      362440.12     -43747278       703.98097      703.98097      703.98097      2148.0095      2851.9905      2148.0095      2851.9905      2148.0095      2851.9905      3.4888538e+08  0.1            17578380       7.0084917      474.37977      4743.8025      13.726695    
  66539000   122211.64     -48.905274     -44109443       1.7229159      363925.4      -43745518       703.98097      703.98097      703.98097      2148.0095      2851.9905      2148.0095      2851.9905      2148.0095      2851.9905      3.4888538e+08  0.1            17578400       7.050799       472.73146      4727.3058      13.68685     
  66539200   123003.43     -47.313125     -44109156       1.7229159      366283.2      -43742873       703.98097      703.98097      703.98097      2148.0095      2851.9905      2148.0095      2851.9905      2148.0095      2851.9905      3.4888538e+08  0.1            17578420       7.0920634      484.68053      4846.8153      13.644969    
  66539400   124086.5      -46.812903     -44123613       1.7229159      369508.42     -43754104       703.98097      703.98097      703.98097      2148.0095      2851.9905      2148.0095      2851.9905      2148.0095      2851.9905      3.4888538e+08  0.1            17578440       7.1333025      484.97601      4849.7646      13.603046    
  66539600   125437.38     -46.041858     -44123308       1.7229159      373531.11     -43749777       703.98097      703.98097      703.98097      2148.0095      2851.9905      2148.0095      2851.9905      2148.0095      2851.9905      3.4888538e+08  0.1            17578460       7.1746176      484.08442      4840.8459      13.561276    
  66539800   127009.48     -45.37771      -44123368       1.7229159      378212.54     -43745155       703.98097      703.98097      703.98097      2148.0095      2851.9905      2148.0095      2851.9905      2148.0095      2851.9905      3.4888538e+08  0.1            17578480       7.2161543      481.50227      4815.032       13.519925    
  66540000   128735.83     -44.148687     -44123051       1.7229159      383353.32     -43739697       703.98097      703.98097      703.98097      2148.0095      2851.9905      2148.0095      2851.9905      2148.0095      2851.9905      3.4888538e+08  0.1            17578500       7.2576344      482.15855      4821.5773      13.478468    
  66540200   130538.36     -42.945445     -44131997       1.7229159      388720.95     -43743276       703.98097      703.98097      703.98097      2148.0095      2851.9905      2148.0095      2851.9905      2148.0095      2851.9905      3.4888538e+08  0.1            17578520       7.2989801      483.7269       4837.2605      13.436763    
  66540400   132332.19     -40.830168     -44124650       1.7229159      394062.66     -43730588       703.98097      703.98097      703.98097      2148.0095      2851.9905      2148.0095      2851.9905      2148.0095      2851.9905      3.4888538e+08  0.1            17578540       7.3403178      483.81975      4838.1992      13.395047    
  66540600   134033.4      -38.922205     -44116926       1.7229159      399128.59     -43717797       703.98097      703.98097      703.98097      2148.0095      2851.9905      2148.0095      2851.9905      2148.0095      2851.9905      3.4888538e+08  0.1            17578560       7.3816478      483.9095       4839.0975      13.353322    
  66540800   135564.8      -37.822999     -44116567       1.7229159      403688.83     -43712878       703.98097      703.98097      703.98097      2148.0095      2851.9905      2148.0095      2851.9905      2148.0095      2851.9905      3.4888538e+08  0.1            17578580       7.422952       484.21187      4842.1184      13.311555    
  66541000   136862.48     -36.995642     -44116197       1.7229159      407553.08     -43708643       703.98097      703.98097      703.98097      2148.0095      2851.9905      2148.0095      2851.9905      2148.0095      2851.9905      3.4888538e+08  0.1            17578600       7.4643246      483.41244      4834.1301      13.269914    
  66541200   137879.93     -36.053088     -44115812       1.7229159      410582.88     -43705230       703.98097      703.98097      703.98097      2148.0095      2851.9905      2148.0095      2851.9905      2148.0095      2851.9905      3.4888538e+08  0.1            17578620       7.5055786      484.80156      4848.0138      13.228068    
  66541400   138592.4      -35.0179       -44115045       1.7229159      412704.51     -43702340       703.98097      703.98097      703.98097      2148.0095      2851.9905      2148.0095      2851.9905      2148.0095      2851.9905      3.4888538e+08  0.1            17578640       7.5468358      484.7635       4847.6287      13.186234    
  66541600   139001.39     -33.618554     -44107255       1.7229159      413922.4      -43693333       703.98097      703.98097      703.98097      2148.0095      2851.9905      2148.0095      2851.9905      2148.0095      2851.9905      3.4888538e+08  0.1            17578660       7.5881267      484.36852      4843.6857      13.144464    
  66541800   139134.44     -32.815438     -44104943       1.7229159      414318.61     -43690624       703.98097      703.98097      703.98097      2148.0095      2851.9905      2148.0095      2851.9905      2148.0095      2851.9905      3.4888538e+08  0.1            17578680       7.6302604      474.67794      4746.7828      13.104147    
  66542000   139039.4      -31.835859     -44102622       1.7229159      414035.58     -43688586       703.98097      703.98097      703.98097      2148.0095      2851.9905      2148.0095      2851.9905      2148.0095      2851.9905      3.4888538e+08  0.1            17578700       7.6715656      484.20135      4842.013       13.062399    
  66542200   138784.24     -31.034857     -44104081       1.7229159      413275.78     -43690805       703.98097      703.98097      703.98097      2148.0095      2851.9905      2148.0095      2851.9905      2148.0095      2851.9905      3.4888538e+08  0.1            17578720       7.7130039      482.64549      4826.4527      13.020881    
  66542400   138451.46     -29.748573     -44096264       1.7229159      412284.8      -43683980       703.98097      703.98097      703.98097      2148.0095      2851.9905      2148.0095      2851.9905      2148.0095      2851.9905      3.4888538e+08  0.1            17578740       7.7544         483.13654      4831.3701      12.979294    
  66542600   138125.83     -28.672505     -44095821       1.7229159      411315.13     -43684505       703.98097      703.98097      703.98097      2148.0095      2851.9905      2148.0095      2851.9905      2148.0095      2851.9905      3.4888538e+08  0.1            17578760       7.7971626      467.69814      4676.9697      12.939976    
  66542800   137890.53     -27.008026     -44080613       1.7229159      410614.44     -43669999       703.98097      703.98097      703.98097      2148.0095      2851.9905      2148.0095      2851.9905      2148.0095      2851.9905      3.4888538e+08  0.1            17578780       7.8384317      484.6257       4846.2604      12.898164    
  66543000   137821.37     -25.483203     -44072776       1.7229159      410408.5      -43662367       703.98097      703.98097      703.98097      2148.0095      2851.9905      2148.0095      2851.9905      2148.0095      2851.9905      3.4888538e+08  0.1            17578800       7.879793       483.54249      4835.4277      12.856508    
  66543200   137980.44     -24.384343     -44072306       1.7229159      410882.19     -43661424       703.98097      703.98097      703.98097      2148.0095      2851.9905      2148.0095      2851.9905      2148.0095      2851.9905      3.4888538e+08  0.1            17578820       7.9210946      484.24301      4842.426       12.814759    
  66543400   138413.75     -23.834889     -44071826       1.7229159      412172.51     -43659654       703.98097      703.98097      703.98097      2148.0095      2851.9905      2148.0095      2851.9905      2148.0095      2851.9905      3.4888538e+08  0.1            17578840       7.9623234      485.09887      4850.9973      12.772897    
  66543600   139147.27     -23.265491     -44071339       1.7229159      414356.81     -43656982       703.98097      703.98097      703.98097      2148.0095      2851.9905      2148.0095      2851.9905      2148.0095      2851.9905      3.4888538e+08  0.1            17578860       8.0036953      483.41764      4834.1767      12.73127     
  66543800   140183.63     -22.223444     -44070846       1.7229159      417442.92     -43653403       703.98097      703.98097      703.98097      2148.0095      2851.9905      2148.0095      2851.9905      2148.0095      2851.9905      3.4888538e+08  0.1            17578880       8.0459728      473.06668      4730.6613      12.691074    
  66544000   141500.71     -20.339169     -44072240       1.7229159      421364.96     -43650875       703.98097      703.98097      703.98097      2148.0095      2851.9905      2148.0095      2851.9905      2148.0095      2851.9905      3.4888538e+08  0.1            17578900       8.0874626      482.04626      4820.4688      12.649624    
  66544200   143053.08     -17.346236     -44071727       1.7229159      425987.64     -43645740       703.98097      703.98097      703.98097      2148.0095      2851.9905      2148.0095      2851.9905      2148.0095      2851.9905      3.4888538e+08  0.1            17578920       8.1288067      483.74445      4837.4392      12.607949    
  66544400   144777.25     -14.716664     -44073100       1.7229159      431121.93     -43641978       703.98097      703.98097      703.98097      2148.0095      2851.9905      2148.0095      2851.9905      2148.0095      2851.9905      3.4888538e+08  0.1            17578940       8.1700943      484.40734      4844.0814      12.566189    
  66544600   146595.13     -12.707846     -44072569       1.7229159      436535.25     -43636034       703.98097      703.98097      703.98097      2148.0095      2851.9905      2148.0095      2851.9905      2148.0095      2851.9905      3.4888538e+08  0.1            17578960       8.2123777      472.99677      4729.9626      12.525954    
  66544800   148419.96     -11.232025     -44072394       1.7229159      441969.29     -43630424       703.98097      703.98097      703.98097      2148.0095      2851.9905      2148.0095      2851.9905      2148.0095      2851.9905      3.4888538e+08  0.1            17578980       8.2547375      472.14693      4721.4712      12.485813    
  66545000   150165.31     -9.6283355     -44071837       1.7229159      447166.65     -43624670       703.98097      703.98097      703.98097      2148.0095      2851.9905      2148.0095      2851.9905      2148.0095      2851.9905      3.4888538e+08  0.1            17579000       8.2962947      481.26489      4812.6485      12.444446    
  66545200   151752.44     -8.0920575     -44073165       1.7229159      451892.85     -43621273       703.98097      703.98097      703.98097      2148.0095      2851.9905      2148.0095      2851.9905      2148.0095      2851.9905      3.4888538e+08  0.1            17579020       8.3377855      482.03442      4820.3393      12.402978    
  66545400   153114.08     -6.5483313     -44072224       1.7229159      455947.6      -43616276       703.98097      703.98097      703.98097      2148.0095      2851.9905      2148.0095      2851.9905      2148.0095      2851.9905      3.4888538e+08  0.1            17579040       8.3792404      482.45338      4824.5364      12.361457    
  66545600   154199.08     -4.8150588     -44071642       1.7229159      459178.52     -43612464       703.98097      703.98097      703.98097      2148.0095      2851.9905      2148.0095      2851.9905      2148.0095      2851.9905      3.4888538e+08  0.1            17579060       8.4208323      480.86145      4808.6162      12.320137    
  66545800   154976.38     -3.0925669     -44071047       1.7229159      461493.18     -43609554       703.98097      703.98097      703.98097      2148.0095      2851.9905      2148.0095      2851.9905      2148.0095      2851.9905      3.4888538e+08  0.1            17579080       8.4623075      482.21602      4822.1613      12.278646    
  66546000   155442.38     -1.796013      -44074231       1.7229159      462880.86     -43611350       703.98097      703.98097      703.98097      2148.0095      2851.9905      2148.0095      2851.9905      2148.0095      2851.9905      3.4888538e+08  0.1            17579100       8.5038351      481.60756      4816.0861      12.237229    
  66546200   155618.69     -0.73759487    -44073617       1.7229159      463405.9      -43610211       703.98097      703.98097      703.98097      2148.0095      2851.9905      2148.0095      2851.9905      2148.0095      2851.9905      3.4888538e+08  0.1            17579120       8.5451962      483.54686      4835.4574      12.195574    
  66546400   155549.87     -0.24096426    -44072993       1.7229159      463200.94     -43609792       703.98097      703.98097      703.98097      2148.0095      2851.9905      2148.0095      2851.9905      2148.0095      2851.9905      3.4888538e+08  0.1            17579140       8.5866314      482.68168      4826.8166      12.154027    
  66546600   155303.09      0.98922423    -44064618       1.7229159      462466.09     -43602152       703.98097      703.98097      703.98097      2148.0095      2851.9905      2148.0095      2851.9905      2148.0095      2851.9905      3.4888538e+08  0.1            17579160       8.6280746      482.58727      4825.8669      12.112493    
  66546800   154958.87      2.6951635     -44056610       1.7229159      461441.05     -43595169       703.98097      703.98097      703.98097      2148.0095      2851.9905      2148.0095      2851.9905      2148.0095      2851.9905      3.4888538e+08  0.1            17579180       8.669572       481.9567       4819.569       12.071034    
  66547000   154602.43      3.727917      -44063353       1.7229159      460379.65     -43602973       703.98097      703.98097      703.98097      2148.0095      2851.9905      2148.0095      2851.9905      2148.0095      2851.9905      3.4888538e+08  0.1            17579200       8.7110789      481.84782      4818.4842      12.029588    
  66547200   154320.84      4.948317      -44070090       1.7229159      459541.11     -43610549       703.98097      703.98097      703.98097      2148.0095      2851.9905      2148.0095      2851.9905      2148.0095      2851.9905      3.4888538e+08  0.1            17579220       8.7533037      473.65444      4736.5392      11.989126    
  66547400   154193.1       7.3630386     -44054685       1.7229159      459160.72     -43595524       703.98097      703.98097      703.98097      2148.0095      2851.9905      2148.0095      2851.9905      2148.0095      2851.9905      3.4888538e+08  0.1            17579240       8.7946828      483.33775      4833.3824      11.947497    
  66547600   154286.74      9.0638499     -44054028       1.7229159      459439.55     -43594589       703.98097      703.98097      703.98097      2148.0095      2851.9905      2148.0095      2851.9905      2148.0095      2851.9905      3.4888538e+08  0.1            17579260       8.8360003      484.05608      4840.5633      11.905788    
  66547800   154653.06      10.505542     -44055259       1.7229159      460530.4      -43594729       703.98097      703.98097      703.98097      2148.0095      2851.9905      2148.0095      2851.9905      2148.0095      2851.9905      3.4888538e+08  0.1            17579280       8.8773184      484.04961      4840.4996      11.864083    
  66548000   155323.16      11.740273     -44056854       1.7229159      462525.85     -43594328       703.98097      703.98097      703.98097      2148.0095      2851.9905      2148.0095      2851.9905      2148.0095      2851.9905      3.4888538e+08  0.1            17579300       8.9187326      482.92633      4829.2583      11.822509    
  66548200   156303.17      13.73491      -44056176       1.7229159      465444.14     -43590732       703.98097      703.98097      703.98097      2148.0095      2851.9905      2148.0095      2851.9905      2148.0095      2851.9905      3.4888538e+08  0.1            17579320       8.9602076      482.21653      4822.1638      11.781017    
  66548400   157575.5       16.287495     -44055489       1.7229159      469232.92     -43586256       703.98097      703.98097      703.98097      2148.0095      2851.9905      2148.0095      2851.9905      2148.0095      2851.9905      3.4888538e+08  0.1            17579340       9.0016418      482.6947       4826.9485      11.739471    
  66548600   159099.15      19.418949     -44054424       1.7229159      473770.09     -43580654       703.98097      703.98097      703.98097      2148.0095      2851.9905      2148.0095      2851.9905      2148.0095      2851.9905      3.4888538e+08  0.1            17579360       9.0441257      470.76677      4707.661       11.699285    
  66548800   160811.61      22.305028     -44046338       1.7229159      478869.51     -43567469       703.98097      703.98097      703.98097      2148.0095      2851.9905      2148.0095      2851.9905      2148.0095      2851.9905      3.4888538e+08  0.1            17579380       9.0855956      482.27777      4822.7746      11.657776    
  66549000   162636.34      24.017195     -44045622       1.7229159      484303.24     -43561319       703.98097      703.98097      703.98097      2148.0095      2851.9905      2148.0095      2851.9905      2148.0095      2851.9905      3.4888538e+08  0.1            17579400       9.1269543      483.5743       4835.7482      11.616126    
  66549200   164487.75      25.516878     -44044901       1.7229159      489816.42     -43555084       703.98097      703.98097      703.98097      2148.0095      2851.9905      2148.0095      2851.9905      2148.0095      2851.9905      3.4888538e+08  0.1            17579420       9.1683121      483.58412      4835.8478      11.574478    
  66549400   166275.4       27.631603     -44036789       1.7229159      495139.73     -43541649       703.98097      703.98097      703.98097      2148.0095      2851.9905      2148.0095      2851.9905      2148.0095      2851.9905      3.4888538e+08  0.1            17579440       9.2099093      480.80031      4808.0093      11.533132    
  66549600   167915.29      30.1281       -44028662       1.7229159      500023.07     -43528639       703.98097      703.98097      703.98097      2148.0095      2851.9905      2148.0095      2851.9905      2148.0095      2851.9905      3.4888538e+08  0.1            17579460       9.252095       474.09345      4740.9253      11.492516    
  66549800   169336.03      31.698067     -44035278       1.7229159      504253.79     -43531024       703.98097      703.98097      703.98097      2148.0095      2851.9905      2148.0095      2851.9905      2148.0095      2851.9905      3.4888538e+08  0.1            17579480       9.2935212      482.78866      4827.8882      11.450949    
[...]
  67194400   305.51524      6.550332      -44061879       1.7246667      909.77222     -44060969       703.74267      703.74267      703.74267      2148.1287      2851.8713      2148.1287      2851.8713      2148.1287      2851.8713      3.485312e+08   0.1            17643940       68.928957      421.28723      4212.8704      2.5246958    
  67194600   305.46789      5.0714384     -44061946       1.7246286      909.63121     -44061036       703.74785      703.74785      703.74785      2148.1261      2851.8739      2148.1261      2851.8739      2148.1261      2851.8739      3.4853889e+08  0.1            17643960       68.976451      421.10899      4211.0977      2.477055     
  67194800   305.44771      3.1857882     -44062013       1.724579       909.57111     -44061103       703.7546       703.7546       703.7546       2148.1227      2851.8773      2148.1227      2851.8773      2148.1227      2851.8773      3.4854892e+08  0.1            17643980       69.02394       421.14684      4211.4635      2.4294141    
  67195000   305.37314      1.2189084     -44062079       1.7245271      909.34908     -44061170       703.76167      703.76167      703.76167      2148.1192      2851.8808      2148.1192      2851.8808      2148.1192      2851.8808      3.4855942e+08  0.1            17644000       69.071477      420.7233       4207.2283      2.3817752    
  67195200   305.43219     -0.50411849    -44062146       1.7244819      909.5249      -44061236       703.7678       703.7678       703.7678       2148.1161      2851.8839      2148.1161      2851.8839      2148.1161      2851.8839      3.4856854e+08  0.1            17644020       69.118943      421.35686      4213.5752      2.3341339    
  67195400   305.47829     -1.7383342     -44062212       1.7244506      909.66217     -44061302       703.77207      703.77207      703.77207      2148.114       2851.886       2148.114       2851.886       2148.114       2851.886       3.4857488e+08  0.1            17644040       69.166339      421.97506      4219.7507      2.2864906    
  67195600   305.43319     -2.3714803     -44062277       1.7244361      909.52788     -44061368       703.77404      703.77404      703.77404      2148.113       2851.887       2148.113       2851.887       2148.113       2851.887       3.485778e+08   0.1            17644060       69.213747      421.86912      4218.6882      2.2388481    
  67195800   305.4186      -2.4566444     -44062344       1.724437       909.48443     -44061434       703.77391      703.77391      703.77391      2148.113       2851.887       2148.113       2851.887       2148.113       2851.887       3.4857761e+08  0.1            17644080       69.261143      421.98195      4219.8233      2.1912054    
  67196000   305.35122     -2.1938954     -44062410       1.7244478      909.28379     -44061500       703.77245      703.77245      703.77245      2148.1138      2851.8862      2148.1138      2851.8862      2148.1138      2851.8862      3.4857544e+08  0.1            17644100       69.308633      421.14134      4211.4139      2.143566     
  67196200   305.41631     -1.8153366     -44062476       1.7244617      909.4776      -44061566       703.77056      703.77056      703.77056      2148.1147      2851.8853      2148.1147      2851.8853      2148.1147      2851.8853      3.4857263e+08  0.1            17644120       69.356035      421.92195      4219.2141      2.0959242    
  67196400   305.46692     -1.4638933     -44062542       1.7244748      909.62833     -44061632       703.76877      703.76877      703.76877      2148.1156      2851.8844      2148.1156      2851.8844      2148.1156      2851.8844      3.4856998e+08  0.1            17644140       69.403494      421.41877      4214.1899      2.0482844    
  67196600   305.42423     -1.1757294     -44062608       1.7244861      909.50121     -44061698       703.76724      703.76724      703.76724      2148.1164      2851.8836      2148.1164      2851.8836      2148.1164      2851.8836      3.485677e+08   0.1            17644160       69.45095       421.44008      4214.4063      2.0006447    
  67196800   305.41035     -0.93250458    -44062674       1.7244961      909.45986     -44061764       703.76588      703.76588      703.76588      2148.1171      2851.8829      2148.1171      2851.8829      2148.1171      2851.8829      3.4856568e+08  0.1            17644180       69.498441      421.12864      4211.2764      1.9530063    
  67197000   305.34261     -0.7045616     -44062740       1.7245056      909.25816     -44061830       703.76459      703.76459      703.76459      2148.1177      2851.8823      2148.1177      2851.8823      2148.1177      2851.8823      3.4856376e+08  0.1            17644200       69.54593       421.15328      4211.5401      1.905368     
  67197200   305.40636     -0.46835272    -44062806       1.7245152      909.44798     -44061896       703.76328      703.76328      703.76328      2148.1184      2851.8816      2148.1184      2851.8816      2148.1184      2851.8816      3.4856181e+08  0.1            17644220       69.594317      413.33264      4133.3198      1.8577539    
  67197400   305.45614     -0.20682246    -44062871       1.7245256      909.59622     -44061962       703.76187      703.76187      703.76187      2148.1191      2851.8809      2148.1191      2851.8809      2148.1191      2851.8809      3.4855972e+08  0.1            17644240       69.641787      421.32061      4213.208       1.8101149    
  67197600   305.41303      0.095577767   -44062937       1.724537       909.46786     -44062028       703.76031      703.76031      703.76031      2148.1198      2851.8802      2148.1198      2851.8802      2148.1198      2851.8802      3.4855741e+08  0.1            17644260       69.689218      421.66469      4216.6531      1.7624752    
  67197800   305.39953      0.45291239    -44063003       1.72455        909.42765     -44062093       703.75855      703.75855      703.75855      2148.1207      2851.8793      2148.1207      2851.8793      2148.1207      2851.8793      3.4855478e+08  0.1            17644280       69.736683      421.36285      4213.6269      1.7148365    
  67198000   305.33257      0.87843494    -44063069       1.7245649      909.22825     -44062159       703.75652      703.75652      703.75652      2148.1217      2851.8783      2148.1217      2851.8783      2148.1217      2851.8783      3.4855178e+08  0.1            17644300       69.784199      420.90835      4209.0787      1.6671994    
  67198200   305.39678      1.3840228     -44063134       1.724582       909.41947     -44062225       703.7542       703.7542       703.7542       2148.1229      2851.8771      2148.1229      2851.8771      2148.1229      2851.8771      3.4854832e+08  0.1            17644320       69.831681      421.2195       4212.2028      1.6195615    
  67198400   305.44762      1.9754259     -44063200       1.7246015      909.57087     -44062290       703.75154      703.75154      703.75154      2148.1242      2851.8758      2148.1242      2851.8758      2148.1242      2851.8758      3.4854438e+08  0.1            17644340       69.879102      421.75066      4217.5062      1.5719226    
  67198600   305.40566      2.6465444     -44063265       1.7246233      909.44591     -44062356       703.74858      703.74858      703.74858      2148.1257      2851.8743      2148.1257      2851.8743      2148.1257      2851.8743      3.4853997e+08  0.1            17644360       69.926546      421.54793      4215.4706      1.5242844    
  67198800   305.39377      3.3702792     -44063330       1.7246465      909.41051     -44062421       703.74541      703.74541      703.74541      2148.1273      2851.8727      2148.1273      2851.8727      2148.1273      2851.8727      3.4853527e+08  0.1            17644380       69.974021      421.27951      4212.8049      1.4766472    
  67199000   305.32816      4.0817384     -44063396       1.7246695      909.21511     -44062487       703.74229      703.74229      703.74229      2148.1289      2851.8711      2148.1289      2851.8711      2148.1289      2851.8711      3.4853063e+08  0.1            17644400       70.021505      421.1929       4211.9263      1.4290104    
  67199200   305.39254      4.6602301     -44063461       1.7246887      909.40684     -44062552       703.73968      703.73968      703.73968      2148.1302      2851.8698      2148.1302      2851.8698      2148.1302      2851.8698      3.4852676e+08  0.1            17644420       70.069008      421.02606      4210.255       1.3813741    
  67199400   305.44255      4.9262111     -44063526       1.7246991      909.55575     -44062617       703.73827      703.73827      703.73827      2148.1309      2851.8691      2148.1309      2851.8691      2148.1309      2851.8691      3.4852465e+08  0.1            17644440       70.116441      421.64044      4216.4111      1.3337367    
  67199600   305.3975       4.6634865     -44063592       1.7246946      909.4216      -44062682       703.73888      703.73888      703.73888      2148.1306      2851.8694      2148.1306      2851.8694      2148.1306      2851.8694      3.4852557e+08  0.1            17644460       70.16388       421.59727      4215.9718      1.2860997    
  67199800   305.38039      3.682384      -44063657       1.7246698      909.37065     -44062748       703.74225      703.74225      703.74225      2148.1289      2851.8711      2148.1289      2851.8711      2148.1289      2851.8711      3.4853057e+08  0.1            17644480       70.2113        421.76428      4217.6381      1.2384626    
  67200000   305.30686      1.9308136     -44063723       1.7246233      909.1517      -44062814       703.74857      703.74857      703.74857      2148.1257      2851.8743      2148.1257      2851.8743      2148.1257      2851.8743      3.4853996e+08  0.1            17644500       70.259233      417.24639      4172.4653      1.1908345    
  67200200   305.36158     -0.39177617    -44063788       1.7245608      909.31463     -44062879       703.75708      703.75708      703.75708      2148.1215      2851.8785      2148.1215      2851.8785      2148.1215      2851.8785      3.485526e+08   0.1            17644520       70.306802      420.44853      4204.4849      1.1432001    
  67200400   305.40292     -2.8129485     -44063853       1.7244956      909.43776     -44062944       703.76595      703.76595      703.76595      2148.117       2851.883       2148.117       2851.883       2148.117       2851.883       3.4856578e+08  0.1            17644540       70.354231      421.68314      4216.8277      1.0955636    
  67200600   305.35245     -4.7040079     -44063918       1.7244454      909.28746     -44063009       703.77277      703.77277      703.77277      2148.1136      2851.8864      2148.1136      2851.8864      2148.1136      2851.8864      3.4857591e+08  0.1            17644560       70.401736      421.00265      4210.0341      1.0479285    
  67200800   305.33699     -5.3875365     -44063983       1.7244295      909.24142     -44063074       703.77494      703.77494      703.77494      2148.1125      2851.8875      2148.1125      2851.8875      2148.1125      2851.8875      3.4857913e+08  0.1            17644580       70.449205      421.33359      4213.3322      1.000293     
  67201000   305.29386      1.7202885     -44064049       1.7246337      909.11299     -44063140       703.74716      703.74716      703.74716      2148.1264      2851.8736      2148.1264      2851.8736      2148.1264      2851.8736      3.4853786e+08  0.1            17644600       70.497019      418.28569      4182.862       0.95266245   
  67201200   305.3694       5.4813842     -44064481       1.724747       909.33791     -44063572       703.73175      703.73175      703.73175      2148.1341      2851.8659      2148.1341      2851.8659      2148.1341      2851.8659      3.4851497e+08  0.1            17644620       70.544539      420.87059      4208.6989      0.90502789   
  67201400   305.38379     -4.9839331     -44064178       1.7244516      909.38077     -44063269       703.77193      703.77193      703.77193      2148.114       2851.886       2148.114       2851.886       2148.114       2851.886       3.4857467e+08  0.1            17644640       70.592971      412.95014      4129.5012      0.85740454   
  67201600   305.37529      5.5003558     -44064612       1.7247551      909.35545     -44063702       703.73065      703.73065      703.73065      2148.1347      2851.8653      2148.1347      2851.8653      2148.1347      2851.8653      3.4851333e+08  0.1            17644660       70.641273      414.06749      4140.1478      0.80977868   
  67201800   305.35414      2.9555019     -44064678       1.724687       909.29249     -44063768       703.73991      703.73991      703.73991      2148.13        2851.87        2148.13        2851.87        2148.13        2851.87        3.4852709e+08  0.1            17644680       70.688767      421.10112      4211.5531      0.76214307   
  67202000   305.27491     -0.76533846    -44064743       1.7245859      909.05657     -44063834       703.75367      703.75367      703.75367      2148.1232      2851.8768      2148.1232      2851.8768      2148.1232      2851.8768      3.4854753e+08  0.1            17644700       70.736249      421.20921      4212.1007      0.7145076    
  67202200   305.32851     -3.2761474     -44064807       1.7245191      909.21616     -44063898       703.76275      703.76275      703.76275      2148.1186      2851.8814      2148.1186      2851.8814      2148.1186      2851.8814      3.4856103e+08  0.1            17644720       70.783667      421.78875      4217.8862      0.66687171   
  67202400   305.3752      -4.2448534     -44064872       1.724496       909.35521     -44063963       703.76589      703.76589      703.76589      2148.1171      2851.8829      2148.1171      2851.8829      2148.1171      2851.8829      3.4856569e+08  0.1            17644740       70.831122      421.44901      4214.484       0.61923646   
  67202600   305.33423     -3.376687      -44064937       1.724525       909.23319     -44064028       703.76195      703.76195      703.76195      2148.119       2851.881       2148.119       2851.881       2148.119       2851.881       3.4855984e+08  0.1            17644760       70.878526      421.90363      4219.043       0.57160104   
  67202800   305.32921     -1.0382269     -44065002       1.7245956      909.21825     -44064093       703.75234      703.75234      703.75234      2148.1238      2851.8762      2148.1238      2851.8762      2148.1238      2851.8762      3.4854556e+08  0.1            17644780       70.925951      421.71788      4217.1842      0.52396608   
  67203000   305.2717       1.8836822     -44065067       1.7246829      909.047       -44064158       703.74047      703.74047      703.74047      2148.1298      2851.8702      2148.1298      2851.8702      2148.1298      2851.8702      3.4852792e+08  0.1            17644800       70.973475      420.84218      4208.4083      0.47633206   
  67203200   305.34259      4.3205981     -44065131       1.7247566      909.25808     -44064222       703.73044      703.73044      703.73044      2148.1348      2851.8652      2148.1348      2851.8652      2148.1348      2851.8652      3.4851302e+08  0.1            17644820       71.02098       421.00934      4210.1038      0.42869808   
  67203400   305.39653      5.416256      -44065196       1.7247925      909.41871     -44064286       703.72556      703.72556      703.72556      2148.1372      2851.8628      2148.1372      2851.8628      2148.1372      2851.8628      3.4850577e+08  0.1            17644840       71.068428      421.51323      4215.1291      0.38106397   
  67203600   305.35003      4.843392      -44065261       1.7247812      909.28024     -44064351       703.72709      703.72709      703.72709      2148.1365      2851.8635      2148.1365      2851.8635      2148.1365      2851.8635      3.4850805e+08  0.1            17644860       71.116118      419.3759       4193.7585      0.33343124   
  67203800   305.33107      2.9157327     -44065326       1.7247317      909.22378     -44064417       703.73383      703.73383      703.73383      2148.1331      2851.8669      2148.1331      2851.8669      2148.1331      2851.8669      3.4851807e+08  0.1            17644880       71.16352       421.91929      4219.1932      0.28579728   
  67204000   305.25556      0.44188804    -44065391       1.7246668      908.99893     -44064482       703.74266      703.74266      703.74266      2148.1287      2851.8713      2148.1287      2851.8713      2148.1287      2851.8713      3.4853118e+08  0.1            17644900       71.211011      421.13635      4211.3484      0.23816393   
  67204200   305.31151     -1.6158328     -44065456       1.7246137      909.16554     -44064546       703.74988      703.74988      703.74988      2148.1251      2851.8749      2148.1251      2851.8749      2148.1251      2851.8749      3.4854191e+08  0.1            17644920       71.258476      421.35946      4213.6107      0.19053069   
  67204400   305.35908     -2.5289737     -44065520       1.7245931      909.30718     -44064611       703.75269      703.75269      703.75269      2148.1237      2851.8763      2148.1237      2851.8763      2148.1237      2851.8763      3.4854607e+08  0.1            17644940       71.30601       420.75169      4207.5192      0.14289782   
  67204600   305.31572     -2.0931441     -44065585       1.7246106      909.17808     -44064676       703.7503       703.7503       703.7503       2148.1249      2851.8751      2148.1249      2851.8751      2148.1249      2851.8751      3.4854253e+08  0.1            17644960       71.353539      420.79733      4207.9714      0.095265076  
  67204800   305.30807     -0.68252655    -44065650       1.7246557      909.15529     -44064740       703.74416      703.74416      703.74416      2148.1279      2851.8721      2148.1279      2851.8721      2148.1279      2851.8721      3.4853341e+08  0.1            17644980       71.401066      420.80995      4208.1024      0.047632468  
  67205000   305.24607      0.99068541    -44065714       1.7247083      908.97068     -44064805       703.73701      703.73701      703.73701      2148.1315      2851.8685      2148.1315      2851.8685      2148.1315      2851.8685      3.4852278e+08  0.1            17645000       71.44857       421.01966      4210.1957      0            
Loop time of 71.4486 on 1 procs for 300000 steps with 1000 atoms

Performance: 36.278 ns/day, 0.662 hours/ns, 4198.824 timesteps/s
99.8% CPU use with 1 MPI tasks x 1 OpenMP threads

MPI task timing breakdown:
Section |  min time  |  avg time  |  max time  |%varavg| %total
---------------------------------------------------------------
Pair    | 56.374     | 56.374     | 56.374     |   0.0 | 78.90
Neigh   | 0.019814   | 0.019814   | 0.019814   |   0.0 |  0.03
Comm    | 1.9756     | 1.9756     | 1.9756     |   0.0 |  2.77
Output  | 0.053416   | 0.053416   | 0.053416   |   0.0 |  0.07
Modify  | 11.518     | 11.518     | 11.518     |   0.0 | 16.12
Other   |            | 1.508      |            |       |  2.11

Nlocal:           1000 ave        1000 max        1000 min
Histogram: 1 0 0 0 0 0 0 0 0 0
Nghost:           1310 ave        1310 max        1310 min
Histogram: 1 0 0 0 0 0 0 0 0 0
Neighs:           6779 ave        6779 max        6779 min
Histogram: 1 0 0 0 0 0 0 0 0 0

Total # of neighbors = 6779
Ave neighs/atom = 6.779
Neighbor list builds = 28
Dangerous builds = 13

# run_style
run_style verlet

# write restart
write_restart ${write_res}
write_restart ./pgnpmf/37/equpmf96.res
System init for write_restart ...
Generated 0 of 1 mixed pair_coeff terms from geometric mixing rule

Total wall time: 0:02:36
