LAMMPS (23 Jun 2022 - Update 1)
OMP_NUM_THREADS environment is not set. Defaulting to 1 thread. (src/comm.cpp:98)
  using 1 OpenMP thread(s) per MPI task
# Read restart
read_restart ${read_res}
read_restart ./pgnpmf/37/equpmf54.res
Reading restart file ...
  restart file = 23 Jun 2022, LAMMPS = 23 Jun 2022
  restoring atom style atomic from restart
  orthogonal box = (2114.3116 2114.3116 2114.3116) to (2885.6884 2885.6884 2885.6884)
  1 by 1 by 1 MPI processor grid
  restoring pair style table from restart
  1000 atoms
  read_restart CPU = 0.004 seconds

# Settings

pair_style table spline 9941

pair_coeff 1 1 ./pgnpmf/N20.txt DE_GNP 75.6
pair_coeff 2 2 ./pgnpmf/N100.txt DE_GNP 115.92
WARNING: 3 of 9941 force values in table DE_GNP are inconsistent with -dE/dr.
WARNING:  Should only be flagged at inflection points (src/pair_table.cpp:463)
pair_coeff 1 2 ./pgnpmf/mixed_potential.txt DE_GNP 95.66
WARNING: 1562 of 9941 force values in table DE_GNP are inconsistent with -dE/dr.
WARNING:  Should only be flagged at inflection points (src/pair_table.cpp:463)

#Neigh_list Calc Frequency

neigh_modify delay 0 every 1 check yes

# Saving Frequency (50 frames)

variable ts_save equal ${steps_equ}
variable ts_save equal 5000

# Dump
#dump 1 all custom ${ts_save} ./pgnpmf/${folder}/equilibration/trajectory/trajectory_${usic}_${trial}.equ.custom type x y z ix iy iz
#dump_modify 1 first no sort id
#dump 2 all cfg 50000 ./equilibration/trajectory/ovito/dumpgen.tens_*.cfg mass type xs ys zs fx fy fz

# thermo_style
thermo_style custom step temp press pe density ke etotal lx ly lz xlo xhi ylo yhi zlo zhi vol dt time cpu tpcpu spcpu cpuremain

# run info
timestep ${ts}
timestep 0.1
thermo 200

# fix

fix 1 all momentum 1000 linear 1 1 1 angular
variable T equal ${temp}
variable T equal 300
fix 2 all nvt temp ${T} 370000 100.0
fix 2 all nvt temp 300 370000 100.0

run 100000
Generated 0 of 1 mixed pair_coeff terms from geometric mixing rule
Unused restart file global fix info:
  fix style: npt, fix ID: 5
Neighbor list info ...
  update every 1 steps, delay 0 steps, check yes
  max neighbors/atom: 2000, page size: 100000
  master list distance cutoff = 117.92
  ghost atom cutoff = 117.92
  binsize = 58.96, bins = 14 14 14
  1 neighbor lists, perpetual/occasional/extra = 1 0 0
  (1) pair table, perpetual
      attributes: half, newton on
      pair build: half/bin/atomonly/newton
      stencil: half/bin/3d
      bin: standard
Per MPI rank memory allocation (min/avg/max) = 3.121 | 3.121 | 3.121 Mbytes
   Step          Temp          Press          PotEng        Density         KinEng         TotEng           Lx             Ly             Lz            Xlo            Xhi            Ylo            Yhi            Zlo            Zhi           Volume           Dt            Time           CPU           T/CPU          S/CPU         CPULeft    
  37805000   307.92324      5.4103477     -40364791       1.3096257      916.94284     -40363874       771.37676      771.37676      771.37676      2114.3116      2885.6884      2114.3116      2885.6884      2114.3116      2885.6884      4.5898622e+08  0.1            14705000       0              0              0              0            
  37805200   347.49007      5.2457043     -40364895       1.3096257      1034.7661     -40363860       771.37676      771.37676      771.37676      2114.3116      2885.6884      2114.3116      2885.6884      2114.3116      2885.6884      4.5898622e+08  0.1            14705020       0.037316655    535.93826      5359.25        18.622453    
  37805400   402.67714      5.0720924     -40365006       1.3096257      1199.1037     -40363806       771.37676      771.37676      771.37676      2114.3116      2885.6884      2114.3116      2885.6884      2114.3116      2885.6884      4.5898622e+08  0.1            14705040       0.074526506    537.49723      5374.9808      18.55769     
  37805600   463.32816      4.8848341     -40365125       1.3096257      1379.7122     -40363745       771.37676      771.37676      771.37676      2114.3116      2885.6884      2114.3116      2885.6884      2114.3116      2885.6884      4.5898622e+08  0.1            14705060       0.11170144     537.99634      5379.9656      18.505599    
  37805800   536.22646      4.6850196     -40365253       1.3096257      1596.7908     -40363656       771.37676      771.37676      771.37676      2114.3116      2885.6884      2114.3116      2885.6884      2114.3116      2885.6884      4.5898622e+08  0.1            14705080       0.14896401     536.73062      5367.289       18.471864    
  37806000   621.10946      4.4708417     -40365390       1.3096257      1849.5579     -40363541       771.37676      771.37676      771.37676      2114.3116      2885.6884      2114.3116      2885.6884      2114.3116      2885.6884      4.5898622e+08  0.1            14705100       0.18622916     536.69755      5366.9925      18.436907    
  37806200   719.16933      4.2427623     -40365538       1.3096257      2141.5635     -40363396       771.37676      771.37676      771.37676      2114.3116      2885.6884      2114.3116      2885.6884      2114.3116      2885.6884      4.5898622e+08  0.1            14705120       0.22345072     537.32289      5373.2305      18.39763     
  37806400   831.68458      3.9983299     -40365697       1.3096257      2476.6147     -40363220       771.37676      771.37676      771.37676      2114.3116      2885.6884      2114.3116      2885.6884      2114.3116      2885.6884      4.5898622e+08  0.1            14705140       0.26061405     538.16499      5381.6485      18.354831    
  37806600   960.30083      3.7366566     -40365867       1.3096257      2859.6119     -40363008       771.37676      771.37676      771.37676      2114.3116      2885.6884      2114.3116      2885.6884      2114.3116      2885.6884      4.5898622e+08  0.1            14705160       0.29782471     537.48065      5374.8094      18.316352    
  37806800   1106.9067      3.4568289     -40366051       1.3096257      3296.1793     -40362754       771.37676      771.37676      771.37676      2114.3116      2885.6884      2114.3116      2885.6884      2114.3116      2885.6884      4.5898622e+08  0.1            14705180       0.33503751     537.44991      5374.4967      18.278275    
  37807000   1273.1179      3.1575836     -40366247       1.3096257      3791.1278     -40362456       771.37676      771.37676      771.37676      2114.3116      2885.6884      2114.3116      2885.6884      2114.3116      2885.6884      4.5898622e+08  0.1            14705200       0.37224217     537.567        5375.6613      18.239977    
  37807200   1462.0761      2.8391265     -40366457       1.3096257      4353.8129     -40362103       771.37676      771.37676      771.37676      2114.3116      2885.6884      2114.3116      2885.6884      2114.3116      2885.6884      4.5898622e+08  0.1            14705220       0.40939222     538.35692      5383.5686      18.199446    
  37807400   1676.1067      2.498406      -40366682       1.3096257      4991.1596     -40361691       771.37676      771.37676      771.37676      2114.3116      2885.6884      2114.3116      2885.6884      2114.3116      2885.6884      4.5898622e+08  0.1            14705240       0.44657091     537.9424       5379.4362      18.160639    
  37807600   1918.0979      2.13354       -40366922       1.3096257      5711.768      -40361211       771.37676      771.37676      771.37676      2114.3116      2885.6884      2114.3116      2885.6884      2114.3116      2885.6884      4.5898622e+08  0.1            14705260       0.4847666      523.6198       5236.1884      18.160186    
  37807800   2191.22        1.7421325     -40367179       1.3096257      6525.0791     -40360654       771.37676      771.37676      771.37676      2114.3116      2885.6884      2114.3116      2885.6884      2114.3116      2885.6884      4.5898622e+08  0.1            14705280       0.52199932     537.1615       5371.6244      18.120909    
  37808000   2498.4096      1.321692      -40367453       1.3096257      7439.837      -40360013       771.37676      771.37676      771.37676      2114.3116      2885.6884      2114.3116      2885.6884      2114.3116      2885.6884      4.5898622e+08  0.1            14705300       0.55928678     536.37331      5363.7225      18.083679    
  37808200   2844.2286      0.87209434    -40367745       1.3096257      8469.6271     -40359275       771.37676      771.37676      771.37676      2114.3116      2885.6884      2114.3116      2885.6884      2114.3116      2885.6884      4.5898622e+08  0.1            14705320       0.59742367     524.42674      5244.279       18.072133    
  37808400   3232.4283      0.39038478    -40368056       1.3096257      9625.6196     -40358430       771.37676      771.37676      771.37676      2114.3116      2885.6884      2114.3116      2885.6884      2114.3116      2885.6884      4.5898622e+08  0.1            14705340       0.63455942     538.56365      5385.6347      18.029017    
  37808600   3667.3525     -0.12522394    -40368387       1.3096257      10920.749     -40357466       771.37676      771.37676      771.37676      2114.3116      2885.6884      2114.3116      2885.6884      2114.3116      2885.6884      4.5898622e+08  0.1            14705360       0.67175611     537.68266      5376.8146      17.988197    
  37808800   4153.6483     -0.96972175    -40376116       1.3096257      12368.856     -40363748       771.37676      771.37676      771.37676      2114.3116      2885.6884      2114.3116      2885.6884      2114.3116      2885.6884      4.5898622e+08  0.1            14705380       0.70911111     535.403        5354.0333      17.951768    
  37809000   4695.6317     -1.6804602     -40378385       1.3096257      13982.789     -40364402       771.37676      771.37676      771.37676      2114.3116      2885.6884      2114.3116      2885.6884      2114.3116      2885.6884      4.5898622e+08  0.1            14705400       0.7463886      536.51661      5365.1718      17.913382    
  37809200   5299.1563     -2.3023377     -40378781       1.3096257      15779.983     -40363001       771.37676      771.37676      771.37676      2114.3116      2885.6884      2114.3116      2885.6884      2114.3116      2885.6884      4.5898622e+08  0.1            14705420       0.78366551     536.52356      5365.2372      17.875092    
  37809400   5969.098      -3.0825858     -40381097       1.3096257      17774.955     -40363322       771.37676      771.37676      771.37676      2114.3116      2885.6884      2114.3116      2885.6884      2114.3116      2885.6884      4.5898622e+08  0.1            14705440       0.82093431     536.64493      5366.4391      17.836712    
  37809600   6710.6402     -3.7784938     -40381542       1.3096257      19983.141     -40361558       771.37676      771.37676      771.37676      2114.3116      2885.6884      2114.3116      2885.6884      2114.3116      2885.6884      4.5898622e+08  0.1            14705460       0.85836361     534.34151      5343.427       17.80176     
  37809800   7528.8906     -4.5180271     -40382012       1.3096257      22419.75      -40359593       771.37676      771.37676      771.37676      2114.3116      2885.6884      2114.3116      2885.6884      2114.3116      2885.6884      4.5898622e+08  0.1            14705480       0.8960378      530.86681      5308.665       17.771459    
  37810000   8428.1816     -5.3026769     -40382510       1.3096257      25097.686     -40357412       771.37676      771.37676      771.37676      2114.3116      2885.6884      2114.3116      2885.6884      2114.3116      2885.6884      4.5898622e+08  0.1            14705500       0.9333837      535.53421      5355.3431      17.734331    
  37810200   9413.7909     -6.1266765     -40383035       1.3096257      28032.662     -40355002       771.37676      771.37676      771.37676      2114.3116      2885.6884      2114.3116      2885.6884      2114.3116      2885.6884      4.5898622e+08  0.1            14705520       0.97065294     536.63462      5366.3379      17.695791    
  37810400   10489.173     -6.9842671     -40383588       1.3096257      31234.965     -40352353       771.37676      771.37676      771.37676      2114.3116      2885.6884      2114.3116      2885.6884      2114.3116      2885.6884      4.5898622e+08  0.1            14705540       1.0079646      536.02591      5360.2683      17.658086    
  37810600   11657.12      -7.8529515     -40384171       1.3096257      34712.913     -40349458       771.37676      771.37676      771.37676      2114.3116      2885.6884      2114.3116      2885.6884      2114.3116      2885.6884      4.5898622e+08  0.1            14705560       1.0453275      535.29124      5352.9043      17.621271    
  37810800   12919.094     -8.7031944     -40384783       1.3096257      38470.857     -40346312       771.37676      771.37676      771.37676      2114.3116      2885.6884      2114.3116      2885.6884      2114.3116      2885.6884      4.5898622e+08  0.1            14705580       1.0826185      536.32209      5363.2297      17.583253    
  37811000   14274.324     -9.5191755     -40385425       1.3096257      42506.5       -40342918       771.37676      771.37676      771.37676      2114.3116      2885.6884      2114.3116      2885.6884      2114.3116      2885.6884      4.5898622e+08  0.1            14705600       1.1199885      535.1897       5351.8835      17.546521    
  37811200   15721.265     -10.296777     -40386096       1.3096257      46815.244     -40339281       771.37676      771.37676      771.37676      2114.3116      2885.6884      2114.3116      2885.6884      2114.3116      2885.6884      4.5898622e+08  0.1            14705620       1.1571951      537.53826      5375.3946      17.507274    
  37811400   17254.721     -11.049951     -40386797       1.3096257      51381.612     -40335416       771.37676      771.37676      771.37676      2114.3116      2885.6884      2114.3116      2885.6884      2114.3116      2885.6884      4.5898622e+08  0.1            14705640       1.1944784      536.43418      5364.344       17.469277    
  37811600   18866.836     -11.817101     -40387528       1.3096257      56182.216     -40331346       771.37676      771.37676      771.37676      2114.3116      2885.6884      2114.3116      2885.6884      2114.3116      2885.6884      4.5898622e+08  0.1            14705660       1.2318942      534.53337      5345.3295      17.433199    
  37811800   20546.397     -12.641608     -40388287       1.3096257      61183.663     -40327104       771.37676      771.37676      771.37676      2114.3116      2885.6884      2114.3116      2885.6884      2114.3116      2885.6884      4.5898622e+08  0.1            14705680       1.2691435      536.9217       5369.2107      17.394762    
  37812000   22277.938     -13.577571     -40389076       1.3096257      66339.894     -40322736       771.37676      771.37676      771.37676      2114.3116      2885.6884      2114.3116      2885.6884      2114.3116      2885.6884      4.5898622e+08  0.1            14705700       1.3064908      535.51396      5355.1478      17.357692    
  37812200   24043.15      -14.363559     -40382515       1.3096257      71596.394     -40310918       771.37676      771.37676      771.37676      2114.3116      2885.6884      2114.3116      2885.6884      2114.3116      2885.6884      4.5898622e+08  0.1            14705720       1.3436675      537.97219      5379.7212      17.318408    
  37812400   25818.147     -15.577512     -40383360       1.3096257      76882.032     -40306478       771.37676      771.37676      771.37676      2114.3116      2885.6884      2114.3116      2885.6884      2114.3116      2885.6884      4.5898622e+08  0.1            14705740       1.3809345      536.66697      5366.6699      17.28037     
  37812600   27574.695     -16.897214     -40384232       1.3096257      82112.732     -40302119       771.37676      771.37676      771.37676      2114.3116      2885.6884      2114.3116      2885.6884      2114.3116      2885.6884      4.5898622e+08  0.1            14705760       1.4182622      535.79651      5357.9585      17.243108    
  37812800   29280.184     -18.279379     -40385128       1.3096257      87191.387     -40297937       771.37676      771.37676      771.37676      2114.3116      2885.6884      2114.3116      2885.6884      2114.3116      2885.6884      4.5898622e+08  0.1            14705780       1.4564398      523.86754      5238.67        17.215891    
  37813000   30897.99      -19.944203     -40393426       1.3096257      92008.938     -40301417       771.37676      771.37676      771.37676      2114.3116      2885.6884      2114.3116      2885.6884      2114.3116      2885.6884      4.5898622e+08  0.1            14705800       1.4938706      534.31866      5343.2066      17.179536    
  37813200   32390.019     -21.266831     -40394364       1.3096257      96451.947     -40297912       771.37676      771.37676      771.37676      2114.3116      2885.6884      2114.3116      2885.6884      2114.3116      2885.6884      4.5898622e+08  0.1            14705820       1.5312238      535.42763      5354.2695      17.142262    
  37813400   33717.162     -22.580036     -40395318       1.3096257      100403.95     -40294914       771.37676      771.37676      771.37676      2114.3116      2885.6884      2114.3116      2885.6884      2114.3116      2885.6884      4.5898622e+08  0.1            14705840       1.5776299      430.97859      4309.7834      17.203703    
  37813600   34843.948     -23.91321      -40396284       1.3096257      103759.33     -40292525       771.37676      771.37676      771.37676      2114.3116      2885.6884      2114.3116      2885.6884      2114.3116      2885.6884      4.5898622e+08  0.1            14705860       1.614881       536.89396      5368.9322      17.162831    
  37813800   35742.652     -25.395983     -40402743       1.3096257      106435.51     -40296308       771.37676      771.37676      771.37676      2114.3116      2885.6884      2114.3116      2885.6884      2114.3116      2885.6884      4.5898622e+08  0.1            14705880       1.6521343      536.86689      5368.6767      17.122142    
  37814000   36397.863     -26.628515     -40403724       1.3096257      108386.62     -40295337       771.37676      771.37676      771.37676      2114.3116      2885.6884      2114.3116      2885.6884      2114.3116      2885.6884      4.5898622e+08  0.1            14705900       1.6894102      536.53936      5365.3939      17.081837    
  37814200   36813.706     -27.757954     -40404704       1.3096257      109624.93     -40295079       771.37676      771.37676      771.37676      2114.3116      2885.6884      2114.3116      2885.6884      2114.3116      2885.6884      4.5898622e+08  0.1            14705920       1.7267283      535.93288      5359.3215      17.04208     
  37814400   37015.445     -28.937012     -40406050       1.3096257      110225.67     -40295824       771.37676      771.37676      771.37676      2114.3116      2885.6884      2114.3116      2885.6884      2114.3116      2885.6884      4.5898622e+08  0.1            14705940       1.763964       537.11996      5371.2062      17.001632    
  37814600   37049.768     -30.111154     -40407020       1.3096257      110327.88     -40296692       771.37676      771.37676      771.37676      2114.3116      2885.6884      2114.3116      2885.6884      2114.3116      2885.6884      4.5898622e+08  0.1            14705960       1.8011553      537.76012      5377.6051      16.9609      
  37814800   36979.397     -31.436562     -40407984       1.3096257      110118.33     -40297866       771.37676      771.37676      771.37676      2114.3116      2885.6884      2114.3116      2885.6884      2114.3116      2885.6884      4.5898622e+08  0.1            14705980       1.8382965      538.48136      5384.8136      16.919854    
  37815000   36873.116     -32.903148     -40408942       1.3096257      109801.84     -40299140       771.37676      771.37676      771.37676      2114.3116      2885.6884      2114.3116      2885.6884      2114.3116      2885.6884      4.5898622e+08  0.1            14706000       1.8755558      536.78211      5367.8106      16.880023    
  37815200   36799.008     -34.460063     -40409894       1.3096257      109581.16     -40300313       771.37676      771.37676      771.37676      2114.3116      2885.6884      2114.3116      2885.6884      2114.3116      2885.6884      4.5898622e+08  0.1            14706020       1.9127484      537.73771      5377.3875      16.839709    
  37815400   36817.459     -36.07225      -40410840       1.3096257      109636.11     -40301204       771.37676      771.37676      771.37676      2114.3116      2885.6884      2114.3116      2885.6884      2114.3116      2885.6884      4.5898622e+08  0.1            14706040       1.9500037      536.84045      5368.4056      16.800051    
  37815600   36979.993     -37.686999     -40411783       1.3096257      110120.1      -40301663       771.37676      771.37676      771.37676      2114.3116      2885.6884      2114.3116      2885.6884      2114.3116      2885.6884      4.5898622e+08  0.1            14706060       1.9871578      538.29834      5382.9899      16.759632    
  37815800   37328.185     -39.209018     -40412723       1.3096257      111156.96     -40301566       771.37676      771.37676      771.37676      2114.3116      2885.6884      2114.3116      2885.6884      2114.3116      2885.6884      4.5898622e+08  0.1            14706080       2.0244104      536.87639      5368.7496      16.720149    
  37816000   37891.971     -40.603307     -40413663       1.3096257      112835.82     -40300827       771.37676      771.37676      771.37676      2114.3116      2885.6884      2114.3116      2885.6884      2114.3116      2885.6884      4.5898622e+08  0.1            14706100       2.0617013      536.32411      5363.2511      16.681055    
  37816200   38688.61      -41.881526     -40414604       1.3096257      115208.07     -40299396       771.37676      771.37676      771.37676      2114.3116      2885.6884      2114.3116      2885.6884      2114.3116      2885.6884      4.5898622e+08  0.1            14706120       2.0988732      538.0418       5380.415       16.641083    
  37816400   39717.252     -43.398212     -40422927       1.3096257      118271.19     -40304656       771.37676      771.37676      771.37676      2114.3116      2885.6884      2114.3116      2885.6884      2114.3116      2885.6884      4.5898622e+08  0.1            14706140       2.1360553      537.89179      5378.9163      16.601289    
  37816600   40957.179     -44.619815     -40423878       1.3096257      121963.48     -40301914       771.37676      771.37676      771.37676      2114.3116      2885.6884      2114.3116      2885.6884      2114.3116      2885.6884      4.5898622e+08  0.1            14706160       2.1737158      531.05979      5310.5873      16.565231    
  37816800   42368.784     -45.848902     -40424836       1.3096257      126167        -40298669       771.37676      771.37676      771.37676      2114.3116      2885.6884      2114.3116      2885.6884      2114.3116      2885.6884      4.5898622e+08  0.1            14706180       2.2121907      519.81875      5198.1821      16.535207    
  37817000   43897.182     -47.113274     -40427700       1.3096257      130718.31     -40296982       771.37676      771.37676      771.37676      2114.3116      2885.6884      2114.3116      2885.6884      2114.3116      2885.6884      4.5898622e+08  0.1            14706200       2.2494427      536.88478      5368.8656      16.495929    
  37817200   45479.941     -48.126926     -40428678       1.3096257      135431.5      -40293246       771.37676      771.37676      771.37676      2114.3116      2885.6884      2114.3116      2885.6884      2114.3116      2885.6884      4.5898622e+08  0.1            14706220       2.2865961      538.3095       5383.0747      16.456011    
  37817400   47051.121     -48.846563     -40422287       1.3096257      140110.2      -40282177       771.37676      771.37676      771.37676      2114.3116      2885.6884      2114.3116      2885.6884      2114.3116      2885.6884      4.5898622e+08  0.1            14706240       2.3238028      537.537        5375.3923      16.416558    
  37817600   48547.346     -50.016145     -40423282       1.3096257      144565.71     -40278716       771.37676      771.37676      771.37676      2114.3116      2885.6884      2114.3116      2885.6884      2114.3116      2885.6884      4.5898622e+08  0.1            14706260       2.3608817      539.39105      5393.9011      16.37629     
  37817800   49910.785     -51.479974     -40426179       1.3096257      148625.8      -40277553       771.37676      771.37676      771.37676      2114.3116      2885.6884      2114.3116      2885.6884      2114.3116      2885.6884      4.5898622e+08  0.1            14706280       2.3980407      538.22765      5382.2705      16.336668    
  37818000   51091.64      -52.928985     -40427188       1.3096257      152142.18     -40275046       771.37676      771.37676      771.37676      2114.3116      2885.6884      2114.3116      2885.6884      2114.3116      2885.6884      4.5898622e+08  0.1            14706300       2.4353236      536.43825      5364.3832      16.297951    
  37818200   52053.412     -54.1539       -40420823       1.3096257      155006.17     -40265817       771.37676      771.37676      771.37676      2114.3116      2885.6884      2114.3116      2885.6884      2114.3116      2885.6884      4.5898622e+08  0.1            14706320       2.4734465      524.61895      5246.1968      16.264799    
  37818400   52773.874     -55.787582     -40423733       1.3096257      157151.58     -40266582       771.37676      771.37676      771.37676      2114.3116      2885.6884      2114.3116      2885.6884      2114.3116      2885.6884      4.5898622e+08  0.1            14706340       2.5107179      536.60429      5366.0505      16.225997    
  37818600   53250.439     -57.398091     -40426641       1.3096257      158570.72     -40268071       771.37676      771.37676      771.37676      2114.3116      2885.6884      2114.3116      2885.6884      2114.3116      2885.6884      4.5898622e+08  0.1            14706360       2.5478479      538.64837      5386.4834      16.186342    
  37818800   53502.16      -58.849694     -40427648       1.3096257      159320.3      -40268328       771.37676      771.37676      771.37676      2114.3116      2885.6884      2114.3116      2885.6884      2114.3116      2885.6884      4.5898622e+08  0.1            14706380       2.5850607      537.44835      5374.4681      16.147278    
  37819000   53568.884     -60.542254     -40436024       1.3096257      159518.99     -40276505       771.37676      771.37676      771.37676      2114.3116      2885.6884      2114.3116      2885.6884      2114.3116      2885.6884      4.5898622e+08  0.1            14706400       2.6221936      538.60768      5386.0845      16.107774    
  37819200   53508.602     -61.855775     -40437010       1.3096257      159339.48     -40277671       771.37676      771.37676      771.37676      2114.3116      2885.6884      2114.3116      2885.6884      2114.3116      2885.6884      4.5898622e+08  0.1            14706420       2.6594289      537.12397      5371.2105      16.068958    
  37819400   53387.947     -63.130789     -40437984       1.3096257      158980.19     -40279004       771.37676      771.37676      771.37676      2114.3116      2885.6884      2114.3116      2885.6884      2114.3116      2885.6884      4.5898622e+08  0.1            14706440       2.6966595      537.19182      5371.9592      16.030156    
  37819600   53276.634     -64.648674     -40440842       1.3096257      158648.72     -40282193       771.37676      771.37676      771.37676      2114.3116      2885.6884      2114.3116      2885.6884      2114.3116      2885.6884      4.5898622e+08  0.1            14706460       2.7339039      536.99342      5369.9158      15.991479    
  37819800   53240.798     -66.234957     -40441795       1.3096257      158542        -40283253       771.37676      771.37676      771.37676      2114.3116      2885.6884      2114.3116      2885.6884      2114.3116      2885.6884      4.5898622e+08  0.1            14706480       2.7710694      538.13354      5381.3526      15.952385    
  37820000   53338.112     -67.928436     -40442741       1.3096257      158831.79     -40283909       771.37676      771.37676      771.37676      2114.3116      2885.6884      2114.3116      2885.6884      2114.3116      2885.6884      4.5898622e+08  0.1            14706500       2.8083469      536.51821      5365.1678      15.913978    
  37820200   53616.996     -69.601863     -40443679       1.3096257      159662.26     -40284017       771.37676      771.37676      771.37676      2114.3116      2885.6884      2114.3116      2885.6884      2114.3116      2885.6884      4.5898622e+08  0.1            14706520       2.8454361      539.24061      5392.4164      15.87455     
  37820400   54112.541     -71.074205     -40444614       1.3096257      161137.91     -40283476       771.37676      771.37676      771.37676      2114.3116      2885.6884      2114.3116      2885.6884      2114.3116      2885.6884      4.5898622e+08  0.1            14706540       2.8830217      532.11816      5321.1689      15.837911    
  37820600   54845.554     -72.298595     -40447439       1.3096257      163320.69     -40284119       771.37676      771.37676      771.37676      2114.3116      2885.6884      2114.3116      2885.6884      2114.3116      2885.6884      4.5898622e+08  0.1            14706560       2.9203157      536.27819      5362.7698      15.79967     
  37820800   55819.862     -73.053861     -40448367       1.3096257      166222.02     -40282145       771.37676      771.37676      771.37676      2114.3116      2885.6884      2114.3116      2885.6884      2114.3116      2885.6884      4.5898622e+08  0.1            14706580       2.9573612      539.8791       5398.8143      15.760126    
  37821000   57020.027     -73.710525     -40449291       1.3096257      169795.9      -40279496       771.37676      771.37676      771.37676      2114.3116      2885.6884      2114.3116      2885.6884      2114.3116      2885.6884      4.5898622e+08  0.1            14706600       2.9944599      539.10229      5391.0267      15.720925    
  37821200   58413.194     -74.4512       -40450214       1.3096257      173944.52     -40276270       771.37676      771.37676      771.37676      2114.3116      2885.6884      2114.3116      2885.6884      2114.3116      2885.6884      4.5898622e+08  0.1            14706620       3.0315424      539.3382       5393.3763      15.681693    
  37821400   59948.855     -75.454275     -40451138       1.3096257      178517.45     -40272621       771.37676      771.37676      771.37676      2114.3116      2885.6884      2114.3116      2885.6884      2114.3116      2885.6884      4.5898622e+08  0.1            14706640       3.0687111      538.08443      5380.8342      15.642954    
  37821600   61564.551     -76.704692     -40452065       1.3096257      183328.72     -40268737       771.37676      771.37676      771.37676      2114.3116      2885.6884      2114.3116      2885.6884      2114.3116      2885.6884      4.5898622e+08  0.1            14706660       3.105861       538.35967      5383.6108      15.604156    
  37821800   63191.071     -78.388041     -40462268       1.3096257      188172.22     -40274096       771.37676      771.37676      771.37676      2114.3116      2885.6884      2114.3116      2885.6884      2114.3116      2885.6884      4.5898622e+08  0.1            14706680       3.1429904      538.65369      5386.5369      15.565298    
  37822000   64757.391     -79.68207      -40465094       1.3096257      192836.45     -40272257       771.37676      771.37676      771.37676      2114.3116      2885.6884      2114.3116      2885.6884      2114.3116      2885.6884      4.5898622e+08  0.1            14706700       3.1802504      536.77272      5367.7253      15.527116    
  37822200   66198.084     -80.777689     -40466024       1.3096257      197126.59     -40268897       771.37676      771.37676      771.37676      2114.3116      2885.6884      2114.3116      2885.6884      2114.3116      2885.6884      4.5898622e+08  0.1            14706720       3.2174421      537.75529      5377.5532      15.488627    
  37822400   67455.654     -81.953672     -40466951       1.3096257      200871.42     -40266079       771.37676      771.37676      771.37676      2114.3116      2885.6884      2114.3116      2885.6884      2114.3116      2885.6884      4.5898622e+08  0.1            14706740       3.2546629      537.33313      5373.2848      15.450308    
  37822600   68486.29      -83.273431     -40467875       1.3096257      203940.48     -40263935       771.37676      771.37676      771.37676      2114.3116      2885.6884      2114.3116      2885.6884      2114.3116      2885.6884      4.5898622e+08  0.1            14706760       3.2927132      525.61932      5256.2255      15.415896    
  37822800   69262.828     -84.533839     -40468796       1.3096257      206252.87     -40262543       771.37676      771.37676      771.37676      2114.3116      2885.6884      2114.3116      2885.6884      2114.3116      2885.6884      4.5898622e+08  0.1            14706780       3.3300185      536.11638      5361.1736      15.377961    
  37823000   69777.493     -85.648926     -40469709       1.3096257      207785.46     -40261924       771.37676      771.37676      771.37676      2114.3116      2885.6884      2114.3116      2885.6884      2114.3116      2885.6884      4.5898622e+08  0.1            14706800       3.3671807      538.18152      5381.8163      15.339389    
  37823200   70046.712     -86.792964     -40470611       1.3096257      208587.15     -40262024       771.37676      771.37676      771.37676      2114.3116      2885.6884      2114.3116      2885.6884      2114.3116      2885.6884      4.5898622e+08  0.1            14706820       3.4045073      535.80857      5358.0774      15.301588    
  37823400   70108.566     -88.132835     -40471500       1.3096257      208771.34     -40262729       771.37676      771.37676      771.37676      2114.3116      2885.6884      2114.3116      2885.6884      2114.3116      2885.6884      4.5898622e+08  0.1            14706840       3.4417129      537.55756      5375.5885      15.263258    
  37823600   70020.176     -89.548913     -40470481       1.3096257      208508.13     -40261973       771.37676      771.37676      771.37676      2114.3116      2885.6884      2114.3116      2885.6884      2114.3116      2885.6884      4.5898622e+08  0.1            14706860       3.4798615      524.26594      5242.646       15.229081    
  37823800   69850.513     -91.178055     -40471344       1.3096257      208002.9      -40263341       771.37676      771.37676      771.37676      2114.3116      2885.6884      2114.3116      2885.6884      2114.3116      2885.6884      4.5898622e+08  0.1            14706880       3.5170897      537.22652      5372.2684      15.190844    
  37824000   69672.63      -92.792163     -40472191       1.3096257      207473.2      -40264718       771.37676      771.37676      771.37676      2114.3116      2885.6884      2114.3116      2885.6884      2114.3116      2885.6884      4.5898622e+08  0.1            14706900       3.5543337      536.99869      5369.9933      15.152695    
  37824200   69559.161     -94.318483     -40473023       1.3096257      207135.3      -40265888       771.37676      771.37676      771.37676      2114.3116      2885.6884      2114.3116      2885.6884      2114.3116      2885.6884      4.5898622e+08  0.1            14706920       3.5915742      537.05031      5370.5001      15.114551    
  37824400   69574.973     -95.768524     -40475738       1.3096257      207182.39     -40268555       771.37676      771.37676      771.37676      2114.3116      2885.6884      2114.3116      2885.6884      2114.3116      2885.6884      4.5898622e+08  0.1            14706940       3.6287798      537.55395      5375.5412      15.07628     
  37824600   69774.359     -96.743266     -40476546       1.3096257      207776.13     -40268770       771.37676      771.37676      771.37676      2114.3116      2885.6884      2114.3116      2885.6884      2114.3116      2885.6884      4.5898622e+08  0.1            14706960       3.6659992      537.35436      5373.5363      15.038087    
  37824800   70198.512     -97.425851     -40478871       1.3096257      209039.18     -40269832       771.37676      771.37676      771.37676      2114.3116      2885.6884      2114.3116      2885.6884      2114.3116      2885.6884      4.5898622e+08  0.1            14706980       3.703224       537.27568      5372.7563      14.999937    
  37825000   70872.652     -97.901534     -40479659       1.3096257      211046.66     -40268612       771.37676      771.37676      771.37676      2114.3116      2885.6884      2114.3116      2885.6884      2114.3116      2885.6884      4.5898622e+08  0.1            14707000       3.7405727      535.49373      5354.9503      14.962299    
  37825200   71805.817     -98.286199     -40478542       1.3096257      213825.46     -40264717       771.37676      771.37676      771.37676      2114.3116      2885.6884      2114.3116      2885.6884      2114.3116      2885.6884      4.5898622e+08  0.1            14707020       3.7777647      537.74972      5377.4985      14.924049    
  37825400   72986.607     -98.307309     -40464558       1.3096257      217341.65     -40247216       771.37676      771.37676      771.37676      2114.3116      2885.6884      2114.3116      2885.6884      2114.3116      2885.6884      4.5898622e+08  0.1            14707040       3.815134       535.19716      5351.9527      14.886513    
  37825600   74383.387     -98.719125     -40457946       1.3096257      221501.02     -40236445       771.37676      771.37676      771.37676      2114.3116      2885.6884      2114.3116      2885.6884      2114.3116      2885.6884      4.5898622e+08  0.1            14707060       3.8523431      537.5057       5375.0669      14.84836     
  37825800   75946.499     -99.087155     -40451331       1.3096257      226155.71     -40225176       771.37676      771.37676      771.37676      2114.3116      2885.6884      2114.3116      2885.6884      2114.3116      2885.6884      4.5898622e+08  0.1            14707080       3.8896045      536.74751      5367.4804      14.810425    
  37826000   77609.869     -99.614184     -40452090       1.3096257      231108.94     -40220981       771.37676      771.37676      771.37676      2114.3116      2885.6884      2114.3116      2885.6884      2114.3116      2885.6884      4.5898622e+08  0.1            14707100       3.9267891      537.85714      5378.5787      14.772215    
  37826200   79300.309     -100.1234      -40452840       1.3096257      236142.78     -40216698       771.37676      771.37676      771.37676      2114.3116      2885.6884      2114.3116      2885.6884      2114.3116      2885.6884      4.5898622e+08  0.1            14707120       3.964002       537.44698      5374.464       14.734129    
  37826400   80942.098     -100.59623     -40453583       1.3096257      241031.75     -40212552       771.37676      771.37676      771.37676      2114.3116      2885.6884      2114.3116      2885.6884      2114.3116      2885.6884      4.5898622e+08  0.1            14707140       4.0011937      537.7507       5377.5066      14.695982    
  37826600   82463.729     -100.70121     -40446942       1.3096257      245562.9      -40201379       771.37676      771.37676      771.37676      2114.3116      2885.6884      2114.3116      2885.6884      2114.3116      2885.6884      4.5898622e+08  0.1            14707160       4.0383787      537.85541      5378.5523      14.657827    
  37826800   83802.474     -101.67675     -40462429       1.3096257      249549.46     -40212880       771.37676      771.37676      771.37676      2114.3116      2885.6884      2114.3116      2885.6884      2114.3116      2885.6884      4.5898622e+08  0.1            14707180       4.0755885      537.48956      5374.8975      14.61978     
  37827000   84907.299     -102.30503     -40468637       1.3096257      252839.44     -40215797       771.37676      771.37676      771.37676      2114.3116      2885.6884      2114.3116      2885.6884      2114.3116      2885.6884      4.5898622e+08  0.1            14707200       4.1127313      538.46422      5384.6235      14.581511    
  37827200   85746.944     -103.0696      -40476732       1.3096257      255339.76     -40221392       771.37676      771.37676      771.37676      2114.3116      2885.6884      2114.3116      2885.6884      2114.3116      2885.6884      4.5898622e+08  0.1            14707220       4.1498647      538.60021      5386.0278      14.543227    
  37827400   86308.89      -103.97826     -40492195       1.3096257      257013.14     -40235182       771.37676      771.37676      771.37676      2114.3116      2885.6884      2114.3116      2885.6884      2114.3116      2885.6884      4.5898622e+08  0.1            14707240       4.1871526      536.36789      5363.6684      14.5055      
  37827600   86604.219     -104.12746     -40490994       1.3096257      257892.58     -40233101       771.37676      771.37676      771.37676      2114.3116      2885.6884      2114.3116      2885.6884      2114.3116      2885.6884      4.5898622e+08  0.1            14707260       4.2251174      526.80367      5268.0448      14.4701      
  37827800   86667.861     -104.66936     -40491670       1.3096257      258082.09     -40233588       771.37676      771.37676      771.37676      2114.3116      2885.6884      2114.3116      2885.6884      2114.3116      2885.6884      4.5898622e+08  0.1            14707280       4.2623624      536.98381      5369.8196      14.432217    
  37828000   86555.717     -105.18314     -40490434       1.3096257      257748.14     -40232686       771.37676      771.37676      771.37676      2114.3116      2885.6884      2114.3116      2885.6884      2114.3116      2885.6884      4.5898622e+08  0.1            14707300       4.2996141      536.88483      5368.8566      14.394368    
  37828200   86339.142     -105.95293     -40491075       1.3096257      257103.22     -40233972       771.37676      771.37676      771.37676      2114.3116      2885.6884      2114.3116      2885.6884      2114.3116      2885.6884      4.5898622e+08  0.1            14707320       4.3368318      537.38317      5373.8346      14.356416    
  37828400   86096.213     -106.76308     -40484322       1.3096257      256379.82     -40227942       771.37676      771.37676      771.37676      2114.3116      2885.6884      2114.3116      2885.6884      2114.3116      2885.6884      4.5898622e+08  0.1            14707340       4.3740286      537.67974      5376.7981      14.318409    
  37828600   85904.8       -107.99179     -40484931       1.3096257      255809.83     -40229121       771.37676      771.37676      771.37676      2114.3116      2885.6884      2114.3116      2885.6884      2114.3116      2885.6884      4.5898622e+08  0.1            14707360       4.4111975      538.0851       5380.8401      14.280325    
  37828800   85836.395     -109.13213     -40485526       1.3096257      255606.13     -40229920       771.37676      771.37676      771.37676      2114.3116      2885.6884      2114.3116      2885.6884      2114.3116      2885.6884      4.5898622e+08  0.1            14707380       4.4483708      538.02173      5380.2301      14.242269    
  37829000   85951.792     -110.12912     -40486106       1.3096257      255949.76     -40230157       771.37676      771.37676      771.37676      2114.3116      2885.6884      2114.3116      2885.6884      2114.3116      2885.6884      4.5898622e+08  0.1            14707400       4.486592       523.2683       5232.6819      14.207548    
  37829200   86299.732     -110.95371     -40487042       1.3096257      256985.87     -40230056       771.37676      771.37676      771.37676      2114.3116      2885.6884      2114.3116      2885.6884      2114.3116      2885.6884      4.5898622e+08  0.1            14707420       4.5238709      536.49669      5364.9552      14.169817    
  37829400   86911.605     -111.4192      -40486072       1.3096257      258807.92     -40227264       771.37676      771.37676      771.37676      2114.3116      2885.6884      2114.3116      2885.6884      2114.3116      2885.6884      4.5898622e+08  0.1            14707440       4.5611228      536.88457      5368.8459      14.13201     
  37829600   87800.043     -111.29243     -40479240       1.3096257      261453.54     -40217786       771.37676      771.37676      771.37676      2114.3116      2885.6884      2114.3116      2885.6884      2114.3116      2885.6884      4.5898622e+08  0.1            14707460       4.5982806      538.24653      5382.4765      14.093923    
  37829800   88955.586     -110.92458     -40472395       1.3096257      264894.55     -40207500       771.37676      771.37676      771.37676      2114.3116      2885.6884      2114.3116      2885.6884      2114.3116      2885.6884      4.5898622e+08  0.1            14707480       4.6355447      536.70921      5367.0595      14.056175    
  37830000   90347.062     -111.25172     -40480291       1.3096257      269038.12     -40211253       771.37676      771.37676      771.37676      2114.3116      2885.6884      2114.3116      2885.6884      2114.3116      2885.6884      4.5898622e+08  0.1            14707500       4.672749       537.57103      5375.7351      14.018254    
  37830200   91925.495     -111.3484      -40480796       1.3096257      273738.43     -40207058       771.37676      771.37676      771.37676      2114.3116      2885.6884      2114.3116      2885.6884      2114.3116      2885.6884      4.5898622e+08  0.1            14707520       4.7098314      539.34103      5393.4078      13.979982    
  37830400   93624.672     -111.51536     -40481657       1.3096257      278798.28     -40202858       771.37676      771.37676      771.37676      2114.3116      2885.6884      2114.3116      2885.6884      2114.3116      2885.6884      4.5898622e+08  0.1            14707540       4.7469923      538.19943      5382.0062      13.94196     
  37830600   95368.958     -111.57905     -40482507       1.3096257      283992.47     -40198514       771.37676      771.37676      771.37676      2114.3116      2885.6884      2114.3116      2885.6884      2114.3116      2885.6884      4.5898622e+08  0.1            14707560       4.784179       537.82681      5378.2686      13.904026    
  37830800   97078.373     -111.78084     -40490723       1.3096257      289082.82     -40201640       771.37676      771.37676      771.37676      2114.3116      2885.6884      2114.3116      2885.6884      2114.3116      2885.6884      4.5898622e+08  0.1            14707580       4.8213305      538.33295      5383.3171      13.866004    
  37831000   98674.529     -111.51923     -40491180       1.3096257      293835.9      -40197344       771.37676      771.37676      771.37676      2114.3116      2885.6884      2114.3116      2885.6884      2114.3116      2885.6884      4.5898622e+08  0.1            14707600       4.8585754      536.98966      5369.911       13.828259    
  37831200   100089.31     -111.13793     -40491252       1.3096257      298048.88     -40193203       771.37676      771.37676      771.37676      2114.3116      2885.6884      2114.3116      2885.6884      2114.3116      2885.6884      4.5898622e+08  0.1            14707620       4.8957429      538.10506      5381.0503      13.790305    
  37831400   101267.2      -111.11539     -40499057       1.3096257      301556.44     -40197500       771.37676      771.37676      771.37676      2114.3116      2885.6884      2114.3116      2885.6884      2114.3116      2885.6884      4.5898622e+08  0.1            14707640       4.9329266      537.86993      5378.6984      13.752407    
  37831600   102171.32     -110.88704     -40499470       1.3096257      304248.76     -40195222       771.37676      771.37676      771.37676      2114.3116      2885.6884      2114.3116      2885.6884      2114.3116      2885.6884      4.5898622e+08  0.1            14707660       4.9702114      536.41034      5364.0932      13.7148      
  37831800   102785.67     -110.53886     -40497607       1.3096257      306078.17     -40191529       771.37676      771.37676      771.37676      2114.3116      2885.6884      2114.3116      2885.6884      2114.3116      2885.6884      4.5898622e+08  0.1            14707680       5.0074128      537.61441      5376.1548      13.676969    
  37832000   103117.43     -110.88849     -40505370       1.3096257      307066.11     -40198304       771.37676      771.37676      771.37676      2114.3116      2885.6884      2114.3116      2885.6884      2114.3116      2885.6884      4.5898622e+08  0.1            14707700       5.0454182      526.24059      5262.3975      13.641322    
  37832200   103199.72     -110.9197      -40505739       1.3096257      307311.16     -40198427       771.37676      771.37676      771.37676      2114.3116      2885.6884      2114.3116      2885.6884      2114.3116      2885.6884      4.5898622e+08  0.1            14707720       5.0826154      537.67488      5376.7588      13.603477    
  37832400   103085.74     -111.21399     -40513468       1.3096257      306971.73     -40206497       771.37676      771.37676      771.37676      2114.3116      2885.6884      2114.3116      2885.6884      2114.3116      2885.6884      4.5898622e+08  0.1            14707740       5.1197713      538.27307      5382.7117      13.565532    
  37832600   102844.7      -111.32436     -40513801       1.3096257      306253.96     -40207547       771.37676      771.37676      771.37676      2114.3116      2885.6884      2114.3116      2885.6884      2114.3116      2885.6884      4.5898622e+08  0.1            14707760       5.1569291      538.24482      5382.4627      13.527602    
  37832800   102556.34     -111.41812     -40506735       1.3096257      305395.28     -40201340       771.37676      771.37676      771.37676      2114.3116      2885.6884      2114.3116      2885.6884      2114.3116      2885.6884      4.5898622e+08  0.1            14707780       5.1940901      538.19714      5381.9756      13.489693    
  37833000   102302.49     -111.93998     -40507029       1.3096257      304639.36     -40202390       771.37676      771.37676      771.37676      2114.3116      2885.6884      2114.3116      2885.6884      2114.3116      2885.6884      4.5898622e+08  0.1            14707800       5.2312913      537.61983      5376.19        13.451898    
  37833200   102161.71     -111.99226     -40499929       1.3096257      304220.14     -40195709       771.37676      771.37676      771.37676      2114.3116      2885.6884      2114.3116      2885.6884      2114.3116      2885.6884      4.5898622e+08  0.1            14707820       5.2685259      537.13392      5371.3323      13.414196    
  37833400   102201.16     -111.92576     -40498295       1.3096257      304337.61     -40193958       771.37676      771.37676      771.37676      2114.3116      2885.6884      2114.3116      2885.6884      2114.3116      2885.6884      4.5898622e+08  0.1            14707840       5.3056016      539.43338      5394.3447      13.3761      
  37833600   102474.33     -111.67038     -40498540       1.3096257      305151.05     -40193389       771.37676      771.37676      771.37676      2114.3116      2885.6884      2114.3116      2885.6884      2114.3116      2885.6884      4.5898622e+08  0.1            14707860       5.3426971      539.15304      5391.5352      13.338067    
  37833800   103018.28     -111.19408     -40498769       1.3096257      306770.85     -40191998       771.37676      771.37676      771.37676      2114.3116      2885.6884      2114.3116      2885.6884      2114.3116      2885.6884      4.5898622e+08  0.1            14707880       5.3798346      538.53889      5385.3746      13.300152    
  37834000   103849.9      -110.71581     -40500877       1.3096257      309247.27     -40191630       771.37676      771.37676      771.37676      2114.3116      2885.6884      2114.3116      2885.6884      2114.3116      2885.6884      4.5898622e+08  0.1            14707900       5.4169158      539.35655      5393.5776      13.262109    
  37834200   104965.1      -110.11039     -40501075       1.3096257      312568.15     -40188507       771.37676      771.37676      771.37676      2114.3116      2885.6884      2114.3116      2885.6884      2114.3116      2885.6884      4.5898622e+08  0.1            14707920       5.4549583      525.72684      5257.2673      13.226411    
  37834400   106336.01     -109.45126     -40501257       1.3096257      316650.49     -40184606       771.37676      771.37676      771.37676      2114.3116      2885.6884      2114.3116      2885.6884      2114.3116      2885.6884      4.5898622e+08  0.1            14707940       5.4921526      537.71819      5377.1786      13.188644    
  37834600   107913.79     -108.73038     -40503318       1.3096257      321348.83     -40181969       771.37676      771.37676      771.37676      2114.3116      2885.6884      2114.3116      2885.6884      2114.3116      2885.6884      4.5898622e+08  0.1            14707960       5.5293109      538.23793      5382.3703      13.150799    
  37834800   109631.88     -107.85342     -40503468       1.3096257      326465.02     -40177003       771.37676      771.37676      771.37676      2114.3116      2885.6884      2114.3116      2885.6884      2114.3116      2885.6884      4.5898622e+08  0.1            14707980       5.5665357      537.27594      5372.7699      13.113119    
  37835000   111412.13     -107.1276      -40505499       1.3096257      331766.3      -40173732       771.37676      771.37676      771.37676      2114.3116      2885.6884      2114.3116      2885.6884      2114.3116      2885.6884      4.5898622e+08  0.1            14708000       5.6036561      538.78776      5387.8801      13.075202    
  37835200   113172.88     -106.31714     -40505620       1.3096257      337009.52     -40168610       771.37676      771.37676      771.37676      2114.3116      2885.6884      2114.3116      2885.6884      2114.3116      2885.6884      4.5898622e+08  0.1            14708020       5.6408876      537.17778      5371.7755      13.037553    
  37835400   114832.09     -105.36039     -40505724       1.3096257      341950.35     -40163774       771.37676      771.37676      771.37676      2114.3116      2885.6884      2114.3116      2885.6884      2114.3116      2885.6884      4.5898622e+08  0.1            14708040       5.6781501      536.73417      5367.3386      12.99998     
  37835600   116315.78     -104.45003     -40505809       1.3096257      346368.52     -40159440       771.37676      771.37676      771.37676      2114.3116      2885.6884      2114.3116      2885.6884      2114.3116      2885.6884      4.5898622e+08  0.1            14708060       5.7153067      538.26279      5382.6324      12.962171    
  37835800   117564.7      -103.56654     -40498498       1.3096257      350087.59     -40148410       771.37676      771.37676      771.37676      2114.3116      2885.6884      2114.3116      2885.6884      2114.3116      2885.6884      4.5898622e+08  0.1            14708080       5.7525691      536.7335       5367.3327      12.924608    
  37836000   118536.49     -103.21585     -40498548       1.3096257      352981.44     -40145567       771.37676      771.37676      771.37676      2114.3116      2885.6884      2114.3116      2885.6884      2114.3116      2885.6884      4.5898622e+08  0.1            14708100       5.7906565      525.10713      5251.072       12.888886    
  37836200   119211.97     -103.00033     -40498951       1.3096257      354992.88     -40143959       771.37676      771.37676      771.37676      2114.3116      2885.6884      2114.3116      2885.6884      2114.3116      2885.6884      4.5898622e+08  0.1            14708120       5.827935       536.50252      5365.0145      12.851349    
  37836400   119594.3      -102.33052     -40498972       1.3096257      356131.41     -40142840       771.37676      771.37676      771.37676      2114.3116      2885.6884      2114.3116      2885.6884      2114.3116      2885.6884      4.5898622e+08  0.1            14708140       5.8651786      537.00636      5370.0761      12.813739    
  37836600   119710.74     -101.44887     -40500870       1.3096257      356478.14     -40144392       771.37676      771.37676      771.37676      2114.3116      2885.6884      2114.3116      2885.6884      2114.3116      2885.6884      4.5898622e+08  0.1            14708160       5.9023317      538.31346      5383.1326      12.775938    
  37836800   119610.75     -100.6149      -40500484       1.3096257      356180.38     -40144304       771.37676      771.37676      771.37676      2114.3116      2885.6884      2114.3116      2885.6884      2114.3116      2885.6884      4.5898622e+08  0.1            14708180       5.9395905      536.78441      5367.8454      12.738372    
  37837000   119362.39     -100.45333     -40507825       1.3096257      355440.82     -40152384       771.37676      771.37676      771.37676      2114.3116      2885.6884      2114.3116      2885.6884      2114.3116      2885.6884      4.5898622e+08  0.1            14708200       5.9769394      535.49207      5354.9102      12.701001    
  37837200   119047.26     -100.04116     -40507769       1.3096257      354502.42     -40153267       771.37676      771.37676      771.37676      2114.3116      2885.6884      2114.3116      2885.6884      2114.3116      2885.6884      4.5898622e+08  0.1            14708220       6.0141103      538.05447      5380.5602      12.663255    
  37837400   118750.13     -99.645523     -40507698       1.3096257      353617.61     -40154080       771.37676      771.37676      771.37676      2114.3116      2885.6884      2114.3116      2885.6884      2114.3116      2885.6884      4.5898622e+08  0.1            14708240       6.051352       537.03312      5370.3244      12.625665    
  37837600   118552.87     -99.224114     -40507613       1.3096257      353030.2      -40154583       771.37676      771.37676      771.37676      2114.3116      2885.6884      2114.3116      2885.6884      2114.3116      2885.6884      4.5898622e+08  0.1            14708260       6.0885944      537.02177      5370.2118      12.58808     
  37837800   118527.44     -98.51371      -40507513       1.3096257      352954.46     -40154559       771.37676      771.37676      771.37676      2114.3116      2885.6884      2114.3116      2885.6884      2114.3116      2885.6884      4.5898622e+08  0.1            14708280       6.1257556      538.19556      5381.9635      12.550333    
  37838000   118732.2      -98.15732      -40516671       1.3096257      353564.22     -40163106       771.37676      771.37676      771.37676      2114.3116      2885.6884      2114.3116      2885.6884      2114.3116      2885.6884      4.5898622e+08  0.1            14708300       6.1629031      538.39485      5383.9472      12.512565    
  37838200   119210.58     -97.034632     -40511058       1.3096257      354988.75     -40156069       771.37676      771.37676      771.37676      2114.3116      2885.6884      2114.3116      2885.6884      2114.3116      2885.6884      4.5898622e+08  0.1            14708320       6.2001765      536.57296      5365.7345      12.475058    
  37838400   119984.19     -95.794912     -40510913       1.3096257      357292.44     -40153621       771.37676      771.37676      771.37676      2114.3116      2885.6884      2114.3116      2885.6884      2114.3116      2885.6884      4.5898622e+08  0.1            14708340       6.2374627      536.39394      5363.924       12.43758     
  37838600   121051.68     -94.073802     -40510753       1.3096257      360471.24     -40150282       771.37676      771.37676      771.37676      2114.3116      2885.6884      2114.3116      2885.6884      2114.3116      2885.6884      4.5898622e+08  0.1            14708360       6.2747106      536.94314      5369.4302      12.400028    
  37838800   122388.14     -92.404183     -40512470       1.3096257      364450.99     -40148019       771.37676      771.37676      771.37676      2114.3116      2885.6884      2114.3116      2885.6884      2114.3116      2885.6884      4.5898622e+08  0.1            14708380       6.3123074      531.95916      5319.6052      12.363163    
  37839000   123947.88     -91.345418     -40519656       1.3096257      369095.61     -40150561       771.37676      771.37676      771.37676      2114.3116      2885.6884      2114.3116      2885.6884      2114.3116      2885.6884      4.5898622e+08  0.1            14708400       6.3496117      536.13066      5361.3052      12.325721    
  37839200   125667.31     -90.097685     -40519454       1.3096257      374215.78     -40145239       771.37676      771.37676      771.37676      2114.3116      2885.6884      2114.3116      2885.6884      2114.3116      2885.6884      4.5898622e+08  0.1            14708420       6.3868881      536.53408      5365.333       12.288228    
  37839400   127466.33     -88.565981     -40519238       1.3096257      379572.96     -40139665       771.37676      771.37676      771.37676      2114.3116      2885.6884      2114.3116      2885.6884      2114.3116      2885.6884      4.5898622e+08  0.1            14708440       6.4241585      536.61886      5366.1963      12.250725    
  37839600   129259.83     -86.593712     -40511996       1.3096257      384913.7      -40127083       771.37676      771.37676      771.37676      2114.3116      2885.6884      2114.3116      2885.6884      2114.3116      2885.6884      4.5898622e+08  0.1            14708460       6.463306       510.88773      5108.8643      12.216773    
  37839800   130964.22     -84.940804     -40513642       1.3096257      389989.08     -40123653       771.37676      771.37676      771.37676      2114.3116      2885.6884      2114.3116      2885.6884      2114.3116      2885.6884      4.5898622e+08  0.1            14708480       6.5014366      524.5143       5245.1473      12.180857    
  37840000   132501.81     -83.065314     -40513373       1.3096257      394567.75     -40118806       771.37676      771.37676      771.37676      2114.3116      2885.6884      2114.3116      2885.6884      2114.3116      2885.6884      4.5898622e+08  0.1            14708500       6.5387953      535.3501       5353.4985      12.143481    
  37840200   133809.31     -81.455623     -40511186       1.3096257      398461.28     -40112725       771.37676      771.37676      771.37676      2114.3116      2885.6884      2114.3116      2885.6884      2114.3116      2885.6884      4.5898622e+08  0.1            14708520       6.5761012      536.10777      5361.0895      12.106009    
  37840400   134842.84     -80.402057     -40508984       1.3096257      401538.95     -40107445       771.37676      771.37676      771.37676      2114.3116      2885.6884      2114.3116      2885.6884      2114.3116      2885.6884      4.5898622e+08  0.1            14708540       6.6147092      518.02659      5180.2612      12.070914    
  37840600   135578.83     -79.38555      -40508665       1.3096257      403730.62     -40104934       771.37676      771.37676      771.37676      2114.3116      2885.6884      2114.3116      2885.6884      2114.3116      2885.6884      4.5898622e+08  0.1            14708560       6.6520421      535.72081      5357.2224      12.033473    
  37840800   136015.5      -78.578124     -40515710       1.3096257      405030.93     -40110679       771.37676      771.37676      771.37676      2114.3116      2885.6884      2114.3116      2885.6884      2114.3116      2885.6884      4.5898622e+08  0.1            14708580       6.6893578      535.96873      5359.6687      11.996003    
  37841000   136175.71     -77.78936      -40522740       1.3096257      405508        -40117232       771.37676      771.37676      771.37676      2114.3116      2885.6884      2114.3116      2885.6884      2114.3116      2885.6884      4.5898622e+08  0.1            14708600       6.7266772      535.91454      5359.1566      11.958541    
  37841200   136106.37     -77.214002     -40529754       1.3096257      405301.52     -40124453       771.37676      771.37676      771.37676      2114.3116      2885.6884      2114.3116      2885.6884      2114.3116      2885.6884      4.5898622e+08  0.1            14708620       6.7639523      536.55099      5365.5066      11.921003    
  37841400   135873.15     -76.6886       -40529377       1.3096257      404607.04     -40124770       771.37676      771.37676      771.37676      2114.3116      2885.6884      2114.3116      2885.6884      2114.3116      2885.6884      4.5898622e+08  0.1            14708640       6.8012586      536.10244      5361.0162      11.883522    
  37841600   135555.92     -76.093954     -40528990       1.3096257      403662.38     -40125328       771.37676      771.37676      771.37676      2114.3116      2885.6884      2114.3116      2885.6884      2114.3116      2885.6884      4.5898622e+08  0.1            14708660       6.8386183      535.33606      5353.3189      11.846135    
  37841800   135239.55     -74.857152     -40528594       1.3096257      402720.28     -40125874       771.37676      771.37676      771.37676      2114.3116      2885.6884      2114.3116      2885.6884      2114.3116      2885.6884      4.5898622e+08  0.1            14708680       6.8760554      534.22854      5342.335       11.808882    
  37842000   135006.84     -72.868676     -40520443       1.3096257      402027.31     -40118416       771.37676      771.37676      771.37676      2114.3116      2885.6884      2114.3116      2885.6884      2114.3116      2885.6884      4.5898622e+08  0.1            14708700       6.9134401      534.97445      5349.7445      11.771537    
  37842200   134933.6      -71.170276     -40520026       1.3096257      401809.21     -40118217       771.37676      771.37676      771.37676      2114.3116      2885.6884      2114.3116      2885.6884      2114.3116      2885.6884      4.5898622e+08  0.1            14708720       6.9506546      537.42858      5374.2792      11.733905    
  37842400   135082.57     -69.222165     -40519598       1.3096257      402252.82     -40117345       771.37676      771.37676      771.37676      2114.3116      2885.6884      2114.3116      2885.6884      2114.3116      2885.6884      4.5898622e+08  0.1            14708740       6.9879993      535.55317      5355.5295      11.696494    
  37842600   135500.07     -67.246664     -40519156       1.3096257      403496.08     -40115660       771.37676      771.37676      771.37676      2114.3116      2885.6884      2114.3116      2885.6884      2114.3116      2885.6884      4.5898622e+08  0.1            14708760       7.0255305      532.88692      5328.88        11.659395    
  37842800   136212.8      -65.078571     -40511323       1.3096257      405618.46     -40105705       771.37676      771.37676      771.37676      2114.3116      2885.6884      2114.3116      2885.6884      2114.3116      2885.6884      4.5898622e+08  0.1            14708780       7.0627606      537.20104      5372.0185      11.621795    
  37843000   137224.12     -63.48419      -40510856       1.3096257      408629.99     -40102226       771.37676      771.37676      771.37676      2114.3116      2885.6884      2114.3116      2885.6884      2114.3116      2885.6884      4.5898622e+08  0.1            14708800       7.1000832      535.86796      5358.6647      11.58435     
  37843200   138514.42     -62.352432     -40510745       1.3096257      412472.29     -40098273       771.37676      771.37676      771.37676      2114.3116      2885.6884      2114.3116      2885.6884      2114.3116      2885.6884      4.5898622e+08  0.1            14708820       7.1373146      537.18143      5371.8302      11.546758    
  37843400   140040.28     -61.010773     -40509886       1.3096257      417016.05     -40092870       771.37676      771.37676      771.37676      2114.3116      2885.6884      2114.3116      2885.6884      2114.3116      2885.6884      4.5898622e+08  0.1            14708840       7.1745693      536.8452       5368.4408      11.509208    
  37843600   141738.17     -59.497996     -40509384       1.3096257      422072.07     -40087312       771.37676      771.37676      771.37676      2114.3116      2885.6884      2114.3116      2885.6884      2114.3116      2885.6884      4.5898622e+08  0.1            14708860       7.2126645      524.99851      5249.9916      11.472998    
  37843800   143530.86     -57.472307     -40506974       1.3096257      427410.39     -40079564       771.37676      771.37676      771.37676      2114.3116      2885.6884      2114.3116      2885.6884      2114.3116      2885.6884      4.5898622e+08  0.1            14708880       7.2498541      537.78584      5377.8515      11.43534     
  37844000   145333.33     -55.254774     -40506445       1.3096257      432777.83     -40073667       771.37676      771.37676      771.37676      2114.3116      2885.6884      2114.3116      2885.6884      2114.3116      2885.6884      4.5898622e+08  0.1            14708900       7.287079       537.27601      5372.7537      11.397742    
  37844200   147062.74     -52.936493     -40505904       1.3096257      437927.72     -40067977       771.37676      771.37676      771.37676      2114.3116      2885.6884      2114.3116      2885.6884      2114.3116      2885.6884      4.5898622e+08  0.1            14708920       7.3242693      537.7745       5377.7534      11.360095    
  37844400   148641.32     -49.982953     -40497975       1.3096257      442628.47     -40055346       771.37676      771.37676      771.37676      2114.3116      2885.6884      2114.3116      2885.6884      2114.3116      2885.6884      4.5898622e+08  0.1            14708940       7.3615143      536.98499      5369.8551      11.322535    
  37844600   150003.17     -47.635907     -40504790       1.3096257      446683.83     -40058107       771.37676      771.37676      771.37676      2114.3116      2885.6884      2114.3116      2885.6884      2114.3116      2885.6884      4.5898622e+08  0.1            14708960       7.3987828      536.64722      5366.4669      11.285015    
  37844800   151099.07     -45.366523     -40502323       1.3096257      449947.23     -40052376       771.37676      771.37676      771.37676      2114.3116      2885.6884      2114.3116      2885.6884      2114.3116      2885.6884      4.5898622e+08  0.1            14708980       7.4364247      531.32277      5313.2257      11.248063    
  37845000   151899.64     -43.26278      -40499846       1.3096257      452331.19     -40047515       771.37676      771.37676      771.37676      2114.3116      2885.6884      2114.3116      2885.6884      2114.3116      2885.6884      4.5898622e+08  0.1            14709000       7.4747966      521.21196      5212.1152      11.212198    
  37845200   152398.2      -41.942049     -40514005       1.3096257      453815.81     -40060189       771.37676      771.37676      771.37676      2114.3116      2885.6884      2114.3116      2885.6884      2114.3116      2885.6884      4.5898622e+08  0.1            14709020       7.5121475      535.46364      5354.6414      11.17479     
  37845400   152613.91     -39.917775     -40506019       1.3096257      454458.15     -40051561       771.37676      771.37676      771.37676      2114.3116      2885.6884      2114.3116      2885.6884      2114.3116      2885.6884      4.5898622e+08  0.1            14709040       7.5494313      536.42605      5364.2584      11.137283    
  37845600   152590.67     -38.480715     -40516005       1.3096257      454388.97     -40061616       771.37676      771.37676      771.37676      2114.3116      2885.6884      2114.3116      2885.6884      2114.3116      2885.6884      4.5898622e+08  0.1            14709060       7.5867402      536.06423      5360.638       11.099815    
  37845800   152390.52     -36.136455     -40500636       1.3096257      453792.95     -40046843       771.37676      771.37676      771.37676      2114.3116      2885.6884      2114.3116      2885.6884      2114.3116      2885.6884      4.5898622e+08  0.1            14709080       7.6241285      534.9265       5349.2694      11.062464    
  37846000   152088.26     -34.48412      -40500019       1.3096257      452892.87     -40047126       771.37676      771.37676      771.37676      2114.3116      2885.6884      2114.3116      2885.6884      2114.3116      2885.6884      4.5898622e+08  0.1            14709100       7.6614438      535.97446      5359.748       11.025008    
  37846200   151766.99     -32.289544     -40484640       1.3096257      451936.19     -40032704       771.37676      771.37676      771.37676      2114.3116      2885.6884      2114.3116      2885.6884      2114.3116      2885.6884      4.5898622e+08  0.1            14709120       7.6987553      536.02672      5360.27        10.987547    
  37846400   151510.7      -30.717526     -40484010       1.3096257      451172.99     -40032837       771.37676      771.37676      771.37676      2114.3116      2885.6884      2114.3116      2885.6884      2114.3116      2885.6884      4.5898622e+08  0.1            14709140       7.7360747      535.91481      5359.146       10.950099    
  37846600   151396.53     -29.246848     -40490749       1.3096257      450833.02     -40039916       771.37676      771.37676      771.37676      2114.3116      2885.6884      2114.3116      2885.6884      2114.3116      2885.6884      4.5898622e+08  0.1            14709160       7.7734154      535.60864      5356.0764      10.912683    
  37846800   151492        -26.610813     -40475347       1.3096257      451117.29     -40024230       771.37676      771.37676      771.37676      2114.3116      2885.6884      2114.3116      2885.6884      2114.3116      2885.6884      4.5898622e+08  0.1            14709180       7.8106472      537.17512      5371.7589      10.875115    
  37847000   151847.73     -24.46543      -40474694       1.3096257      452176.62     -40022517       771.37676      771.37676      771.37676      2114.3116      2885.6884      2114.3116      2885.6884      2114.3116      2885.6884      4.5898622e+08  0.1            14709200       7.847917       536.62816      5366.2837      10.837603    
  37847200   152495.93     -22.306903     -40474403       1.3096257      454106.84     -40020297       771.37676      771.37676      771.37676      2114.3116      2885.6884      2114.3116      2885.6884      2114.3116      2885.6884      4.5898622e+08  0.1            14709220       7.8862468      521.78544      5217.8314      10.801545    
  37847400   153445.12     -20.08907      -40473740       1.3096257      456933.36     -40016806       771.37676      771.37676      771.37676      2114.3116      2885.6884      2114.3116      2885.6884      2114.3116      2885.6884      4.5898622e+08  0.1            14709240       7.923606       535.3438       5353.4563      10.764147    
  37847600   154680.53     -18.550372     -40480451       1.3096257      460612.21     -40019839       771.37676      771.37676      771.37676      2114.3116      2885.6884      2114.3116      2885.6884      2114.3116      2885.6884      4.5898622e+08  0.1            14709260       7.9609627      535.38135      5353.8155      10.726746    
  37847800   156163.29     -17.266241     -40489055       1.3096257      465027.61     -40024027       771.37676      771.37676      771.37676      2114.3116      2885.6884      2114.3116      2885.6884      2114.3116      2885.6884      4.5898622e+08  0.1            14709280       7.9983488      534.95904      5349.5961      10.689385    
  37848000   157832.48     -14.765305     -40479109       1.3096257      469998.17     -40009111       771.37676      771.37676      771.37676      2114.3116      2885.6884      2114.3116      2885.6884      2114.3116      2885.6884      4.5898622e+08  0.1            14709300       8.0358945      532.6818       5326.8119      10.652235    
  37848200   159611.64     -12.233098     -40478425       1.3096257      475296.21     -40003129       771.37676      771.37676      771.37676      2114.3116      2885.6884      2114.3116      2885.6884      2114.3116      2885.6884      4.5898622e+08  0.1            14709320       8.0732385      535.55778      5355.582       10.614817    
  37848400   161417.03     -9.4281412     -40477730       1.3096257      480672.35     -39997058       771.37676      771.37676      771.37676      2114.3116      2885.6884      2114.3116      2885.6884      2114.3116      2885.6884      4.5898622e+08  0.1            14709340       8.1106965      533.93432      5339.3424      10.577547    
  37848600   163163.97     -6.4987933     -40477025       1.3096257      485874.45     -39991150       771.37676      771.37676      771.37676      2114.3116      2885.6884      2114.3116      2885.6884      2114.3116      2885.6884      4.5898622e+08  0.1            14709360       8.1480669      535.18331      5351.8368      10.540163    
  37848800   164772.63     -3.9729853     -40476306       1.3096257      490664.74     -39985642       771.37676      771.37676      771.37676      2114.3116      2885.6884      2114.3116      2885.6884      2114.3116      2885.6884      4.5898622e+08  0.1            14709380       8.1855222      533.96625      5339.6608      10.502888    
  37849000   166174.78     -1.6946731     -40475576       1.3096257      494840.11     -39980736       771.37676      771.37676      771.37676      2114.3116      2885.6884      2114.3116      2885.6884      2114.3116      2885.6884      4.5898622e+08  0.1            14709400       8.2230798      532.51909      5325.196       10.465741    
  37849200   167320.29      0.16182247    -40478425       1.3096257      498251.26     -39980174       771.37676      771.37676      771.37676      2114.3116      2885.6884      2114.3116      2885.6884      2114.3116      2885.6884      4.5898622e+08  0.1            14709420       8.2609181      528.56559      5285.6451      10.428945    
  37849400   168178.73      1.9684922     -40479581       1.3096257      500807.55     -39978774       771.37676      771.37676      771.37676      2114.3116      2885.6884      2114.3116      2885.6884      2114.3116      2885.6884      4.5898622e+08  0.1            14709440       8.2983622      534.1306       5341.3014      10.391645    
  37849600   168739.1       3.6655878     -40499079       1.3096257      502476.23     -39996602       771.37676      771.37676      771.37676      2114.3116      2885.6884      2114.3116      2885.6884      2114.3116      2885.6884      4.5898622e+08  0.1            14709460       8.3358631      533.31358      5333.1335      10.354416    
  37849800   169014.51      6.6272765     -40483578       1.3096257      503296.34     -39980281       771.37676      771.37676      771.37676      2114.3116      2885.6884      2114.3116      2885.6884      2114.3116      2885.6884      4.5898622e+08  0.1            14709480       8.3732433      535.04493      5350.4601      10.317035    
[...]
  38494400   307.30898      2.5628063     -40710451       1.3486018      915.11368     -40709536       763.87278      763.87278      763.87278      2118.0636      2881.9364      2118.0636      2881.9364      2118.0636      2881.9364      4.4572102e+08  0.1            14773940       63.693697      456.56412      4565.6458      2.3329413    
  38494600   307.28462      4.4962706     -40710538       1.3486692      915.04112     -40709623       763.86006      763.86006      763.86006      2118.07        2881.93        2118.07        2881.93        2118.07        2881.93        4.4569874e+08  0.1            14773960       63.737556      456.00914      4560.0916      2.2889179    
  38494800   307.21789      1.0446929     -40710628       1.3485634      914.8424      -40709713       763.88002      763.88002      763.88002      2118.06        2881.94        2118.06        2881.94        2118.06        2881.94        4.4573369e+08  0.1            14773980       63.781438      455.7632       4557.6325      2.2448954    
  38495000   307.02665     -2.7751168     -40710716       1.3484459      914.27293     -40709801       763.90222      763.90222      763.90222      2118.0489      2881.9511      2118.0489      2881.9511      2118.0489      2881.9511      4.4577254e+08  0.1            14774000       63.825321      455.75829      4557.5725      2.2008732    
  38495200   307.16469     -2.6085139     -40710804       1.3484566      914.68399     -40709889       763.9002       763.9002       763.9002       2118.0499      2881.9501      2118.0499      2881.9501      2118.0499      2881.9501      4.4576901e+08  0.1            14774020       63.869196      455.84078      4558.4194      2.156851     
  38495400   307.28241      0.80347689    -40710892       1.3485714      915.03455     -40709977       763.87852      763.87852      763.87852      2118.0607      2881.9393      2118.0607      2881.9393      2118.0607      2881.9393      4.4573105e+08  0.1            14774040       63.912971      456.88558      4568.8535      2.1128256    
  38495600   307.22667     -3.959402      -40710979       1.3484238      914.86856     -40710064       763.90638      763.90638      763.90638      2118.0468      2881.9532      2118.0468      2881.9532      2118.0468      2881.9532      4.4577983e+08  0.1            14774060       63.956924      455.0304       4550.3049      2.0688063    
  38495800   307.17635     -4.2811772     -40711067       1.3484188      914.71872     -40710152       763.90733      763.90733      763.90733      2118.0463      2881.9537      2118.0463      2881.9537      2118.0463      2881.9537      4.4578148e+08  0.1            14774080       64.000748      456.36815      4563.6791      2.024783     
  38496000   307.00337     -4.3536561     -40711155       1.3484218      914.2036      -40710241       763.90676      763.90676      763.90676      2118.0466      2881.9534      2118.0466      2881.9534      2118.0466      2881.9534      4.4578049e+08  0.1            14774100       64.044572      456.36822      4563.6822      1.9807601    
  38496200   307.16643      0.77493144    -40718622       1.3486009      914.68917     -40717708       763.87294      763.87294      763.87294      2118.0635      2881.9365      2118.0635      2881.9365      2118.0635      2881.9365      4.4572129e+08  0.1            14774120       64.088381      456.52829      4565.2696      1.9367369    
  38496400   307.28766      4.7892532     -40720604       1.3487385      915.05019     -40719689       763.84698      763.84698      763.84698      2118.0765      2881.9235      2118.0765      2881.9235      2118.0765      2881.9235      4.4567584e+08  0.1            14774140       64.132224      456.17551      4561.7696      1.892715     
  38496600   307.21692     -2.5430173     -40711420       1.3484956      914.83952     -40710505       763.89283      763.89283      763.89283      2118.0536      2881.9464      2118.0536      2881.9464      2118.0536      2881.9464      4.4575611e+08  0.1            14774160       64.176067      456.17628      4561.7587      1.8486934    
  38496800   307.17054     -2.3581278     -40718886       1.3485164      914.70142     -40717971       763.88891      763.88891      763.88891      2118.0555      2881.9445      2118.0555      2881.9445      2118.0555      2881.9445      4.4574924e+08  0.1            14774180       64.219944      455.81889      4558.1933      1.8046729    
  38497000   307.00236     -1.8346718     -40720869       1.3485423      914.20059     -40719954       763.884        763.884        763.884        2118.058       2881.942       2118.058       2881.942       2118.058       2881.942       4.4574065e+08  0.1            14774200       64.263838      455.63895      4556.3854      1.7606532    
  38497200   307.13993     -1.3419244     -40720956       1.3485632      914.61026     -40720042       763.88006      763.88006      763.88006      2118.06        2881.94        2118.06        2881.94        2118.06        2881.94        4.4573374e+08  0.1            14774220       64.307752      455.4344       4554.3491      1.7166341    
  38497400   307.24095     -1.0684688     -40721044       1.3485771      914.91109     -40720129       763.87744      763.87744      763.87744      2118.0613      2881.9387      2118.0613      2881.9387      2118.0613      2881.9387      4.4572916e+08  0.1            14774240       64.351611      456.00982      4560.0893      1.6726138    
  38497600   307.20686     -0.95578627    -40721132       1.3485859      914.80956     -40720217       763.87579      763.87579      763.87579      2118.0621      2881.9379      2118.0621      2881.9379      2118.0621      2881.9379      4.4572627e+08  0.1            14774260       64.395474      455.97145      4559.6995      1.6285937    
  38497800   307.15715     -0.93942982    -40721220       1.3485915      914.66154     -40720305       763.87472      763.87472      763.87472      2118.0626      2881.9374      2118.0626      2881.9374      2118.0626      2881.9374      4.457244e+08   0.1            14774280       64.439623      453.01255      4530.1506      1.5845809    
  38498000   306.98479     -0.95566638    -40721307       1.3485961      914.14829     -40720393       763.87385      763.87385      763.87385      2118.0631      2881.9369      2118.0631      2881.9369      2118.0631      2881.9369      4.4572288e+08  0.1            14774300       64.483541      455.38522      4553.8386      1.5405625    
  38498200   307.12115     -0.94119019    -40721395       1.3486017      914.55435     -40720480       763.8728       763.8728       763.8728       2118.0636      2881.9364      2118.0636      2881.9364      2118.0636      2881.9364      4.4572105e+08  0.1            14774320       64.527612      453.814        4538.1421      1.4965477    
  38498400   307.22182     -0.83443925    -40721482       1.3486101      914.85413     -40720567       763.8712       763.8712       763.8712       2118.0644      2881.9356      2118.0644      2881.9356      2118.0644      2881.9356      4.4571825e+08  0.1            14774340       64.571604      454.63667      4546.3721      1.452531     
  38498600   307.18703     -0.58038267    -40721570       1.3486233      914.75051     -40720655       763.86872      763.86872      763.86872      2118.0656      2881.9344      2118.0656      2881.9344      2118.0656      2881.9344      4.457139e+08   0.1            14774360       64.615469      455.94007      4559.3996      1.4085116    
  38498800   307.13864     -0.14213411    -40721657       1.3486423      914.60642     -40720743       763.86513      763.86513      763.86513      2118.0674      2881.9326      2118.0674      2881.9326      2118.0674      2881.9326      4.4570762e+08  0.1            14774380       64.65935       455.77475      4557.7553      1.3644928    
  38499000   306.97076      0.47932925    -40721745       1.3486671      914.1065      -40720830       763.86045      763.86045      763.86045      2118.0698      2881.9302      2118.0698      2881.9302      2118.0698      2881.9302      4.4569942e+08  0.1            14774400       64.703268      455.39953      4553.9893      1.3204749    
  38499200   307.11025      1.2248781     -40721832       1.3486958      914.52187     -40720917       763.85502      763.85502      763.85502      2118.0725      2881.9275      2118.0725      2881.9275      2118.0725      2881.9275      4.4568993e+08  0.1            14774420       64.747162      455.64357      4556.4364      1.2764567    
  38499400   307.21322      1.9677026     -40721919       1.3487245      914.82851     -40721004       763.84962      763.84962      763.84962      2118.0752      2881.9248      2118.0752      2881.9248      2118.0752      2881.9248      4.4568046e+08  0.1            14774440       64.790985      456.38006      4563.8028      1.2324373    
  38499600   307.16534     -0.67655488    -40720111       1.3486414      914.68593     -40719196       763.86529      763.86529      763.86529      2118.0674      2881.9326      2118.0674      2881.9326      2118.0674      2881.9326      4.457079e+08   0.1            14774460       64.834821      456.24296      4562.4317      1.1884184    
  38499800   307.12561      0.68693286    -40720198       1.3486898      914.56763     -40719284       763.85616      763.85616      763.85616      2118.0719      2881.9281      2118.0719      2881.9281      2118.0719      2881.9281      4.4569191e+08  0.1            14774480       64.878633      456.49743      4564.974       1.1443993    
  38500000   306.9628       1.8487939     -40720285       1.3487318      914.08279     -40719371       763.84823      763.84823      763.84823      2118.0759      2881.9241      2118.0759      2881.9241      2118.0759      2881.9241      4.4567804e+08  0.1            14774500       64.922613      454.75578      4547.5509      1.1003833    
  38500200   307.10035      2.9175931     -40720372       1.3487708      914.49239     -40719457       763.84087      763.84087      763.84087      2118.0796      2881.9204      2118.0796      2881.9204      2118.0796      2881.9204      4.4566515e+08  0.1            14774520       64.966422      456.52532      4565.2601      1.0563646    
  38500400   307.20152      3.5384439     -40720459       1.3487956      914.79367     -40719544       763.83619      763.83619      763.83619      2118.0819      2881.9181      2118.0819      2881.9181      2118.0819      2881.9181      4.4565696e+08  0.1            14774540       65.010385      454.92708      4549.262       1.0123486    
  38500600   307.16564      3.4161979     -40720546       1.3487968      914.68682     -40719631       763.83595      763.83595      763.83595      2118.082       2881.918       2118.082       2881.918       2118.082       2881.918       4.4565655e+08  0.1            14774560       65.054237      456.0808       4560.8115      0.96833103   
  38500800   307.11387      2.8257622     -40720633       1.3487832      914.53267     -40719718       763.83852      763.83852      763.83852      2118.0807      2881.9193      2118.0807      2881.9193      2118.0807      2881.9193      4.4566104e+08  0.1            14774580       65.098065      456.3303       4563.3084      0.92431333   
  38501000   306.9554       4.5504252     -40721087       1.3488461      914.06076     -40720173       763.82665      763.82665      763.82665      2118.0867      2881.9133      2118.0867      2881.9133      2118.0867      2881.9133      4.4564026e+08  0.1            14774600       65.141971      455.52135      4555.2142      0.88029693   
  38501200   307.06711     -0.13907811    -40720807       1.3486995      914.39341     -40719892       763.85434      763.85434      763.85434      2118.0728      2881.9272      2118.0728      2881.9272      2118.0728      2881.9272      4.4568873e+08  0.1            14774620       65.185864      455.64324      4556.425       0.83628054   
  38501400   307.15169     -3.0651443     -40720893       1.3486117      914.64527     -40719978       763.8709       763.8709       763.8709       2118.0645      2881.9355      2118.0645      2881.9355      2118.0645      2881.9355      4.4571772e+08  0.1            14774640       65.229683      456.42512      4564.2561      0.79226339   
  38501600   307.13098     -0.025309885   -40721349       1.3487165      914.58362     -40720434       763.85113      763.85113      763.85113      2118.0744      2881.9256      2118.0744      2881.9256      2118.0744      2881.9256      4.456831e+08   0.1            14774660       65.273529      456.14141      4561.4145      0.74824682   
  38501800   307.10003      3.6776051     -40721434       1.3488395      914.49145     -40720520       763.8279       763.8279       763.8279       2118.0861      2881.9139      2118.0861      2881.9139      2118.0861      2881.9139      4.4564244e+08  0.1            14774680       65.317343      456.47636      4564.7655      0.70423014   
  38502000   306.92919      2.6913741     -40721521       1.3488136      913.98271     -40720607       763.8328       763.8328       763.8328       2118.0836      2881.9164      2118.0836      2881.9164      2118.0836      2881.9164      4.4565102e+08  0.1            14774700       65.361208      455.94327      4559.4292      0.66021425   
  38502200   307.05569      0.87911405    -40721608       1.3487613      914.35941     -40720694       763.84266      763.84266      763.84266      2118.0787      2881.9213      2118.0787      2881.9213      2118.0787      2881.9213      4.4566828e+08  0.1            14774720       65.405052      456.16261      4561.6251      0.61619836   
  38502400   307.14606     -0.84728717    -40721695       1.3487119      914.6285      -40720780       763.85199      763.85199      763.85199      2118.074       2881.926       2118.074       2881.926       2118.074       2881.926       4.4568462e+08  0.1            14774740       65.448848      456.66557      4566.6584      0.57218228   
  38502600   307.10317     -2.1845616     -40721781       1.3486748      914.5008      -40720866       763.85899      763.85899      763.85899      2118.0705      2881.9295      2118.0705      2881.9295      2118.0705      2881.9295      4.4569687e+08  0.1            14774760       65.492672      456.37636      4563.7611      0.52816673   
  38502800   307.05109     -2.9875058     -40721867       1.3486548      914.34571     -40720953       763.86277      763.86277      763.86277      2118.0686      2881.9314      2118.0686      2881.9314      2118.0686      2881.9314      4.4570348e+08  0.1            14774780       65.536516      456.16028      4561.5988      0.48415158   
  38503000   306.88352     -3.2595854     -40721953       1.3486517      913.84672     -40721040       763.86335      763.86335      763.86335      2118.0683      2881.9317      2118.0683      2881.9317      2118.0683      2881.9317      4.4570451e+08  0.1            14774800       65.580362      456.13437      4561.3495      0.44013668   
  38503200   307.0202      -3.101241      -40722040       1.3486623      914.25374     -40721125       763.86135      763.86135      763.86135      2118.0693      2881.9307      2118.0693      2881.9307      2118.0693      2881.9307      4.4570101e+08  0.1            14774820       65.62422       456.0251       4560.2514      0.39612207   
  38503400   307.12177     -2.6507664     -40722126       1.3486822      914.55619     -40721212       763.85759      763.85759      763.85759      2118.0712      2881.9288      2118.0712      2881.9288      2118.0712      2881.9288      4.4569442e+08  0.1            14774840       65.668453      452.14759      4521.4657      0.35210968   
  38503600   307.08797     -2.0430906     -40722213       1.3487072      914.45555     -40721298       763.85288      763.85288      763.85288      2118.0736      2881.9264      2118.0736      2881.9264      2118.0736      2881.9264      4.4568617e+08  0.1            14774860       65.712385      455.24565      4552.4577      0.30809559   
  38503800   307.04292     -1.3868928     -40722299       1.3487337      914.32138     -40721385       763.84787      763.84787      763.84787      2118.0761      2881.9239      2118.0761      2881.9239      2118.0761      2881.9239      4.456774e+08   0.1            14774880       65.756281      455.62869      4556.2981      0.26408146   
  38504000   306.87998     -0.75683415    -40722386       1.3487595      913.83618     -40721472       763.84301      763.84301      763.84301      2118.0785      2881.9215      2118.0785      2881.9215      2118.0785      2881.9215      4.4566889e+08  0.1            14774900       65.800161      455.78951      4557.8901      0.22006744   
  38504200   307.0191      -0.19304808    -40722472       1.3487831      914.25047     -40721557       763.83855      763.83855      763.83855      2118.0807      2881.9193      2118.0807      2881.9193      2118.0807      2881.9193      4.4566109e+08  0.1            14774920       65.844037      455.83151      4558.3242      0.17605358   
  38504400   307.12104      0.28973775    -40722558       1.3488042      914.55402     -40721643       763.83457      763.83457      763.83457      2118.0827      2881.9173      2118.0827      2881.9173      2118.0827      2881.9173      4.4565413e+08  0.1            14774940       65.887879      456.17921      4561.7819      0.13203984   
  38504600   307.08582      0.69169       -40722644       1.3488227      914.44914     -40721729       763.83108      763.83108      763.83108      2118.0845      2881.9155      2118.0845      2881.9155      2118.0845      2881.9155      4.4564801e+08  0.1            14774960       65.931755      455.82993      4558.2817      0.088026379  
  38504800   307.03917      1.0192093     -40722730       1.3488388      914.31021     -40721816       763.82803      763.82803      763.82803      2118.086       2881.914       2118.086       2881.914       2118.086       2881.914       4.4564268e+08  0.1            14774980       65.975663      455.49223      4554.9418      0.044013119  
  38505000   306.87419      1.2787116     -40722816       1.3488528      913.81892     -40721902       763.82539      763.82539      763.82539      2118.0873      2881.9127      2118.0873      2881.9127      2118.0873      2881.9127      4.4563805e+08  0.1            14775000       66.019907      452.03985      4520.4016      0            
Loop time of 66.0199 on 1 procs for 300000 steps with 1000 atoms

Performance: 39.261 ns/day, 0.611 hours/ns, 4544.083 timesteps/s
99.9% CPU use with 1 MPI tasks x 1 OpenMP threads

MPI task timing breakdown:
Section |  min time  |  avg time  |  max time  |%varavg| %total
---------------------------------------------------------------
Pair    | 50.831     | 50.831     | 50.831     |   0.0 | 76.99
Neigh   | 0.025587   | 0.025587   | 0.025587   |   0.0 |  0.04
Comm    | 2.0492     | 2.0492     | 2.0492     |   0.0 |  3.10
Output  | 0.050823   | 0.050823   | 0.050823   |   0.0 |  0.08
Modify  | 11.537     | 11.537     | 11.537     |   0.0 | 17.48
Other   |            | 1.526      |            |       |  2.31

Nlocal:           1000 ave        1000 max        1000 min
Histogram: 1 0 0 0 0 0 0 0 0 0
Nghost:           1336 ave        1336 max        1336 min
Histogram: 1 0 0 0 0 0 0 0 0 0
Neighs:           5939 ave        5939 max        5939 min
Histogram: 1 0 0 0 0 0 0 0 0 0

Total # of neighbors = 5939
Ave neighs/atom = 5.939
Neighbor list builds = 36
Dangerous builds = 18

# run_style
run_style verlet

# write restart
write_restart ${write_res}
write_restart ./pgnpmf/37/equpmf55.res
System init for write_restart ...
Generated 0 of 1 mixed pair_coeff terms from geometric mixing rule

Total wall time: 0:02:21
