LAMMPS (23 Jun 2022 - Update 1)
OMP_NUM_THREADS environment is not set. Defaulting to 1 thread. (src/comm.cpp:98)
  using 1 OpenMP thread(s) per MPI task
# Read restart
read_restart ${read_res}
read_restart ./pgnpmf/37/equpmf42.res
Reading restart file ...
  restart file = 23 Jun 2022, LAMMPS = 23 Jun 2022
  restoring atom style atomic from restart
  orthogonal box = (2040.5 2040.5 2040.5) to (2959.5 2959.5 2959.5)
  1 by 1 by 1 MPI processor grid
  restoring pair style table from restart
  1000 atoms
  read_restart CPU = 0.004 seconds

# Settings

pair_style table spline 9941

pair_coeff 1 1 ./pgnpmf/N20.txt DE_GNP 75.6
pair_coeff 2 2 ./pgnpmf/N100.txt DE_GNP 115.92
WARNING: 3 of 9941 force values in table DE_GNP are inconsistent with -dE/dr.
WARNING:  Should only be flagged at inflection points (src/pair_table.cpp:463)
pair_coeff 1 2 ./pgnpmf/mixed_potential.txt DE_GNP 95.66
WARNING: 1562 of 9941 force values in table DE_GNP are inconsistent with -dE/dr.
WARNING:  Should only be flagged at inflection points (src/pair_table.cpp:463)

#Neigh_list Calc Frequency

neigh_modify delay 0 every 1 check yes

# Saving Frequency (50 frames)

variable ts_save equal ${steps_equ}
variable ts_save equal 5000

# Dump
#dump 1 all custom ${ts_save} ./pgnpmf/${folder}/equilibration/trajectory/trajectory_${usic}_${trial}.equ.custom type x y z ix iy iz
#dump_modify 1 first no sort id
#dump 2 all cfg 50000 ./equilibration/trajectory/ovito/dumpgen.tens_*.cfg mass type xs ys zs fx fy fz

# thermo_style
thermo_style custom step temp press pe density ke etotal lx ly lz xlo xhi ylo yhi zlo zhi vol dt time cpu tpcpu spcpu cpuremain

# run info
timestep ${ts}
timestep 0.1
thermo 200

# fix

fix 1 all momentum 1000 linear 1 1 1 angular
variable T equal ${temp}
variable T equal 300
fix 2 all nvt temp ${T} 370000 100.0
fix 2 all nvt temp 300 370000 100.0

run 100000
Generated 0 of 1 mixed pair_coeff terms from geometric mixing rule
Unused restart file global fix info:
  fix style: npt, fix ID: 5
Neighbor list info ...
  update every 1 steps, delay 0 steps, check yes
  max neighbors/atom: 2000, page size: 100000
  master list distance cutoff = 117.92
  ghost atom cutoff = 117.92
  binsize = 58.96, bins = 16 16 16
  1 neighbor lists, perpetual/occasional/extra = 1 0 0
  (1) pair table, perpetual
      attributes: half, newton on
      pair build: half/bin/atomonly/newton
      stencil: half/bin/3d
      bin: standard
Per MPI rank memory allocation (min/avg/max) = 3.133 | 3.133 | 3.133 Mbytes
   Step          Temp          Press          PotEng        Density         KinEng         TotEng           Lx             Ly             Lz            Xlo            Xhi            Ylo            Yhi            Zlo            Zhi           Volume           Dt            Time           CPU           T/CPU          S/CPU         CPULeft    
  29405000   309.65138      2.8358715     -36433010       0.77446224     922.08894     -36432088       919.00004      919.00004      919.00004      2040.5         2959.5         2040.5         2959.5         2040.5         2959.5         7.7615165e+08  0.1            13865000       0              0              0              0            
  29405200   355.79441      2.656391      -36433133       0.77446224     1059.495      -36432073       919.00004      919.00004      919.00004      2040.5         2959.5         2040.5         2959.5         2040.5         2959.5         7.7615165e+08  0.1            13865020       0.031962601    625.71605      6256.9947      15.950572    
  29405400   418.82497      2.4650785     -36433266       0.77446224     1247.1892     -36432018       919.00004      919.00004      919.00004      2040.5         2959.5         2040.5         2959.5         2040.5         2959.5         7.7615165e+08  0.1            13865040       0.063839217    627.42169      6274.213       15.896543    
  29405600   488.5592       2.2585451     -36433409       0.77446224     1454.8459     -36431954       919.00004      919.00004      919.00004      2040.5         2959.5         2040.5         2959.5         2040.5         2959.5         7.7615165e+08  0.1            13865060       0.095751762    626.71292      6267.1296      15.863253    
  29405800   572.14384      2.0373576     -36433565       0.77446224     1703.7467     -36431861       919.00004      919.00004      919.00004      2040.5         2959.5         2040.5         2959.5         2040.5         2959.5         7.7615165e+08  0.1            13865080       0.12774697     625.09189      6250.9275      15.840918    
  29406000   670.10926      1.8001341     -36433733       0.77446224     1995.471      -36431737       919.00004      919.00004      919.00004      2040.5         2959.5         2040.5         2959.5         2040.5         2959.5         7.7615165e+08  0.1            13865100       0.15975044     624.93331      6249.3266      15.815523    
  29406200   783.13928      1.5461469     -36433914       0.77446224     2332.0551     -36431582       919.00004      919.00004      919.00004      2040.5         2959.5         2040.5         2959.5         2040.5         2959.5         7.7615165e+08  0.1            13865120       0.19167549     626.47091      6264.698       15.781463    
  29406400   913.04578      1.2748001     -36434110       0.77446224     2718.8944     -36431391       919.00004      919.00004      919.00004      2040.5         2959.5         2040.5         2959.5         2040.5         2959.5         7.7615165e+08  0.1            13865140       0.22356519     627.1625       6271.6159      15.745534    
  29406600   1061.7609      0.98564847    -36434321       0.77446224     3161.7426     -36431160       919.00004      919.00004      919.00004      2040.5         2959.5         2040.5         2959.5         2040.5         2959.5         7.7615165e+08  0.1            13865160       0.26106068     533.39442      5333.9465      16.055383    
  29406800   1231.4806      0.67828438    -36434549       0.77446224     3667.139      -36430882       919.00004      919.00004      919.00004      2040.5         2959.5         2040.5         2959.5         2040.5         2959.5         7.7615165e+08  0.1            13865180       0.29678832     559.79191      5597.9216      16.191581    
  29407000   1424.6077      0.35227558    -36434793       0.77446224     4242.2385     -36430551       919.00004      919.00004      919.00004      2040.5         2959.5         2040.5         2959.5         2040.5         2959.5         7.7615165e+08  0.1            13865200       0.32875434     625.66489      6256.6512      16.109075    
  29407200   1643.9277      0.0072679804  -36435056       0.77446224     4895.336      -36430161       919.00004      919.00004      919.00004      2040.5         2959.5         2040.5         2959.5         2040.5         2959.5         7.7615165e+08  0.1            13865220       0.36059611     628.10699      6281.0839      16.030231    
  29407400   1892.396      -0.357382      -36435337       0.77446224     5635.2322     -36429702       919.00004      919.00004      919.00004      2040.5         2959.5         2040.5         2959.5         2040.5         2959.5         7.7615165e+08  0.1            13865240       0.3925229      626.43189      6264.3122      15.962688    
  29407600   2173.2753     -0.74236401    -36435639       0.77446224     6471.6428     -36429167       919.00004      919.00004      919.00004      2040.5         2959.5         2040.5         2959.5         2040.5         2959.5         7.7615165e+08  0.1            13865260       0.42445833     626.2646       6262.6451      15.900944    
  29407800   2490.1134     -1.1485581     -36435961       0.77446224     7415.1325     -36428546       919.00004      919.00004      919.00004      2040.5         2959.5         2040.5         2959.5         2040.5         2959.5         7.7615165e+08  0.1            13865280       0.45659988     622.24724      6222.4637      15.850619    
  29408000   2846.6956     -1.5769751     -36436305       0.77446224     8476.9733     -36427828       919.00004      919.00004      919.00004      2040.5         2959.5         2040.5         2959.5         2040.5         2959.5         7.7615165e+08  0.1            13865300       0.48863321     624.35029      6243.5079      15.799211    
  29408200   3247.2112     -2.0289586     -36436672       0.77446224     9669.6406     -36427003       919.00004      919.00004      919.00004      2040.5         2959.5         2040.5         2959.5         2040.5         2959.5         7.7615165e+08  0.1            13865320       0.52087445     620.32103      6203.2327      15.756519    
  29408400   3696.0144     -2.5071438     -36437063       0.77446224     11006.1       -36426057       919.00004      919.00004      919.00004      2040.5         2959.5         2040.5         2959.5         2040.5         2959.5         7.7615165e+08  0.1            13865340       0.55283046     625.86111      6258.6036      15.70695     
  29408600   4197.7338     -2.8404465     -36430102       0.77446224     12500.134     -36417602       919.00004      919.00004      919.00004      2040.5         2959.5         2040.5         2959.5         2040.5         2959.5         7.7615165e+08  0.1            13865360       0.58550994     612.00424      6120.0289      15.67872     
  29408800   4757.2661     -3.3767598     -36430544       0.77446224     14166.326     -36416378       919.00004      919.00004      919.00004      2040.5         2959.5         2040.5         2959.5         2040.5         2959.5         7.7615165e+08  0.1            13865380       0.61753625     624.487        6244.8523      15.633479    
  29409000   5379.463      -3.9431921     -36431014       0.77446224     16019.122     -36414995       919.00004      919.00004      919.00004      2040.5         2959.5         2040.5         2959.5         2040.5         2959.5         7.7615165e+08  0.1            13865400       0.64953287     625.06739      6250.6856      15.588844    
  29409200   6069.4225     -4.5407604     -36431512       0.77446224     18073.704     -36413438       919.00004      919.00004      919.00004      2040.5         2959.5         2040.5         2959.5         2040.5         2959.5         7.7615165e+08  0.1            13865420       0.68150609     625.52231      6255.236       15.54488     
  29409400   6832.0931     -5.2421868     -36433934       0.77446224     20344.807     -36413589       919.00004      919.00004      919.00004      2040.5         2959.5         2040.5         2959.5         2040.5         2959.5         7.7615165e+08  0.1            13865440       0.71340176     627.04469      6270.4471      15.500322    
  29409600   7672.2983     -5.9010374     -36434491       0.77446224     22846.794     -36411645       919.00004      919.00004      919.00004      2040.5         2959.5         2040.5         2959.5         2040.5         2959.5         7.7615165e+08  0.1            13865460       0.74531853     626.6312       6266.3039      15.457303    
  29409800   8594.4179     -6.5932906     -36435081       0.77446224     25592.709     -36409488       919.00004      919.00004      919.00004      2040.5         2959.5         2040.5         2959.5         2040.5         2959.5         7.7615165e+08  0.1            13865480       0.77722472     626.83164      6268.3233      15.415005    
  29410000   9602.2465     -7.3233036     -36435702       0.77446224     28593.85      -36407108       919.00004      919.00004      919.00004      2040.5         2959.5         2040.5         2959.5         2040.5         2959.5         7.7615165e+08  0.1            13865500       0.80923469     624.8099       6248.0961      15.375503    
  29410200   10698.871     -8.0926636     -36436356       0.77446224     31859.411     -36404497       919.00004      919.00004      919.00004      2040.5         2959.5         2040.5         2959.5         2040.5         2959.5         7.7615165e+08  0.1            13865520       0.84120069     625.66518      6256.6487      15.335778    
  29410400   11886.143     -8.9014723     -36437044       0.77446224     35394.904     -36401649       919.00004      919.00004      919.00004      2040.5         2959.5         2040.5         2959.5         2040.5         2959.5         7.7615165e+08  0.1            13865540       0.87315707     625.84985      6258.4998      15.29646     
  29410600   13164.463     -9.7472645     -36437767       0.77446224     39201.524     -36398566       919.00004      919.00004      919.00004      2040.5         2959.5         2040.5         2959.5         2040.5         2959.5         7.7615165e+08  0.1            13865560       0.90555531     617.31882      6173.1897      15.265114    
  29410800   14532.366     -10.620245     -36438525       0.77446224     43274.906     -36395250       919.00004      919.00004      919.00004      2040.5         2959.5         2040.5         2959.5         2040.5         2959.5         7.7615165e+08  0.1            13865580       0.93747478     626.57863      6265.7894      15.225919    
  29411000   15986.044     -11.511319     -36439317       0.77446224     47603.71      -36391713       919.00004      919.00004      919.00004      2040.5         2959.5         2040.5         2959.5         2040.5         2959.5         7.7615165e+08  0.1            13865600       0.9704211      607.04796      6070.4761      15.203298    
  29411200   17519.067     -12.409497     -36440144       0.77446224     52168.789     -36387976       919.00004      919.00004      919.00004      2040.5         2959.5         2040.5         2959.5         2040.5         2959.5         7.7615165e+08  0.1            13865620       1.0023402      626.58304      6265.8245      15.164473    
  29411400   19121.695     -13.315527     -36441006       0.77446224     56941.141     -36384065       919.00004      919.00004      919.00004      2040.5         2959.5         2040.5         2959.5         2040.5         2959.5         7.7615165e+08  0.1            13865640       1.0342507      626.7532       6267.5389      15.12595     
  29411600   20780.611     -14.238379     -36441901       0.77446224     61881.111     -36380020       919.00004      919.00004      919.00004      2040.5         2959.5         2040.5         2959.5         2040.5         2959.5         7.7615165e+08  0.1            13865660       1.0661622      626.73427      6267.3453      15.087842    
  29411800   22478.536     -15.185185     -36442828       0.77446224     66937.242     -36375891       919.00004      919.00004      919.00004      2040.5         2959.5         2040.5         2959.5         2040.5         2959.5         7.7615165e+08  0.1            13865680       1.0981507      625.22426      6252.2387      15.051155    
  29412000   24193.946     -16.170252     -36443786       0.77446224     72045.44      -36371740       919.00004      919.00004      919.00004      2040.5         2959.5         2040.5         2959.5         2040.5         2959.5         7.7615165e+08  0.1            13865700       1.1300791      626.40161      6264.0218      15.013937    
  29412200   25901.171     -17.19799      -36444772       0.77446224     77129.264     -36367643       919.00004      919.00004      919.00004      2040.5         2959.5         2040.5         2959.5         2040.5         2959.5         7.7615165e+08  0.1            13865720       1.1620025      626.50068      6264.9994      14.97695     
  29412400   27570.284     -18.266983     -36445786       0.77446224     82099.598     -36363686       919.00004      919.00004      919.00004      2040.5         2959.5         2040.5         2959.5         2040.5         2959.5         7.7615165e+08  0.1            13865740       1.1939732      625.57353      6255.7375      14.940827    
  29412600   29167.688     -19.370835     -36446824       0.77446224     86856.393     -36359967       919.00004      919.00004      919.00004      2040.5         2959.5         2040.5         2959.5         2040.5         2959.5         7.7615165e+08  0.1            13865760       1.2259245      625.95109      6259.5231      14.904687    
  29412800   30657.164     -20.418266     -36442400       0.77446224     91291.798     -36351109       919.00004      919.00004      919.00004      2040.5         2959.5         2040.5         2959.5         2040.5         2959.5         7.7615165e+08  0.1            13865780       1.2578094      627.25518      6272.5445      14.867978    
  29413000   32001.339     -21.472053     -36436101       0.77446224     95294.522     -36340806       919.00004      919.00004      919.00004      2040.5         2959.5         2040.5         2959.5         2040.5         2959.5         7.7615165e+08  0.1            13865800       1.2898478      624.24891      6242.4786      14.833277    
  29413200   33164.926     -22.808779     -36437194       0.77446224     98759.487     -36338435       919.00004      919.00004      919.00004      2040.5         2959.5         2040.5         2959.5         2040.5         2959.5         7.7615165e+08  0.1            13865820       1.321715       627.60844      6276.0779      14.796786    
  29413400   34118.087     -24.260876     -36438299       0.77446224     101597.84     -36336701       919.00004      919.00004      919.00004      2040.5         2959.5         2040.5         2959.5         2040.5         2959.5         7.7615165e+08  0.1            13865840       1.3536132      626.99457      6269.9642      14.760853    
  29413600   34842.067     -25.800733     -36439411       0.77446224     103753.72     -36335657       919.00004      919.00004      919.00004      2040.5         2959.5         2040.5         2959.5         2040.5         2959.5         7.7615165e+08  0.1            13865860       1.3855717      625.81017      6258.1054      14.72575     
  29413800   35334.418     -27.378168     -36440525       0.77446224     105219.86     -36335306       919.00004      919.00004      919.00004      2040.5         2959.5         2040.5         2959.5         2040.5         2959.5         7.7615165e+08  0.1            13865880       1.4175026      626.35394      6263.5292      14.690504    
  29414000   35613.129     -28.964345     -36441639       0.77446224     106049.82     -36335589       919.00004      919.00004      919.00004      2040.5         2959.5         2040.5         2959.5         2040.5         2959.5         7.7615165e+08  0.1            13865900       1.4494605      625.82063      6258.1916      14.655681    
  29414200   35717.539     -30.565319     -36442748       0.77446224     106360.73     -36336387       919.00004      919.00004      919.00004      2040.5         2959.5         2040.5         2959.5         2040.5         2959.5         7.7615165e+08  0.1            13865920       1.4812803      628.54203      6285.4456      14.619614    
  29414400   35703.918     -32.19589      -36443851       0.77446224     106320.17     -36337531       919.00004      919.00004      919.00004      2040.5         2959.5         2040.5         2959.5         2040.5         2959.5         7.7615165e+08  0.1            13865940       1.5131171      628.20398      6282.0327      14.583894    
  29414600   35637.491     -33.847467     -36444947       0.77446224     106122.36     -36338824       919.00004      919.00004      919.00004      2040.5         2959.5         2040.5         2959.5         2040.5         2959.5         7.7615165e+08  0.1            13865960       1.5450438      626.43355      6264.3363      14.549183    
  29414800   35583.814     -35.492404     -36446035       0.77446224     105962.52     -36340072       919.00004      919.00004      919.00004      2040.5         2959.5         2040.5         2959.5         2040.5         2959.5         7.7615165e+08  0.1            13865980       1.5769274      627.28345      6272.8343      14.514188    
  29415000   35602.754     -37.104114     -36447115       0.77446224     106018.92     -36341096       919.00004      919.00004      919.00004      2040.5         2959.5         2040.5         2959.5         2040.5         2959.5         7.7615165e+08  0.1            13866000       1.6088477      626.5599       6265.5951      14.479649    
  29415200   35746.016     -38.691988     -36448189       0.77446224     106445.53     -36341744       919.00004      919.00004      919.00004      2040.5         2959.5         2040.5         2959.5         2040.5         2959.5         7.7615165e+08  0.1            13866020       1.6407353      627.20394      6272.0319      14.444925    
  29415400   36056.201     -40.273701     -36449259       0.77446224     107369.21     -36341890       919.00004      919.00004      919.00004      2040.5         2959.5         2040.5         2959.5         2040.5         2959.5         7.7615165e+08  0.1            13866040       1.672662       626.43485      6264.364       14.410645    
  29415600   36566.061     -41.850936     -36450327       0.77446224     108887.49     -36341439       919.00004      919.00004      919.00004      2040.5         2959.5         2040.5         2959.5         2040.5         2959.5         7.7615165e+08  0.1            13866060       1.7045165      627.85385      6278.5369      14.375846    
  29415800   37296.218     -43.386237     -36451396       0.77446224     111061.77     -36340334       919.00004      919.00004      919.00004      2040.5         2959.5         2040.5         2959.5         2040.5         2959.5         7.7615165e+08  0.1            13866080       1.7364066      627.15544      6271.5524      14.34145     
  29416000   38251.632     -44.852437     -36452469       0.77446224     113906.83     -36338562       919.00004      919.00004      919.00004      2040.5         2959.5         2040.5         2959.5         2040.5         2959.5         7.7615165e+08  0.1            13866100       1.7683082      626.92704      6269.2745      14.307238    
  29416200   39418.71      -46.256476     -36453549       0.77446224     117382.19     -36336167       919.00004      919.00004      919.00004      2040.5         2959.5         2040.5         2959.5         2040.5         2959.5         7.7615165e+08  0.1            13866120       1.8001907      627.30251      6273.0216      14.272958    
  29416400   40764.539     -47.607585     -36454639       0.77446224     121389.84     -36333249       919.00004      919.00004      919.00004      2040.5         2959.5         2040.5         2959.5         2040.5         2959.5         7.7615165e+08  0.1            13866140       1.8333526      603.09875      6030.9793      14.248707    
  29416600   42240.164     -48.900416     -36455739       0.77446224     125784        -36329955       919.00004      919.00004      919.00004      2040.5         2959.5         2040.5         2959.5         2040.5         2959.5         7.7615165e+08  0.1            13866160       1.865194       628.11618      6281.1668      14.214082    
  29416800   43786.309     -50.284181     -36464228       0.77446224     130388.15     -36333840       919.00004      919.00004      919.00004      2040.5         2959.5         2040.5         2959.5         2040.5         2959.5         7.7615165e+08  0.1            13866180       1.8971389      626.07791      6260.7762      14.180326    
  29417000   45339.344     -51.449669     -36465349       0.77446224     135012.82     -36330337       919.00004      919.00004      919.00004      2040.5         2959.5         2040.5         2959.5         2040.5         2959.5         7.7615165e+08  0.1            13866200       1.9290458      626.82335      6268.239       14.146352    
  29417200   46836.664     -52.634386     -36466479       0.77446224     139471.59     -36327008       919.00004      919.00004      919.00004      2040.5         2959.5         2040.5         2959.5         2040.5         2959.5         7.7615165e+08  0.1            13866220       1.9608579      628.6911       6286.9089      14.111764    
  29417400   48220         -53.881012     -36467616       0.77446224     143590.92     -36324025       919.00004      919.00004      919.00004      2040.5         2959.5         2040.5         2959.5         2040.5         2959.5         7.7615165e+08  0.1            13866240       1.9936819      609.31102      6093.1095      14.084414    
  29417600   49438.699     -55.436778     -36476136       0.77446224     147220        -36328916       919.00004      919.00004      919.00004      2040.5         2959.5         2040.5         2959.5         2040.5         2959.5         7.7615165e+08  0.1            13866260       2.0257366      623.93348      6239.3253      14.051554    
  29417800   50452.441     -56.823146     -36469903       0.77446224     150238.75     -36319665       919.00004      919.00004      919.00004      2040.5         2959.5         2040.5         2959.5         2040.5         2959.5         7.7615165e+08  0.1            13866280       2.0576745      626.2166       6262.1741      14.017922    
  29418000   51235.84      -58.686995     -36478428       0.77446224     152571.58     -36325856       919.00004      919.00004      919.00004      2040.5         2959.5         2040.5         2959.5         2040.5         2959.5         7.7615165e+08  0.1            13866300       2.089628       625.90882      6259.0888      13.984448    
  29418200   51780.506     -60.411978     -36479572       0.77446224     154193.5      -36325378       919.00004      919.00004      919.00004      2040.5         2959.5         2040.5         2959.5         2040.5         2959.5         7.7615165e+08  0.1            13866320       2.1215107      627.29822      6272.983       13.950555    
  29418400   52099.52      -62.15849      -36480710       0.77446224     155143.47     -36325566       919.00004      919.00004      919.00004      2040.5         2959.5         2040.5         2959.5         2040.5         2959.5         7.7615165e+08  0.1            13866340       2.1534216      626.74729      6267.471       13.916903    
  29418600   52227.504     -63.902541     -36481840       0.77446224     155524.59     -36326315       919.00004      919.00004      919.00004      2040.5         2959.5         2040.5         2959.5         2040.5         2959.5         7.7615165e+08  0.1            13866360       2.185327       626.85089      6268.5137      13.883268    
  29418800   52217.096     -65.358309     -36475584       0.77446224     155493.6      -36320091       919.00004      919.00004      919.00004      2040.5         2959.5         2040.5         2959.5         2040.5         2959.5         7.7615165e+08  0.1            13866380       2.2171901      627.68652      6276.854       13.84942     
  29419000   52131.103     -66.813561     -36476696       0.77446224     155237.52     -36321458       919.00004      919.00004      919.00004      2040.5         2959.5         2040.5         2959.5         2040.5         2959.5         7.7615165e+08  0.1            13866400       2.2490709      627.33712      6273.3815      13.815735    
  29419200   52036.677     -68.209995     -36477794       0.77446224     154956.34     -36322838       919.00004      919.00004      919.00004      2040.5         2959.5         2040.5         2959.5         2040.5         2959.5         7.7615165e+08  0.1            13866420       2.2809846      626.68867      6266.8861      13.782301    
  29419400   51998.997     -69.623838     -36476986       0.77446224     154844.13     -36322141       919.00004      919.00004      919.00004      2040.5         2959.5         2040.5         2959.5         2040.5         2959.5         7.7615165e+08  0.1            13866440       2.3127805      629.01324      6290.0998      13.748209    
  29419600   52076.75      -71.164156     -36478063       0.77446224     155075.67     -36322987       919.00004      919.00004      919.00004      2040.5         2959.5         2040.5         2959.5         2040.5         2959.5         7.7615165e+08  0.1            13866460       2.3445913      628.71656      6287.199       13.714266    
  29419800   52318.789     -72.516347     -36471754       0.77446224     155796.42     -36315957       919.00004      919.00004      919.00004      2040.5         2959.5         2040.5         2959.5         2040.5         2959.5         7.7615165e+08  0.1            13866480       2.3764676      627.42108      6274.2086      13.68076     
  29420000   52762.277     -73.995948     -36472815       0.77446224     157117.05     -36315698       919.00004      919.00004      919.00004      2040.5         2959.5         2040.5         2959.5         2040.5         2959.5         7.7615165e+08  0.1            13866500       2.4083846      626.63059      6266.3214      13.647525    
  29420200   53431.564     -75.583894     -36481248       0.77446224     159110.07     -36322137       919.00004      919.00004      919.00004      2040.5         2959.5         2040.5         2959.5         2040.5         2959.5         7.7615165e+08  0.1            13866520       2.4402013      628.60058      6286.0025      13.613767    
  29420400   54335.955     -77.143465     -36489676       0.77446224     161803.2      -36327872       919.00004      919.00004      919.00004      2040.5         2959.5         2040.5         2959.5         2040.5         2959.5         7.7615165e+08  0.1            13866540       2.4719941      629.0737       6290.7315      13.579927    
  29420600   55467.221     -78.521113     -36490724       0.77446224     165171.91     -36325552       919.00004      919.00004      919.00004      2040.5         2959.5         2040.5         2959.5         2040.5         2959.5         7.7615165e+08  0.1            13866560       2.5038494      627.8382       6278.3203      13.546481    
  29420800   56797.841     -79.833864     -36491774       0.77446224     169134.27     -36322640       919.00004      919.00004      919.00004      2040.5         2959.5         2040.5         2959.5         2040.5         2959.5         7.7615165e+08  0.1            13866580       2.53559        630.10771      6301.1482      13.512459    
  29421000   58282.566     -81.062181     -36492827       0.77446224     173555.53     -36319272       919.00004      919.00004      919.00004      2040.5         2959.5         2040.5         2959.5         2040.5         2959.5         7.7615165e+08  0.1            13866600       2.5675961      624.88194      6248.7889      13.479891    
  29421200   59862.718     -82.406638     -36501261       0.77446224     178260.95     -36323000       919.00004      919.00004      919.00004      2040.5         2959.5         2040.5         2959.5         2040.5         2959.5         7.7615165e+08  0.1            13866620       2.5995474      625.94549      6259.4804      13.447054    
  29421400   61471.782     -83.745571     -36509697       0.77446224     183052.47     -36326645       919.00004      919.00004      919.00004      2040.5         2959.5         2040.5         2959.5         2040.5         2959.5         7.7615165e+08  0.1            13866640       2.6313817      628.25903      6282.5921      13.41364     
  29421600   63040.755     -85.048541     -36518136       0.77446224     187724.61     -36330411       919.00004      919.00004      919.00004      2040.5         2959.5         2040.5         2959.5         2040.5         2959.5         7.7615165e+08  0.1            13866660       2.6632083      628.40527      6284.0403      13.380226    
  29421800   64503.107     -86.12911      -36519195       0.77446224     192079.24     -36327116       919.00004      919.00004      919.00004      2040.5         2959.5         2040.5         2959.5         2040.5         2959.5         7.7615165e+08  0.1            13866680       2.6950509      628.08971      6280.904       13.34693     
  29422000   65799.677     -87.243007     -36519883       0.77446224     195940.2      -36323943       919.00004      919.00004      919.00004      2040.5         2959.5         2040.5         2959.5         2040.5         2959.5         7.7615165e+08  0.1            13866700       2.7277514      611.60957      6116.0916      13.317856    
  29422200   66883.859     -88.713412     -36522829       0.77446224     199168.71     -36323660       919.00004      919.00004      919.00004      2040.5         2959.5         2040.5         2959.5         2040.5         2959.5         7.7615165e+08  0.1            13866720       2.7596006      627.96121      6279.6141      13.284599    
  29422400   67724.768     -90.279826     -36523876       0.77446224     201672.79     -36322203       919.00004      919.00004      919.00004      2040.5         2959.5         2040.5         2959.5         2040.5         2959.5         7.7615165e+08  0.1            13866740       2.7914709      627.5441       6275.4387      13.251476    
  29422600   68310.071     -91.891044     -36524916       0.77446224     203415.73     -36321500       919.00004      919.00004      919.00004      2040.5         2959.5         2040.5         2959.5         2040.5         2959.5         7.7615165e+08  0.1            13866760       2.8233652      627.07159      6270.7287      13.218492    
  29422800   68648.933     -93.291724     -36518568       0.77446224     204424.8      -36314143       919.00004      919.00004      919.00004      2040.5         2959.5         2040.5         2959.5         2040.5         2959.5         7.7615165e+08  0.1            13866780       2.8552242      627.76188      6277.6075      13.185372    
  29423000   68772.939     -94.866655     -36519584       0.77446224     204794.07     -36314790       919.00004      919.00004      919.00004      2040.5         2959.5         2040.5         2959.5         2040.5         2959.5         7.7615165e+08  0.1            13866800       2.8875136      619.39807      6193.9835      13.154239    
  29423200   68733.759     -96.483981     -36520585       0.77446224     204677.4      -36315907       919.00004      919.00004      919.00004      2040.5         2959.5         2040.5         2959.5         2040.5         2959.5         7.7615165e+08  0.1            13866820       2.9194262      626.71571      6267.1658      13.121387    
  29423400   68597.006     -97.908287     -36514193       0.77446224     204270.17     -36309923       919.00004      919.00004      919.00004      2040.5         2959.5         2040.5         2959.5         2040.5         2959.5         7.7615165e+08  0.1            13866840       2.9512336      628.78321      6287.8307      13.088089    
  29423600   68434.926     -99.394564     -36513271       0.77446224     203787.53     -36309483       919.00004      919.00004      919.00004      2040.5         2959.5         2040.5         2959.5         2040.5         2959.5         7.7615165e+08  0.1            13866860       2.9841597      607.42171      6074.1953      13.059719    
  29423800   68318.83      -100.8139      -36514230       0.77446224     203441.81     -36310788       919.00004      919.00004      919.00004      2040.5         2959.5         2040.5         2959.5         2040.5         2959.5         7.7615165e+08  0.1            13866880       3.0160085      627.96813      6279.691       13.026599    
  29424000   68313.513     -102.04451     -36515176       0.77446224     203425.98     -36311750       919.00004      919.00004      919.00004      2040.5         2959.5         2040.5         2959.5         2040.5         2959.5         7.7615165e+08  0.1            13866900       3.047872       627.67499      6276.7484      12.993569    
  29424200   68474.607     -103.10815     -36514213       0.77446224     203905.69     -36310307       919.00004      919.00004      919.00004      2040.5         2959.5         2040.5         2959.5         2040.5         2959.5         7.7615165e+08  0.1            13866920       3.0813635      597.16577      5971.6548      12.967415    
  29424400   68845.836     -104.25557     -36515132       0.77446224     205011.14     -36310121       919.00004      919.00004      919.00004      2040.5         2959.5         2040.5         2959.5         2040.5         2959.5         7.7615165e+08  0.1            13866940       3.1138894      614.89781      6148.997       12.937096    
  29424600   69457.066     -105.44244     -36516040       0.77446224     206831.28     -36309209       919.00004      919.00004      919.00004      2040.5         2959.5         2040.5         2959.5         2040.5         2959.5         7.7615165e+08  0.1            13866960       3.1457661      627.41677      6274.1484      12.90407     
  29424800   70321.514     -106.81133     -36524318       0.77446224     209405.46     -36314913       919.00004      919.00004      919.00004      2040.5         2959.5         2040.5         2959.5         2040.5         2959.5         7.7615165e+08  0.1            13866980       3.1776474      627.3266       6273.2689      12.871086    
  29425000   71433.214     -108.26665     -36534484       0.77446224     212715.91     -36321768       919.00004      919.00004      919.00004      2040.5         2959.5         2040.5         2959.5         2040.5         2959.5         7.7615165e+08  0.1            13867000       3.2095302      627.29746      6272.9769      12.838129    
  29425200   72766.309     -109.50723     -36535371       0.77446224     216685.64     -36318685       919.00004      919.00004      919.00004      2040.5         2959.5         2040.5         2959.5         2040.5         2959.5         7.7615165e+08  0.1            13867020       3.2414008      627.53507      6275.3499      12.805147    
  29425400   74276.146     -110.62664     -36528876       0.77446224     221181.68     -36307694       919.00004      919.00004      919.00004      2040.5         2959.5         2040.5         2959.5         2040.5         2959.5         7.7615165e+08  0.1            13867040       3.2732535      627.89302      6278.9426      12.772115    
  29425600   75902.41      -111.93915     -36529755       0.77446224     226024.41     -36303731       919.00004      919.00004      919.00004      2040.5         2959.5         2040.5         2959.5         2040.5         2959.5         7.7615165e+08  0.1            13867060       3.3050698      628.60803      6286.0746      12.738967    
  29425800   77574.556     -113.12856     -36530631       0.77446224     231003.78     -36299627       919.00004      919.00004      919.00004      2040.5         2959.5         2040.5         2959.5         2040.5         2959.5         7.7615165e+08  0.1            13867080       3.3369444      627.4597       6274.5966      12.706066    
  29426000   79217.668     -114.16881     -36531499       0.77446224     235896.69     -36295602       919.00004      919.00004      919.00004      2040.5         2959.5         2040.5         2959.5         2040.5         2959.5         7.7615165e+08  0.1            13867100       3.3688374      627.09538      6270.9656      12.673253    
  29426200   80759.776     -115.24838     -36534254       0.77446224     240488.82     -36293765       919.00004      919.00004      919.00004      2040.5         2959.5         2040.5         2959.5         2040.5         2959.5         7.7615165e+08  0.1            13867120       3.4007369      626.96854      6269.6707      12.640483    
  29426400   82136.222     -116.14977     -36535106       0.77446224     244587.64     -36290519       919.00004      919.00004      919.00004      2040.5         2959.5         2040.5         2959.5         2040.5         2959.5         7.7615165e+08  0.1            13867140       3.4326432      626.83693      6268.3579      12.607754    
  29426600   83293.731     -117.18611     -36539737       0.77446224     248034.51     -36291703       919.00004      919.00004      919.00004      2040.5         2959.5         2040.5         2959.5         2040.5         2959.5         7.7615165e+08  0.1            13867160       3.4644649      628.50344      6285.0454      12.574732    
  29426800   84195.946     -118.28775     -36540568       0.77446224     250721.15     -36289846       919.00004      919.00004      919.00004      2040.5         2959.5         2040.5         2959.5         2040.5         2959.5         7.7615165e+08  0.1            13867180       3.4966604      621.20023      6212.0054      12.543075    
  29427000   84826.814     -119.7966      -36548765       0.77446224     252599.77     -36296166       919.00004      919.00004      919.00004      2040.5         2959.5         2040.5         2959.5         2040.5         2959.5         7.7615165e+08  0.1            13867200       3.5293235      612.3138       6123.1179      12.513064    
  29427200   85192.395     -121.09184     -36549574       0.77446224     253688.4      -36295885       919.00004      919.00004      919.00004      2040.5         2959.5         2040.5         2959.5         2040.5         2959.5         7.7615165e+08  0.1            13867220       3.5612281      626.86932      6268.6844      12.480348    
  29427400   85321.119     -122.47378     -36557744       0.77446224     254071.72     -36303672       919.00004      919.00004      919.00004      2040.5         2959.5         2040.5         2959.5         2040.5         2959.5         7.7615165e+08  0.1            13867240       3.5938994      612.15779      6121.5991      12.450302    
  29427600   85263.288     -123.73584     -36558519       0.77446224     253899.51     -36304619       919.00004      919.00004      919.00004      2040.5         2959.5         2040.5         2959.5         2040.5         2959.5         7.7615165e+08  0.1            13867260       3.6257719      627.50167      6275.0215      12.417474    
  29427800   85085.243     -125.16958     -36559276       0.77446224     253369.33     -36305906       919.00004      919.00004      919.00004      2040.5         2959.5         2040.5         2959.5         2040.5         2959.5         7.7615165e+08  0.1            13867280       3.6576915      626.57474      6265.7374      12.384823    
  29428000   84862.426     -126.45675     -36552638       0.77446224     252705.81     -36299932       919.00004      919.00004      919.00004      2040.5         2959.5         2040.5         2959.5         2040.5         2959.5         7.7615165e+08  0.1            13867300       3.6896642      625.5328       6255.3299      12.352361    
  29428200   84671.519     -127.80628     -36553362       0.77446224     252137.33     -36301225       919.00004      919.00004      919.00004      2040.5         2959.5         2040.5         2959.5         2040.5         2959.5         7.7615165e+08  0.1            13867320       3.7215663      626.91825      6269.1882      12.319675    
  29428400   84584.014     -128.96665     -36554069       0.77446224     251876.75     -36302192       919.00004      919.00004      919.00004      2040.5         2959.5         2040.5         2959.5         2040.5         2959.5         7.7615165e+08  0.1            13867340       3.7534684      626.91696      6269.1623      12.287002    
  29428600   84662.24      -129.92939     -36552862       0.77446224     252109.69     -36300753       919.00004      919.00004      919.00004      2040.5         2959.5         2040.5         2959.5         2040.5         2959.5         7.7615165e+08  0.1            13867360       3.7853904      626.525        6265.2477      12.254407    
  29428800   84956.805     -131.12552     -36560912       0.77446224     252986.86     -36307925       919.00004      919.00004      919.00004      2040.5         2959.5         2040.5         2959.5         2040.5         2959.5         7.7615165e+08  0.1            13867380       3.8173235      626.31328      6263.103       12.221858    
  29429000   85503.494     -132.1816      -36561569       0.77446224     254614.8      -36306955       919.00004      919.00004      919.00004      2040.5         2959.5         2040.5         2959.5         2040.5         2959.5         7.7615165e+08  0.1            13867400       3.8493065      625.33197      6253.3579      12.189477    
  29429200   86319.81      -133.22353     -36562214       0.77446224     257045.65     -36305169       919.00004      919.00004      919.00004      2040.5         2959.5         2040.5         2959.5         2040.5         2959.5         7.7615165e+08  0.1            13867420       3.8811957      627.17113      6271.7197      12.15681     
  29429400   87403.199     -134.27814     -36562848       0.77446224     260271.8      -36302576       919.00004      919.00004      919.00004      2040.5         2959.5         2040.5         2959.5         2040.5         2959.5         7.7615165e+08  0.1            13867440       3.9131172      626.53587      6265.3544      12.124255    
  29429600   88729.892     -135.54649     -36570850       0.77446224     264222.47     -36306628       919.00004      919.00004      919.00004      2040.5         2959.5         2040.5         2959.5         2040.5         2959.5         7.7615165e+08  0.1            13867460       3.9450018      627.26309      6272.5892      12.091598    
  29429800   90255.346     -136.58459     -36571466       0.77446224     268765.01     -36302701       919.00004      919.00004      919.00004      2040.5         2959.5         2040.5         2959.5         2040.5         2959.5         7.7615165e+08  0.1            13867480       3.9780088      605.93222      6059.351       12.062356    
  29430000   91917.525     -137.63716     -36579451       0.77446224     273714.69     -36305736       919.00004      919.00004      919.00004      2040.5         2959.5         2040.5         2959.5         2040.5         2959.5         7.7615165e+08  0.1            13867500       4.0099878      625.40939      6254.1082      12.02997     
  29430200   93643.104     -138.49241     -36587426       0.77446224     278853.17     -36308573       919.00004      919.00004      919.00004      2040.5         2959.5         2040.5         2959.5         2040.5         2959.5         7.7615165e+08  0.1            13867520       4.0419257      626.21584      6262.1576      11.997468    
  29430400   95352.583     -138.98644     -36588011       0.77446224     283943.71     -36304068       919.00004      919.00004      919.00004      2040.5         2959.5         2040.5         2959.5         2040.5         2959.5         7.7615165e+08  0.1            13867540       4.0738466      626.5474       6265.4638      11.964926    
  29430600   96968.199     -139.25552     -36581203       0.77446224     288754.74     -36292448       919.00004      919.00004      919.00004      2040.5         2959.5         2040.5         2959.5         2040.5         2959.5         7.7615165e+08  0.1            13867560       4.1057121      627.63851      6276.3834      11.932233    
  29430800   98420.128     -139.74865     -36581758       0.77446224     293078.33     -36288680       919.00004      919.00004      919.00004      2040.5         2959.5         2040.5         2959.5         2040.5         2959.5         7.7615165e+08  0.1            13867580       4.137555       628.08399      6280.8636      11.899486    
  29431000   99650.325     -140.56941     -36589675       0.77446224     296741.65     -36292933       919.00004      919.00004      919.00004      2040.5         2959.5         2040.5         2959.5         2040.5         2959.5         7.7615165e+08  0.1            13867600       4.169454       626.9788       6269.7709      11.866914    
  29431200   100617.98     -141.37584     -36590200       0.77446224     299623.16     -36290576       919.00004      919.00004      919.00004      2040.5         2959.5         2040.5         2959.5         2040.5         2959.5         7.7615165e+08  0.1            13867620       4.2013149      627.7282       6277.285       11.834244    
  29431400   101301.97     -142.15106     -36590709       0.77446224     301659.97     -36289049       919.00004      919.00004      919.00004      2040.5         2959.5         2040.5         2959.5         2040.5         2959.5         7.7615165e+08  0.1            13867640       4.2339656      612.54212      6125.4004      11.80379     
  29431600   101704.32     -142.85171     -36583825       0.77446224     302858.11     -36280967       919.00004      919.00004      919.00004      2040.5         2959.5         2040.5         2959.5         2040.5         2959.5         7.7615165e+08  0.1            13867660       4.2658131      627.99461      6279.9489      11.771085    
  29431800   101851.7      -143.92344     -36584304       0.77446224     303296.96     -36281007       919.00004      919.00004      919.00004      2040.5         2959.5         2040.5         2959.5         2040.5         2959.5         7.7615165e+08  0.1            13867680       4.2977167      626.89045      6268.9192      11.738546    
  29432000   101793.3      -144.80913     -36577392       0.77446224     303123.08     -36274269       919.00004      919.00004      919.00004      2040.5         2959.5         2040.5         2959.5         2040.5         2959.5         7.7615165e+08  0.1            13867700       4.3296533      626.24082      6262.4164      11.706105    
  29432200   101594.34     -145.61393     -36570467       0.77446224     302530.61     -36267936       919.00004      919.00004      919.00004      2040.5         2959.5         2040.5         2959.5         2040.5         2959.5         7.7615165e+08  0.1            13867720       4.3616064      625.91544      6259.1511      11.673717    
  29432400   101330.52     -146.57952     -36570902       0.77446224     301745        -36269157       919.00004      919.00004      919.00004      2040.5         2959.5         2040.5         2959.5         2040.5         2959.5         7.7615165e+08  0.1            13867740       4.3935608      625.89448      6258.937       11.641339    
  29432600   101081.1      -147.51723     -36571318       0.77446224     301002.24     -36270315       919.00004      919.00004      919.00004      2040.5         2959.5         2040.5         2959.5         2040.5         2959.5         7.7615165e+08  0.1            13867760       4.425557       625.07042      6250.7309      11.609075    
  29432800   100922.88     -148.39509     -36571712       0.77446224     300531.1      -36271180       919.00004      919.00004      919.00004      2040.5         2959.5         2040.5         2959.5         2040.5         2959.5         7.7615165e+08  0.1            13867780       4.4575131      625.86073      6258.5921      11.576712    
  29433000   100925.38     -149.20919     -36572087       0.77446224     300538.54     -36271548       919.00004      919.00004      919.00004      2040.5         2959.5         2040.5         2959.5         2040.5         2959.5         7.7615165e+08  0.1            13867800       4.4894444      626.34519      6263.4513      11.544291    
  29433200   101146.1      -149.90685     -36572446       0.77446224     301195.83     -36271250       919.00004      919.00004      919.00004      2040.5         2959.5         2040.5         2959.5         2040.5         2959.5         7.7615165e+08  0.1            13867820       4.5213393      627.05861      6270.5787      11.511785    
  29433400   101625.67     -150.4008      -36572789       0.77446224     302623.91     -36270165       919.00004      919.00004      919.00004      2040.5         2959.5         2040.5         2959.5         2040.5         2959.5         7.7615165e+08  0.1            13867840       4.5532614      626.5263       6265.2461      11.479355    
  29433600   102385.78     -150.8883      -36573116       0.77446224     304887.36     -36268229       919.00004      919.00004      919.00004      2040.5         2959.5         2040.5         2959.5         2040.5         2959.5         7.7615165e+08  0.1            13867860       4.5851202      627.76866      6277.7063      11.446774    
  29433800   103428.21     -151.6624      -36580807       0.77446224     307991.53     -36272815       919.00004      919.00004      919.00004      2040.5         2959.5         2040.5         2959.5         2040.5         2959.5         7.7615165e+08  0.1            13867880       4.6169984      627.38951      6273.9061      11.414251    
  29434000   104731.86     -152.20416     -36581108       0.77446224     311873.58     -36269235       919.00004      919.00004      919.00004      2040.5         2959.5         2040.5         2959.5         2040.5         2959.5         7.7615165e+08  0.1            13867900       4.649026       624.4606       6244.6027      11.382103    
  29434200   106252.91     -152.56872     -36581396       0.77446224     316403.02     -36264993       919.00004      919.00004      919.00004      2040.5         2959.5         2040.5         2959.5         2040.5         2959.5         7.7615165e+08  0.1            13867920       4.6809656      626.18106      6261.8141      11.349744    
  29434400   107929.15     -153.23632     -36596426       0.77446224     321394.57     -36275031       919.00004      919.00004      919.00004      2040.5         2959.5         2040.5         2959.5         2040.5         2959.5         7.7615165e+08  0.1            13867940       4.7128629      627.00903      6270.0831      11.317289    
  29434600   109685.87     -153.61118     -36596686       0.77446224     326625.81     -36270060       919.00004      919.00004      919.00004      2040.5         2959.5         2040.5         2959.5         2040.5         2959.5         7.7615165e+08  0.1            13867960       4.7447571      627.07843      6270.7776      11.284833    
  29434800   111441.43     -154.0557      -36596930       0.77446224     331853.54     -36265076       919.00004      919.00004      919.00004      2040.5         2959.5         2040.5         2959.5         2040.5         2959.5         7.7615165e+08  0.1            13867980       4.7766598      626.90568      6269.064       11.252405    
  29435000   113115.14     -154.41026     -36597158       0.77446224     336837.56     -36260321       919.00004      919.00004      919.00004      2040.5         2959.5         2040.5         2959.5         2040.5         2959.5         7.7615165e+08  0.1            13868000       4.808602       626.13093      6261.3069      11.220076    
  29435200   114632.68     -154.65739     -36597369       0.77446224     341356.54     -36256012       919.00004      919.00004      919.00004      2040.5         2959.5         2040.5         2959.5         2040.5         2959.5         7.7615165e+08  0.1            13868020       4.8404781      627.4288       6274.2825      11.1876      
  29435400   115932.05     -155.00571     -36597562       0.77446224     345225.86     -36252336       919.00004      919.00004      919.00004      2040.5         2959.5         2040.5         2959.5         2040.5         2959.5         7.7615165e+08  0.1            13868040       4.8723847      626.82962      6268.2797      11.155202    
  29435600   116968.25     -155.7031      -36605119       0.77446224     348311.48     -36256807       919.00004      919.00004      919.00004      2040.5         2959.5         2040.5         2959.5         2040.5         2959.5         7.7615165e+08  0.1            13868060       4.9051429      610.53462      6105.3652      11.124741    
  29435800   117716.37     -156.51048     -36612663       0.77446224     350539.25     -36262123       919.00004      919.00004      919.00004      2040.5         2959.5         2040.5         2959.5         2040.5         2959.5         7.7615165e+08  0.1            13868080       4.936995       627.90065      6279.0126      11.092214    
  29436000   118173.36     -157.0928      -36612815       0.77446224     351900.07     -36260915       919.00004      919.00004      919.00004      2040.5         2959.5         2040.5         2959.5         2040.5         2959.5         7.7615165e+08  0.1            13868100       4.9698146      609.39208      6093.8994      11.061851    
  29436200   118360.69     -157.63581     -36614847       0.77446224     352457.93     -36262389       919.00004      919.00004      919.00004      2040.5         2959.5         2040.5         2959.5         2040.5         2959.5         7.7615165e+08  0.1            13868120       5.0017056      627.13516      6271.3488      11.029407    
  29436400   118322.13     -158.09826     -36614968       0.77446224     352343.09     -36262625       919.00004      919.00004      919.00004      2040.5         2959.5         2040.5         2959.5         2040.5         2959.5         7.7615165e+08  0.1            13868140       5.0335594      627.86934      6278.7283      10.996889    
  29436600   118120.94     -158.53308     -36615072       0.77446224     351743.99     -36263328       919.00004      919.00004      919.00004      2040.5         2959.5         2040.5         2959.5         2040.5         2959.5         7.7615165e+08  0.1            13868160       5.0653983      628.16343      6281.6246      10.964348    
  29436800   117833.43     -158.91636     -36615158       0.77446224     350887.85     -36264270       919.00004      919.00004      919.00004      2040.5         2959.5         2040.5         2959.5         2040.5         2959.5         7.7615165e+08  0.1            13868180       5.0972948      627.02745      6270.2763      10.931939    
  29437000   117542.15     -159.21908     -36615227       0.77446224     350020.45     -36265207       919.00004      919.00004      919.00004      2040.5         2959.5         2040.5         2959.5         2040.5         2959.5         7.7615165e+08  0.1            13868200       5.1292957      624.98352      6249.8295      10.899758    
  29437200   117328.1      -159.4422      -36615278       0.77446224     349383.06     -36265895       919.00004      919.00004      919.00004      2040.5         2959.5         2040.5         2959.5         2040.5         2959.5         7.7615165e+08  0.1            13868220       5.1612058      626.75859      6267.5739      10.867389    
  29437400   117265.41     -159.64531     -36613417       0.77446224     349196.38     -36264220       919.00004      919.00004      919.00004      2040.5         2959.5         2040.5         2959.5         2040.5         2959.5         7.7615165e+08  0.1            13868240       5.1931343      626.3992       6263.9981      10.835063    
  29437600   117416.56     -159.85488     -36611540       0.77446224     349646.46     -36261893       919.00004      919.00004      919.00004      2040.5         2959.5         2040.5         2959.5         2040.5         2959.5         7.7615165e+08  0.1            13868260       5.2250713      626.23299      6262.3319      10.80276     
  29437800   117828.12     -160.09192     -36611544       0.77446224     350872.03     -36260672       919.00004      919.00004      919.00004      2040.5         2959.5         2040.5         2959.5         2040.5         2959.5         7.7615165e+08  0.1            13868280       5.257          626.39208      6263.928       10.770444    
  29438000   118527.32     -160.267       -36611535       0.77446224     352954.13     -36258581       919.00004      919.00004      919.00004      2040.5         2959.5         2040.5         2959.5         2040.5         2959.5         7.7615165e+08  0.1            13868300       5.2890887      623.27586      6232.746       10.738458    
  29438200   119519.51     -160.51008     -36611512       0.77446224     355908.69     -36255604       919.00004      919.00004      919.00004      2040.5         2959.5         2040.5         2959.5         2040.5         2959.5         7.7615165e+08  0.1            13868320       5.3209276      628.16503      6281.6566      10.705967    
  29438400   120786.28     -160.74492     -36611477       0.77446224     359680.92     -36251796       919.00004      919.00004      919.00004      2040.5         2959.5         2040.5         2959.5         2040.5         2959.5         7.7615165e+08  0.1            13868340       5.3527486      628.51535      6285.1503      10.673449    
  29438600   122286.37     -160.92641     -36611427       0.77446224     364147.92     -36247279       919.00004      919.00004      919.00004      2040.5         2959.5         2040.5         2959.5         2040.5         2959.5         7.7615165e+08  0.1            13868360       5.3846403      627.12065      6271.2145      10.641079    
  29438800   123959.43     -161.06263     -36609469       0.77446224     369130        -36240339       919.00004      919.00004      919.00004      2040.5         2959.5         2040.5         2959.5         2040.5         2959.5         7.7615165e+08  0.1            13868380       5.4165077      627.60267      6276.0277      10.608667    
  29439000   125729.88     -161.21756     -36609392       0.77446224     374402.11     -36234990       919.00004      919.00004      919.00004      2040.5         2959.5         2040.5         2959.5         2040.5         2959.5         7.7615165e+08  0.1            13868400       5.4484469      626.18882      6261.8676      10.576401    
  29439200   127514.43     -161.13169     -36601920       0.77446224     379716.19     -36222204       919.00004      919.00004      919.00004      2040.5         2959.5         2040.5         2959.5         2040.5         2959.5         7.7615165e+08  0.1            13868420       5.4803169      627.55058      6275.5245      10.544006    
  29439400   129230.61     -161.34219     -36609187       0.77446224     384826.7      -36224360       919.00004      919.00004      919.00004      2040.5         2959.5         2040.5         2959.5         2040.5         2959.5         7.7615165e+08  0.1            13868440       5.5121505      628.26685      6282.6758      10.511547    
  29439600   130801.69     -161.37084     -36610956       0.77446224     389505.1      -36221451       919.00004      919.00004      919.00004      2040.5         2959.5         2040.5         2959.5         2040.5         2959.5         7.7615165e+08  0.1            13868460       5.5447188      614.08911      6140.8751      10.480485    
  29439800   132162.05     -161.1666      -36608919       0.77446224     393556.03     -36215363       919.00004      919.00004      919.00004      2040.5         2959.5         2040.5         2959.5         2040.5         2959.5         7.7615165e+08  0.1            13868480       5.5766219      626.90287      6269.0218      10.448158    
  29440000   133261.53     -160.97915     -36601383       0.77446224     396830.08     -36204553       919.00004      919.00004      919.00004      2040.5         2959.5         2040.5         2959.5         2040.5         2959.5         7.7615165e+08  0.1            13868500       5.6085256      626.88591      6268.863       10.415837    
  29440200   134071.44     -161.03681     -36601209       0.77446224     399241.84     -36201967       919.00004      919.00004      919.00004      2040.5         2959.5         2040.5         2959.5         2040.5         2959.5         7.7615165e+08  0.1            13868520       5.6403931      627.59899      6276.0003      10.383455    
  29440400   134584.39     -161.10933     -36608398       0.77446224     400769.34     -36207628       919.00004      919.00004      919.00004      2040.5         2959.5         2040.5         2959.5         2040.5         2959.5         7.7615165e+08  0.1            13868540       5.6723243      626.34747      6263.4729      10.351195    
  29440600   134817.72     -161.04864     -36608194       0.77446224     401464.14     -36206730       919.00004      919.00004      919.00004      2040.5         2959.5         2040.5         2959.5         2040.5         2959.5         7.7615165e+08  0.1            13868560       5.7041749      627.93043      6279.3106      10.318792    
  29440800   134812.32     -161.25083     -36615356       0.77446224     401448.06     -36213908       919.00004      919.00004      919.00004      2040.5         2959.5         2040.5         2959.5         2040.5         2959.5         7.7615165e+08  0.1            13868580       5.7360382      627.68171      6276.7931      10.286419    
  29441000   134629.87     -161.1656      -36615132       0.77446224     400904.75     -36214227       919.00004      919.00004      919.00004      2040.5         2959.5         2040.5         2959.5         2040.5         2959.5         7.7615165e+08  0.1            13868600       5.768027       625.21412      6252.139       10.254275    
  29441200   134343.54     -161.22807     -36622273       0.77446224     400052.14     -36222221       919.00004      919.00004      919.00004      2040.5         2959.5         2040.5         2959.5         2040.5         2959.5         7.7615165e+08  0.1            13868620       5.7999476      626.55959      6265.6153      10.222011    
  29441400   134035.36     -161.33874     -36622023       0.77446224     399134.41     -36222889       919.00004      919.00004      919.00004      2040.5         2959.5         2040.5         2959.5         2040.5         2959.5         7.7615165e+08  0.1            13868640       5.8318259      627.38624      6273.8672      10.189678    
  29441600   133789.16     -161.53358     -36619869       0.77446224     398401.28     -36221468       919.00004      919.00004      919.00004      2040.5         2959.5         2040.5         2959.5         2040.5         2959.5         7.7615165e+08  0.1            13868660       5.8637192      627.09157      6270.9068      10.157375    
  29441800   133682.6      -161.65006     -36619602       0.77446224     398083.97     -36221518       919.00004      919.00004      919.00004      2040.5         2959.5         2040.5         2959.5         2040.5         2959.5         7.7615165e+08  0.1            13868680       5.8957649      624.10447      6241.0683      10.125339    
  29442000   133780.57     -161.42625     -36611946       0.77446224     398375.68     -36213570       919.00004      919.00004      919.00004      2040.5         2959.5         2040.5         2959.5         2040.5         2959.5         7.7615165e+08  0.1            13868700       5.927722       625.84217      6258.4039      10.093152    
  29442200   134133.64     -161.48757     -36613550       0.77446224     399427.07     -36214123       919.00004      919.00004      919.00004      2040.5         2959.5         2040.5         2959.5         2040.5         2959.5         7.7615165e+08  0.1            13868720       5.9596153      627.09214      6270.9302      10.060859    
  29442400   134773.56     -161.39112     -36613248       0.77446224     401332.65     -36211915       919.00004      919.00004      919.00004      2040.5         2959.5         2040.5         2959.5         2040.5         2959.5         7.7615165e+08  0.1            13868740       5.9925488      607.28191      6072.7993      10.030313    
  29442600   135709.8      -161.26997     -36620314       0.77446224     404120.61     -36216193       919.00004      919.00004      919.00004      2040.5         2959.5         2040.5         2959.5         2040.5         2959.5         7.7615165e+08  0.1            13868760       6.024496       626.02774      6260.2792      9.9981041    
  29442800   136927.65     -160.84996     -36619990       0.77446224     407747.17     -36212243       919.00004      919.00004      919.00004      2040.5         2959.5         2040.5         2959.5         2040.5         2959.5         7.7615165e+08  0.1            13868780       6.0564573      625.76163      6257.6185      9.9659204    
  29443000   138389.93     -160.58795     -36627033       0.77446224     412101.59     -36214932       919.00004      919.00004      919.00004      2040.5         2959.5         2040.5         2959.5         2040.5         2959.5         7.7615165e+08  0.1            13868800       6.088779       618.78014      6187.7677      9.9343279    
  29443200   140039.95     -160.41003     -36641447       0.77446224     417015.07     -36224432       919.00004      919.00004      919.00004      2040.5         2959.5         2040.5         2959.5         2040.5         2959.5         7.7615165e+08  0.1            13868820       6.1207015      626.51644      6265.2053      9.902081     
  29443400   141802.78     -159.8625      -36642989       0.77446224     422264.46     -36220724       919.00004      919.00004      919.00004      2040.5         2959.5         2040.5         2959.5         2040.5         2959.5         7.7615165e+08  0.1            13868840       6.1533729      612.15719      6121.5507      9.8710396    
  29443600   143595.28     -159.37663     -36642622       0.77446224     427602.22     -36215020       919.00004      919.00004      919.00004      2040.5         2959.5         2040.5         2959.5         2040.5         2959.5         7.7615165e+08  0.1            13868860       6.185303       626.36916      6263.7162      9.8388016    
  29443800   145333.96     -159.06689     -36642243       0.77446224     432779.73     -36209463       919.00004      919.00004      919.00004      2040.5         2959.5         2040.5         2959.5         2040.5         2959.5         7.7615165e+08  0.1            13868880       6.217196       627.09743      6270.9748      9.8065084    
  29444000   146940.67     -158.85503     -36641852       0.77446224     437564.22     -36204287       919.00004      919.00004      919.00004      2040.5         2959.5         2040.5         2959.5         2040.5         2959.5         7.7615165e+08  0.1            13868900       6.2491772      625.3685       6253.6731      9.7743575    
  29444200   148348.74     -158.59692     -36639557       0.77446224     441757.2      -36197800       919.00004      919.00004      919.00004      2040.5         2959.5         2040.5         2959.5         2040.5         2959.5         7.7615165e+08  0.1            13868920       6.2811338      625.84781      6258.4932      9.7421701    
  29444400   149505.4      -158.23252     -36639148       0.77446224     445201.55     -36193946       919.00004      919.00004      919.00004      2040.5         2959.5         2040.5         2959.5         2040.5         2959.5         7.7615165e+08  0.1            13868940       6.3135047      617.83711      6178.3714      9.7106225    
  29444600   150376.22     -157.77109     -36638727       0.77446224     447794.7      -36190932       919.00004      919.00004      919.00004      2040.5         2959.5         2040.5         2959.5         2040.5         2959.5         7.7615165e+08  0.1            13868960       6.345483       625.42592      6254.2535      9.6784673    
  29444800   150950.04     -157.43992     -36638296       0.77446224     449503.45     -36188792       919.00004      919.00004      919.00004      2040.5         2959.5         2040.5         2959.5         2040.5         2959.5         7.7615165e+08  0.1            13868980       6.3774528      625.59189      6255.9257      9.6463011    
  29445000   151239.31     -157.31388     -36637856       0.77446224     450364.84     -36187491       919.00004      919.00004      919.00004      2040.5         2959.5         2040.5         2959.5         2040.5         2959.5         7.7615165e+08  0.1            13869000       6.4095003      624.07165      6240.7167      9.6142537    
  29445200   151280.23     -157.16569     -36637408       0.77446224     450486.68     -36186921       919.00004      919.00004      919.00004      2040.5         2959.5         2040.5         2959.5         2040.5         2959.5         7.7615165e+08  0.1            13869020       6.441432       626.33711      6263.3717      9.582034     
  29445400   151129.01     -156.99032     -36636953       0.77446224     450036.4      -36186917       919.00004      919.00004      919.00004      2040.5         2959.5         2040.5         2959.5         2040.5         2959.5         7.7615165e+08  0.1            13869040       6.473411       625.41117      6254.0984      9.5498868    
  29445600   150857.14     -156.68235     -36636491       0.77446224     449226.8      -36187265       919.00004      919.00004      919.00004      2040.5         2959.5         2040.5         2959.5         2040.5         2959.5         7.7615165e+08  0.1            13869060       6.5053121      626.9373       6269.3641      9.5176274    
  29445800   150544.85     -156.28755     -36636020       0.77446224     448296.86     -36187723       919.00004      919.00004      919.00004      2040.5         2959.5         2040.5         2959.5         2040.5         2959.5         7.7615165e+08  0.1            13869080       6.5372835      625.55911      6255.6095      9.4854733    
  29446000   150276.21     -156.06298     -36635541       0.77446224     447496.89     -36188044       919.00004      919.00004      919.00004      2040.5         2959.5         2040.5         2959.5         2040.5         2959.5         7.7615165e+08  0.1            13869100       6.5700126      611.07354      6110.7331      9.4544119    
  29446200   150132.49     -156.04465     -36635058       0.77446224     447068.93     -36187989       919.00004      919.00004      919.00004      2040.5         2959.5         2040.5         2959.5         2040.5         2959.5         7.7615165e+08  0.1            13869120       6.6019615      626.0006       6260.0015      9.4222202    
  29446400   150182.79     -155.91098     -36634573       0.77446224     447218.7      -36187354       919.00004      919.00004      919.00004      2040.5         2959.5         2040.5         2959.5         2040.5         2959.5         7.7615165e+08  0.1            13869140       6.6338897      626.40817      6264.0734      9.3900016    
  29446600   150479.82     -155.58077     -36634079       0.77446224     448103.22     -36185975       919.00004      919.00004      919.00004      2040.5         2959.5         2040.5         2959.5         2040.5         2959.5         7.7615165e+08  0.1            13869160       6.6659193      624.42358      6244.2315      9.3579283    
  29446800   151059.44     -155.35477     -36640954       0.77446224     449829.21     -36191125       919.00004      919.00004      919.00004      2040.5         2959.5         2040.5         2959.5         2040.5         2959.5         7.7615165e+08  0.1            13869180       6.6978646      626.06903      6260.7144      9.3257379    
  29447000   151936.01     -155.09859     -36655201       0.77446224     452439.48     -36202761       919.00004      919.00004      919.00004      2040.5         2959.5         2040.5         2959.5         2040.5         2959.5         7.7615165e+08  0.1            13869200       6.7305918      611.11094      6111.1112      9.2946298    
  29447200   153100.37     -154.49519     -36654685       0.77446224     455906.76     -36198778       919.00004      919.00004      919.00004      2040.5         2959.5         2040.5         2959.5         2040.5         2959.5         7.7615165e+08  0.1            13869220       6.7626392      624.07606      6240.7514      9.2625752    
  29447400   154519.36     -154.08331     -36661542       0.77446224     460132.26     -36201409       919.00004      919.00004      919.00004      2040.5         2959.5         2040.5         2959.5         2040.5         2959.5         7.7615165e+08  0.1            13869240       6.7946041      625.68775      6256.8659      9.2304086    
  29447600   156137.79     -153.15945     -36653636       0.77446224     464951.67     -36188685       919.00004      919.00004      919.00004      2040.5         2959.5         2040.5         2959.5         2040.5         2959.5         7.7615165e+08  0.1            13869260       6.8271601      614.32274      6143.2308      9.1990405    
  29447800   157883.89     -152.37921     -36653101       0.77446224     470151.28     -36182950       919.00004      919.00004      919.00004      2040.5         2959.5         2040.5         2959.5         2040.5         2959.5         7.7615165e+08  0.1            13869280       6.8591444      625.31047      6253.1111      9.1668968    
  29448000   159676.96     -151.65771     -36650666       0.77446224     475490.72     -36175175       919.00004      919.00004      919.00004      2040.5         2959.5         2040.5         2959.5         2040.5         2959.5         7.7615165e+08  0.1            13869300       6.8912264      623.39987      6233.9925      9.1348846    
  29448200   161434.27     -151.00226     -36650123       0.77446224     480723.68     -36169399       919.00004      919.00004      919.00004      2040.5         2959.5         2040.5         2959.5         2040.5         2959.5         7.7615165e+08  0.1            13869320       6.9232692      624.16734      6241.6343      9.1028201    
  29448400   163074.59     -150.30202     -36651470       0.77446224     485608.29     -36165862       919.00004      919.00004      919.00004      2040.5         2959.5         2040.5         2959.5         2040.5         2959.5         7.7615165e+08  0.1            13869340       6.9552025      626.30457      6263.093       9.0706126    
  29448600   164526.48     -149.565       -36650912       0.77446224     489931.76     -36160981       919.00004      919.00004      919.00004      2040.5         2959.5         2040.5         2959.5         2040.5         2959.5         7.7615165e+08  0.1            13869360       6.9881443      607.12897      6071.2897      9.0397127    
  29448800   165733.81     -149.20793     -36666994       0.77446224     493527        -36173467       919.00004      919.00004      919.00004      2040.5         2959.5         2040.5         2959.5         2040.5         2959.5         7.7615165e+08  0.1            13869380       7.0201496      624.90043      6249.0093      9.0075919    
  29449000   166659.77     -148.61803     -36673794       0.77446224     496284.34     -36177510       919.00004      919.00004      919.00004      2040.5         2959.5         2040.5         2959.5         2040.5         2959.5         7.7615165e+08  0.1            13869400       7.052362       620.87622      6208.762       8.9757364    
  29449200   167290.27     -148.11573     -36673209       0.77446224     498161.85     -36175047       919.00004      919.00004      919.00004      2040.5         2959.5         2040.5         2959.5         2040.5         2959.5         7.7615165e+08  0.1            13869420       7.0844038      624.18573      6241.8458      8.943662     
  29449400   167634.54     -147.9851      -36676412       0.77446224     499187.03     -36177225       919.00004      919.00004      919.00004      2040.5         2959.5         2040.5         2959.5         2040.5         2959.5         7.7615165e+08  0.1            13869440       7.1165065      623.00153      6230.0318      8.9116639    
  29449600   167723.7      -147.73248     -36675826       0.77446224     499452.53     -36176373       919.00004      919.00004      919.00004      2040.5         2959.5         2040.5         2959.5         2040.5         2959.5         7.7615165e+08  0.1            13869460       7.1485066      624.99803      6249.977       8.8795378    
  29449800   167608.59     -147.33114     -36674867       0.77446224     499109.75     -36175758       919.00004      919.00004      919.00004      2040.5         2959.5         2040.5         2959.5         2040.5         2959.5         7.7615165e+08  0.1            13869480       7.1805781      623.60531      6236.0502      8.8475007    
[...]
  30094400   309.6969       1.2126799     -36806747       0.81859766     922.22449     -36805825       902.17775      902.17775      902.17775      2048.9111      2951.0889      2048.9111      2951.0889      2048.9111      2951.0889      7.3430474e+08  0.1            13933940       55.701614      522.16491      5221.6585      2.0402113    
  30094600   309.69007      0.77918149    -36806867       0.81858913     922.20415     -36805944       902.18088      902.18088      902.18088      2048.9096      2951.0904      2048.9096      2951.0904      2048.9096      2951.0904      7.3431239e+08  0.1            13933960       55.739857      522.9682       5229.6801      2.0017077    
  30094800   309.68637      1.208271      -36806985       0.81861294     922.19312     -36806063       902.17213      902.17213      902.17213      2048.9139      2951.0861      2048.9139      2951.0861      2048.9139      2951.0861      7.3429104e+08  0.1            13933980       55.778214      521.41747      5214.1675      1.9632085    
  30095000   309.64995      0.81664366    -36807105       0.81860592     922.08467     -36806183       902.17471      902.17471      902.17471      2048.9126      2951.0874      2048.9126      2951.0874      2048.9126      2951.0874      7.3429734e+08  0.1            13934000       55.816549      521.72188      5217.2117      1.9247087    
  30095200   309.66558      1.1504074     -36807223       0.81862608     922.13123     -36806301       902.16731      902.16731      902.16731      2048.9163      2951.0837      2048.9163      2951.0837      2048.9163      2951.0837      7.3427925e+08  0.1            13934020       55.854959      520.69509      5206.9616      1.8862117    
  30095400   309.6716       0.88735603    -36807342       0.81862382     922.14914     -36806420       902.16814      902.16814      902.16814      2048.9159      2951.0841      2048.9159      2951.0841      2048.9159      2951.0841      7.3428128e+08  0.1            13934040       55.893308      521.52271      5215.1919      1.8477128    
  30095600   309.67062      1.0711249     -36807461       0.81863831     922.14624     -36806539       902.16282      902.16282      902.16282      2048.9186      2951.0814      2048.9186      2951.0814      2048.9186      2951.0814      7.3426828e+08  0.1            13934060       55.931632      521.87048      5218.74        1.8092132    
  30095800   309.66206      0.97283133    -36807580       0.81864219     922.12073     -36806658       902.16139      902.16139      902.16139      2048.9193      2951.0807      2048.9193      2951.0807      2048.9193      2951.0807      7.342648e+08   0.1            13934080       55.970004      521.21588      5212.1579      1.7707155    
  30096000   309.62931      0.98096669    -36807699       0.81865004     922.02322     -36806777       902.15851      902.15851      902.15851      2048.9207      2951.0793      2048.9207      2951.0793      2048.9207      2951.0793      7.3425776e+08  0.1            13934100       56.008453      520.16516      5201.6433      1.7322203    
  30096200   309.64294      1.06599       -36807817       0.81866076     922.06381     -36806895       902.15457      902.15457      902.15457      2048.9227      2951.0773      2048.9227      2951.0773      2048.9227      2951.0773      7.3424814e+08  0.1            13934120       56.046874      520.5494       5205.5005      1.6937243    
  30096400   309.65003      0.88816519    -36807936       0.8186616      922.08492     -36807014       902.15426      902.15426      902.15426      2048.9229      2951.0771      2048.9229      2951.0771      2048.9229      2951.0771      7.3424739e+08  0.1            13934140       56.085248      521.18872      5211.8914      1.655227     
  30096600   309.65012      1.1516158     -36808055       0.818679       922.08518     -36807133       902.14787      902.14787      902.14787      2048.9261      2951.0739      2048.9261      2951.0739      2048.9261      2951.0739      7.3423178e+08  0.1            13934160       56.123612      521.32585      5213.2487      1.6167296    
  30096800   309.63957      0.82170831    -36808173       0.81867412     922.05377     -36807251       902.14966      902.14966      902.14966      2048.9252      2951.0748      2048.9252      2951.0748      2048.9252      2951.0748      7.3423617e+08  0.1            13934180       56.161966      521.44868      5214.4845      1.5782322    
  30097000   309.6103       1.1803295     -36808292       0.81869509     921.9666      -36807370       902.14196      902.14196      902.14196      2048.929       2951.071       2048.929       2951.071       2048.929       2951.071       7.3421736e+08  0.1            13934200       56.200364      520.86357      5208.6421      1.5397361    
  30097200   309.62062      0.85567454    -36808410       0.81869038     921.99733     -36807488       902.14369      902.14369      902.14369      2048.9282      2951.0718      2048.9282      2951.0718      2048.9282      2951.0718      7.3422158e+08  0.1            13934220       56.238696      521.75869      5217.5895      1.5012384    
  30097400   309.63187      1.0569694     -36808528       0.81870544     922.03083     -36807606       902.13816      902.13816      902.13816      2048.9309      2951.0691      2048.9309      2951.0691      2048.9309      2951.0691      7.3420807e+08  0.1            13934240       56.277655      513.35723      5133.5592      1.4627572    
  30097600   309.63023      1.0847684     -36808647       0.81871399     922.02594     -36807725       902.13502      902.13502      902.13502      2048.9325      2951.0675      2048.9325      2951.0675      2048.9325      2951.0675      7.3420041e+08  0.1            13934260       56.31606       520.76898      5207.7035      1.4242613    
  30097800   309.61989      0.73808415    -36808765       0.81870846     921.99515     -36807843       902.13705      902.13705      902.13705      2048.9315      2951.0685      2048.9315      2951.0685      2048.9315      2951.0685      7.3420537e+08  0.1            13934280       56.354352      522.30393      5223.0403      1.3857628    
  30098000   309.59394      1.4158574     -36808883       0.81874148     921.91788     -36807961       902.12492      902.12492      902.12492      2048.9375      2951.0625      2048.9375      2951.0625      2048.9375      2951.0625      7.3417576e+08  0.1            13934300       56.393687      508.44912      5084.4846      1.3472895    
  30098200   309.59985      0.5560529     -36809001       0.81871664     921.93549     -36808079       902.13404      902.13404      902.13404      2048.933       2951.067       2048.933       2951.067       2048.933       2951.067       7.3419803e+08  0.1            13934320       56.432029      521.61784      5216.1727      1.308792     
  30098400   309.61615      1.2246931     -36809119       0.81874935     921.98403     -36808197       902.12203      902.12203      902.12203      2048.939       2951.061       2048.939       2951.061       2048.939       2951.061       7.341687e+08   0.1            13934340       56.470678      517.47803      5174.7993      1.2703016    
  30098600   309.61553      1.2950061     -36809237       0.81875955     921.98219     -36808315       902.11828      902.11828      902.11828      2048.9409      2951.0591      2048.9409      2951.0591      2048.9409      2951.0591      7.3415956e+08  0.1            13934360       56.509012      521.73316      5217.3286      1.2318041    
  30098800   309.59687      0.037092604   -36809356       0.81871972     921.9266      -36808434       902.13291      902.13291      902.13291      2048.9335      2951.0665      2048.9335      2951.0665      2048.9335      2951.0665      7.3419527e+08  0.1            13934380       56.547329      521.96796      5219.6746      1.1933065    
  30099000   309.58638      2.3188644     -36809472       0.81881326     921.89538     -36808550       902.09856      902.09856      902.09856      2048.9507      2951.0493      2048.9507      2951.0493      2048.9507      2951.0493      7.3411139e+08  0.1            13934400       56.585789      520.01167      5200.113       1.1548121    
  30099200   309.58183      0.2693265     -36809591       0.81874361     921.88182     -36808670       902.12414      902.12414      902.12414      2048.9379      2951.0621      2048.9379      2951.0621      2048.9379      2951.0621      7.3417385e+08  0.1            13934420       56.624169      521.10471      5211.0539      1.1163161    
  30099400   309.58896     -0.04105131    -36809709       0.81873949     921.90306     -36808787       902.12565      902.12565      902.12565      2048.9372      2951.0628      2048.9372      2951.0628      2048.9372      2951.0628      7.3417754e+08  0.1            13934440       56.662527      521.40568      5214.056       1.0778199    
  30099600   309.62714      4.0491698     -36809823       0.81890126     922.01674     -36808901       902.06624      902.06624      902.06624      2048.9669      2951.0331      2048.9669      2951.0331      2048.9669      2951.0331      7.3403251e+08  0.1            13934460       56.700914      521.00864      5210.0813      1.0393243    
  30099800   309.56198     -2.156601      -36809944       0.81867487     921.82271     -36809022       902.14939      902.14939      902.14939      2048.9253      2951.0747      2048.9253      2951.0747      2048.9253      2951.0747      7.3423549e+08  0.1            13934480       56.739239      521.85323      5218.5277      1.0008279    
  30100000   309.56006      1.1091211     -36810063       0.81880563     921.81699     -36809141       902.10136      902.10136      902.10136      2048.9493      2951.0507      2048.9493      2951.0507      2048.9493      2951.0507      7.3411824e+08  0.1            13934500       56.777739      519.48069      5194.8176      0.9623346    
  30100200   309.61062      4.7459366     -36810175       0.81895034     921.96756     -36809253       902.04822      902.04822      902.04822      2048.9759      2951.0241      2048.9759      2951.0241      2048.9759      2951.0241      7.3398852e+08  0.1            13934520       56.81611       521.23088      5212.311       0.92383923   
  30100400   309.54432     -3.3364302     -36810295       0.81865308     921.77013     -36809374       902.15739      902.15739      902.15739      2048.9213      2951.0787      2048.9213      2951.0787      2048.9213      2951.0787      7.3425503e+08  0.1            13934540       56.854531      520.55088      5205.5084      0.8853448    
  30100600   309.59747      2.4156376     -36810415       0.81887766     921.9284      -36809493       902.07491      902.07491      902.07491      2048.9625      2951.0375      2048.9625      2951.0375      2048.9625      2951.0375      7.3405366e+08  0.1            13934560       56.892923      520.94253      5209.4137      0.84685004   
  30100800   309.5937       2.5913894     -36810532       0.81889187     921.91717     -36809610       902.06969      902.06969      902.06969      2048.9652      2951.0348      2048.9652      2951.0348      2048.9652      2951.0348      7.3404092e+08  0.1            13934580       56.931384      520.00973      5200.1096      0.80835639   
  30101000   309.5237      -1.3466311     -36810651       0.81875093     921.70872     -36809729       902.12145      902.12145      902.12145      2048.9393      2951.0607      2048.9393      2951.0607      2048.9393      2951.0607      7.3416728e+08  0.1            13934600       56.969824      520.28839      5202.8784      0.76986252   
  30101200   309.57302      2.261622      -36810768       0.81889456     921.85558     -36809846       902.0687       902.0687       902.0687       2048.9656      2951.0344      2048.9656      2951.0344      2048.9656      2951.0344      7.3403851e+08  0.1            13934620       57.008242      520.58047      5205.797       0.73136844   
  30101400   309.57368      1.1461513     -36810886       0.81886005     921.85755     -36809964       902.08138      902.08138      902.08138      2048.9593      2951.0407      2048.9593      2951.0407      2048.9593      2951.0407      7.3406945e+08  0.1            13934640       57.046599      521.42005      5214.2186      0.6928737    
  30101600   309.56266      0.12691274    -36811004       0.81882916     921.82473     -36810082       902.09272      902.09272      902.09272      2048.9536      2951.0464      2048.9536      2951.0464      2048.9536      2951.0464      7.3409714e+08  0.1            13934660       57.085036      520.34204      5203.41        0.65438007   
  30101800   309.57229      1.8085022     -36811121       0.81890004     921.85341     -36810199       902.06669      902.06669      902.06669      2048.9667      2951.0333      2048.9667      2951.0333      2048.9667      2951.0333      7.340336e+08   0.1            13934680       57.123394      521.39951      5213.9981      0.61588567   
  30102000   309.52906      0.65867999    -36811239       0.8188642      921.72467     -36810317       902.07985      902.07985      902.07985      2048.9601      2951.0399      2048.9601      2951.0399      2048.9601      2951.0399      7.3406572e+08  0.1            13934700       57.161844      520.14846      5201.4744      0.57739239   
  30102200   309.54601      0.88359236    -36811356       0.81888013     921.77515     -36810434       902.074        902.074        902.074        2048.963       2951.037       2048.963       2951.037       2048.963       2951.037       7.3405145e+08  0.1            13934720       57.200242      520.85849      5208.5924      0.53889867   
  30102400   309.56133      1.3567279     -36811473       0.81890537     921.82079     -36810551       902.06473      902.06473      902.06473      2048.9676      2951.0324      2048.9676      2951.0324      2048.9676      2951.0324      7.3402882e+08  0.1            13934740       57.238624      521.07817      5210.7873      0.50040494   
  30102600   309.55301      0.6282778     -36811591       0.81888535     921.79601     -36810669       902.07208      902.07208      902.07208      2048.964       2951.036       2048.964       2951.036       2048.964       2951.036       7.3404677e+08  0.1            13934760       57.277025      520.82555      5208.2389      0.46191151   
  30102800   309.55213      1.2502557     -36811708       0.81891613     921.79338     -36810786       902.06078      902.06078      902.06078      2048.9696      2951.0304      2048.9696      2951.0304      2048.9696      2951.0304      7.3401918e+08  0.1            13934780       57.315427      520.81289      5208.1426      0.42341821   
  30103000   309.51623      0.91039627    -36811825       0.81891068     921.68647     -36810904       902.06278      902.06278      902.06278      2048.9686      2951.0314      2048.9686      2951.0314      2048.9686      2951.0314      7.3402406e+08  0.1            13934800       57.353792      521.29893      5212.9831      0.3849248    
  30103200   309.53116      0.95159559    -36811943       0.81891953     921.73093     -36811021       902.05953      902.05953      902.05953      2048.9702      2951.0298      2048.9702      2951.0298      2048.9702      2951.0298      7.3401613e+08  0.1            13934820       57.393125      508.48249      5084.821       0.34643739   
  30103400   309.54337      1.1393718     -36812060       0.81893385     921.76729     -36811138       902.05428      902.05428      902.05428      2048.9729      2951.0271      2048.9729      2951.0271      2048.9729      2951.0271      7.3400329e+08  0.1            13934840       57.4315        521.16828      5211.6787      0.30794372   
  30103600   309.53849      0.81484707    -36812177       0.8189289      921.75277     -36811255       902.0561       902.0561       902.0561       2048.972       2951.028       2048.972       2951.028       2048.972       2951.028       7.3400773e+08  0.1            13934860       57.469927      520.46616      5204.6745      0.26945044   
  30103800   309.53498      1.1974203     -36812294       0.81895047     921.7423      -36811372       902.04818      902.04818      902.04818      2048.9759      2951.0241      2048.9759      2951.0241      2048.9759      2951.0241      7.339884e+08   0.1            13934880       57.508327      520.8382       5208.3807      0.23095715   
  30104000   309.49827      0.80971236    -36812411       0.81894309     921.63299     -36811490       902.05088      902.05088      902.05088      2048.9746      2951.0254      2048.9746      2951.0254      2048.9746      2951.0254      7.3399501e+08  0.1            13934900       57.546774      520.20157      5202.0179      0.19246413   
  30104200   309.51593      1.1746847     -36812528       0.81896392     921.68559     -36811606       902.04324      902.04324      902.04324      2048.9784      2951.0216      2048.9784      2951.0216      2048.9784      2951.0216      7.3397635e+08  0.1            13934920       57.585169      520.8886       5208.8709      0.15397105   
  30104400   309.5329       0.93110214    -36820023       0.81896876     921.73612     -36819101       902.04146      902.04146      902.04146      2048.9793      2951.0207      2048.9793      2951.0207      2048.9793      2951.0207      7.3397201e+08  0.1            13934940       57.623564      520.90832      5209.0994      0.11547809   
  30104600   309.5328       1.0062423     -36820140       0.81897866     921.73582     -36819218       902.03783      902.03783      902.03783      2048.9811      2951.0189      2048.9811      2951.0189      2048.9811      2951.0189      7.3396314e+08  0.1            13934960       57.661942      521.1256       5211.2552      0.07698524   
  30104800   309.5215       1.0314656     -36820257       0.81898665     921.70217     -36819335       902.03489      902.03489      902.03489      2048.9826      2951.0174      2048.9826      2951.0174      2048.9826      2951.0174      7.3395597e+08  0.1            13934980       57.700432      519.62647      5196.251       0.038492618  
  30105000   309.48474      0.9572092     -36820374       0.81899088     921.5927      -36819452       902.03334      902.03334      902.03334      2048.9833      2951.0167      2048.9833      2951.0167      2048.9833      2951.0167      7.3395218e+08  0.1            13935000       57.738837      520.76295      5207.6333      0            
Loop time of 57.7388 on 1 procs for 300000 steps with 1000 atoms

Performance: 44.892 ns/day, 0.535 hours/ns, 5195.808 timesteps/s
99.7% CPU use with 1 MPI tasks x 1 OpenMP threads

MPI task timing breakdown:
Section |  min time  |  avg time  |  max time  |%varavg| %total
---------------------------------------------------------------
Pair    | 42.777     | 42.777     | 42.777     |   0.0 | 74.09
Neigh   | 0.024056   | 0.024056   | 0.024056   |   0.0 |  0.04
Comm    | 1.8564     | 1.8564     | 1.8564     |   0.0 |  3.22
Output  | 0.051508   | 0.051508   | 0.051508   |   0.0 |  0.09
Modify  | 11.576     | 11.576     | 11.576     |   0.0 | 20.05
Other   |            | 1.453      |            |       |  2.52

Nlocal:           1000 ave        1000 max        1000 min
Histogram: 1 0 0 0 0 0 0 0 0 0
Nghost:           1204 ave        1204 max        1204 min
Histogram: 1 0 0 0 0 0 0 0 0 0
Neighs:           5014 ave        5014 max        5014 min
Histogram: 1 0 0 0 0 0 0 0 0 0

Total # of neighbors = 5014
Ave neighs/atom = 5.014
Neighbor list builds = 39
Dangerous builds = 22

# run_style
run_style verlet

# write restart
write_restart ${write_res}
write_restart ./pgnpmf/37/equpmf43.res
System init for write_restart ...
Generated 0 of 1 mixed pair_coeff terms from geometric mixing rule

Total wall time: 0:02:03
