LAMMPS (23 Jun 2022 - Update 1)
# Read restart
read_restart ${read_res}
read_restart ./pgnpmf/37/equpmf5.res
Reading restart file ...
  restart file = 23 Jun 2022, LAMMPS = 23 Jun 2022
  restoring atom style atomic from restart
  orthogonal box = (1666.6964 1666.6964 1666.6964) to (3333.3036 3333.3036 3333.3036)
  1 by 2 by 2 MPI processor grid
  restoring pair style table from restart
  1000 atoms
  read_restart CPU = 0.016 seconds

# Settings

pair_style table spline 9941

pair_coeff 1 1 ./pgnpmf/N20.txt DE_GNP 75.6
pair_coeff 2 2 ./pgnpmf/N100.txt DE_GNP 115.92
WARNING: 3 of 9941 force values in table DE_GNP are inconsistent with -dE/dr.
WARNING:  Should only be flagged at inflection points (../pair_table.cpp:463)
pair_coeff 1 2 ./pgnpmf/mixed_potential.txt DE_GNP 95.66
WARNING: 1562 of 9941 force values in table DE_GNP are inconsistent with -dE/dr.
WARNING:  Should only be flagged at inflection points (../pair_table.cpp:463)

#Neigh_list Calc Frequency

neigh_modify delay 0 every 1 check yes

# Saving Frequency (50 frames)

variable ts_save equal ${steps_equ}
variable ts_save equal 5000

# Dump
#dump 1 all custom ${ts_save} ./pgnpmf/${folder}/equilibration/trajectory/trajectory_${usic}_${trial}.equ.custom type x y z ix iy iz
#dump_modify 1 first no sort id
#dump 2 all cfg 50000 ./equilibration/trajectory/ovito/dumpgen.tens_*.cfg mass type xs ys zs fx fy fz

# thermo_style
thermo_style custom step temp press pe density ke etotal lx ly lz xlo xhi ylo yhi zlo zhi vol dt time cpu tpcpu spcpu cpuremain

# run info
timestep ${ts}
timestep 0.5
thermo 200

# fix

fix 1 all momentum 1000 linear 1 1 1 angular
variable T equal ${temp}
variable T equal 300
fix 2 all nvt temp ${T} 370000 100.0
fix 2 all nvt temp 300 370000 100.0

run 100000
Generated 0 of 1 mixed pair_coeff terms from geometric mixing rule
Unused restart file global fix info:
  fix style: npt, fix ID: 5
Neighbor list info ...
  update every 1 steps, delay 0 steps, check yes
  max neighbors/atom: 2000, page size: 100000
  master list distance cutoff = 117.92
  ghost atom cutoff = 117.92
  binsize = 58.96, bins = 29 29 29
  1 neighbor lists, perpetual/occasional/extra = 1 0 0
  (1) pair table, perpetual
      attributes: half, newton on
      pair build: half/bin/atomonly/newton
      stencil: half/bin/3d
      bin: standard
Per MPI rank memory allocation (min/avg/max) = 3.11 | 3.112 | 3.114 Mbytes
   Step          Temp          Press          PotEng        Density         KinEng         TotEng           Lx             Ly             Lz            Xlo            Xhi            Ylo            Yhi            Zlo            Zhi           Volume           Dt            Time           CPU           T/CPU          S/CPU         CPULeft    
   3505000   311.97383      1.0507785     -7929538.4      0.12985155     929.0048      -7928609.4      1666.6071      1666.6071      1666.6071      1666.6964      3333.3036      1666.6964      3333.3036      1666.6964      3333.3036      4.6291335e+09  0.5            1755000        0              0              0              0            
   3505200   422.06875      0.92988785    -7929697        0.12985155     1256.8487     -7928440.2      1666.6071      1666.6071      1666.6071      1666.6964      3333.3036      1666.6964      3333.3036      1666.6964      3333.3036      4.6291335e+09  0.5            1755100        0.009461707    10567.917      21133.566      4.722792     
   3505400   650.43308      0.78179687    -7929887        0.12985155     1936.8786     -7927950.2      1666.6071      1666.6071      1666.6071      1666.6964      3333.3036      1666.6964      3333.3036      1666.6964      3333.3036      4.6291335e+09  0.5            1755200        0.018997995    10486.49       20973.097      4.7311238    
   3505600   1033.8048      0.59041761    -7930123.4      0.12985155     3078.4941     -7927044.9      1666.6071      1666.6071      1666.6071      1666.6964      3333.3036      1666.6964      3333.3036      1666.6964      3333.3036      4.6291335e+09  0.5            1755300        0.029115074    9884.2231      19768.562      4.8238119    
   3505800   1639.3132      0.36205117    -7930419.9      0.12985155     4881.5949     -7925538.3      1666.6071      1666.6071      1666.6071      1666.6964      3333.3036      1666.6964      3333.3036      1666.6964      3333.3036      4.6291335e+09  0.5            1755400        0.038589195    10555.064      21110.013      4.785381     
   3506000   2536.1032      0.096744571   -7930785.2      0.12985155     7552.0822     -7923233.2      1666.6071      1666.6071      1666.6071      1666.6964      3333.3036      1666.6964      3333.3036      1666.6964      3333.3036      4.6291335e+09  0.5            1755500        0.048152793    10456.504      20913.139      4.7673601    
   3506200   3747.7145     -0.20921329    -7931228.5      0.12985155     11160.054     -7920068.5      1666.6071      1666.6071      1666.6071      1666.6964      3333.3036      1666.6964      3333.3036      1666.6964      3333.3036      4.6291335e+09  0.5            1755600        0.057851389    10310.757      20621.688      4.763282     
   3506400   5160.1293     -0.53362971    -7931743.2      0.12985155     15365.984     -7916377.2      1666.6071      1666.6071      1666.6071      1666.6964      3333.3036      1666.6964      3333.3036      1666.6964      3333.3036      4.6291335e+09  0.5            1755700        0.06758244     10276.339      20552.701      4.7598894    
   3506600   6450.8643     -0.9205138     -7932317.1      0.12985155     19209.572     -7913107.6      1666.6071      1666.6071      1666.6071      1666.6964      3333.3036      1666.6964      3333.3036      1666.6964      3333.3036      4.6291335e+09  0.5            1755800        0.07702939     10585.433      21170.901      4.7374405    
   3506800   7214.4998     -1.3569727     -7932920.9      0.12985155     21483.549     -7911437.3      1666.6071      1666.6071      1666.6071      1666.6964      3333.3036      1666.6964      3333.3036      1666.6964      3333.3036      4.6291335e+09  0.5            1755900        0.086480527    10580.508      21161.153      4.7181189    
   3507000   7537.481      -1.7862777     -7933162.3      0.12985155     22445.331     -7910717        1666.6071      1666.6071      1666.6071      1666.6964      3333.3036      1666.6964      3333.3036      1666.6964      3333.3036      4.6291335e+09  0.5            1756000        0.095984233    10522.435      21044.577      4.7033432    
   3507200   8127.3002     -2.1879736     -7933767.7      0.12985155     24201.712     -7909566        1666.6071      1666.6071      1666.6071      1666.6964      3333.3036      1666.6964      3333.3036      1666.6964      3333.3036      4.6291335e+09  0.5            1756100        0.10546915     10543.013      21086.047      4.6886835    
   3507400   9225.5083     -2.5832135     -7934378.7      0.12985155     27471.988     -7906906.7      1666.6071      1666.6071      1666.6071      1666.6964      3333.3036      1666.6964      3333.3036      1666.6964      3333.3036      4.6291335e+09  0.5            1756200        0.11506292     10423.454      20846.979      4.6793165    
   3507600   10218.659     -3.0151461     -7934996.4      0.12985155     30429.422     -7904567        1666.6071      1666.6071      1666.6071      1666.6964      3333.3036      1666.6964      3333.3036      1666.6964      3333.3036      4.6291335e+09  0.5            1756300        0.12444864     10654.538      21309.187      4.6621173    
   3507800   10698.88      -3.5113253     -7935614.7      0.12985155     31859.438     -7903755.3      1666.6071      1666.6071      1666.6071      1666.6964      3333.3036      1666.6964      3333.3036      1666.6964      3333.3036      4.6291335e+09  0.5            1756400        0.13397484     10497.465      20994.825      4.6509125    
   3508000   11100.601     -3.9512685     -7936212.2      0.12985155     33055.695     -7903156.5      1666.6071      1666.6071      1666.6071      1666.6964      3333.3036      1666.6964      3333.3036      1666.6964      3333.3036      4.6291335e+09  0.5            1756500        0.14344683     10557.396      21114.597      4.6381884    
   3508200   11998.354     -4.3979216     -7936795.6      0.12985155     35729.05      -7901066.6      1666.6071      1666.6071      1666.6071      1666.6964      3333.3036      1666.6964      3333.3036      1666.6964      3333.3036      4.6291335e+09  0.5            1756600        0.15306739     10394.43       20789.001      4.6303517    
   3508400   13124.949     -4.8805955     -7937735.6      0.12985155     39083.856     -7898651.8      1666.6071      1666.6071      1666.6071      1666.6964      3333.3036      1666.6964      3333.3036      1666.6964      3333.3036      4.6291335e+09  0.5            1756700        0.1628817      10189.153      20378.448      4.6278165    
   3508600   13826.322     -5.393141      -7938285.5      0.12985155     41172.427     -7897113.1      1666.6071      1666.6071      1666.6071      1666.6964      3333.3036      1666.6964      3333.3036      1666.6964      3333.3036      4.6291335e+09  0.5            1756800        0.17246703     10432.676      20865.266      4.6183408    
   3508800   14161.911     -5.9092074     -7938805.3      0.12985155     42171.753     -7896633.5      1666.6071      1666.6071      1666.6071      1666.6964      3333.3036      1666.6964      3333.3036      1666.6964      3333.3036      4.6291335e+09  0.5            1756900        0.18190498     10595.417      21190.659      4.6051263    
   3509000   14811.24      -6.3888276     -7939286.6      0.12985155     44105.343     -7895181.3      1666.6071      1666.6071      1666.6071      1666.6964      3333.3036      1666.6964      3333.3036      1666.6964      3333.3036      4.6291335e+09  0.5            1757000        0.19135993     10576.571      21153.201      4.5926911    
   3509200   15932.519     -6.840528      -7939731.2      0.12985155     47444.32      -7892286.9      1666.6071      1666.6071      1666.6071      1666.6964      3333.3036      1666.6964      3333.3036      1666.6964      3333.3036      4.6291335e+09  0.5            1757100        0.20083121     10558.249      21116.608      4.5809117    
   3509400   16882.676     -7.3043907     -7940144.2      0.12985155     50273.726     -7889870.5      1666.6071      1666.6071      1666.6071      1666.6964      3333.3036      1666.6964      3333.3036      1666.6964      3333.3036      4.6291335e+09  0.5            1757200        0.21022804     10641.908      21283.719      4.5677283    
   3509600   17301.198     -7.7133816     -7940515.6      0.12985155     51520.014     -7888995.6      1666.6071      1666.6071      1666.6071      1666.6964      3333.3036      1666.6964      3333.3036      1666.6964      3333.3036      4.6291335e+09  0.5            1757300        0.21988622     10353.845      20707.344      4.5602996    
   3509800   17724.868     -8.0849409     -7940842.4      0.12985155     52781.63      -7888060.8      1666.6071      1666.6071      1666.6071      1666.6964      3333.3036      1666.6964      3333.3036      1666.6964      3333.3036      4.6291335e+09  0.5            1757400        0.22951583     10384.669      20769.784      4.5521057    
   3510000   18690.946     -8.4444145     -7941118.4      0.12985155     55658.447     -7885459.9      1666.6071      1666.6071      1666.6071      1666.6964      3333.3036      1666.6964      3333.3036      1666.6964      3333.3036      4.6291335e+09  0.5            1757500        0.23898007     10566.049      21131.798      4.5406667    
   3510200   19820.222     -8.7814176     -7941349.3      0.12985155     59021.235     -7882328.1      1666.6071      1666.6071      1666.6071      1666.6964      3333.3036      1666.6964      3333.3036      1666.6964      3333.3036      4.6291335e+09  0.5            1757600        0.2484771      10529.629      21059.581      4.5299674    
   3510400   20452.077     -9.087518      -7941529.6      0.12985155     60902.794     -7880626.8      1666.6071      1666.6071      1666.6071      1666.6964      3333.3036      1666.6964      3333.3036      1666.6964      3333.3036      4.6291335e+09  0.5            1757700        0.25809367     10398.742      20797.464      4.5214563    
   3510600   20763.341     -9.3795953     -7941655.8      0.12985155     61829.685     -7879826.1      1666.6071      1666.6071      1666.6071      1666.6964      3333.3036      1666.6964      3333.3036      1666.6964      3333.3036      4.6291335e+09  0.5            1757800        0.2680556      10038.136      20075.947      4.5186925    
   3510800   21480.432     -9.6575161     -7934356.6      0.12985155     63965.058     -7870391.5      1666.6071      1666.6071      1666.6071      1666.6964      3333.3036      1666.6964      3333.3036      1666.6964      3333.3036      4.6291335e+09  0.5            1757900        0.2775337      10550.768      21101.968      4.5075622    
   3511000   22645.51      -9.8983307     -7934389.7      0.12985155     67434.462     -7866955.3      1666.6071      1666.6071      1666.6071      1666.6964      3333.3036      1666.6964      3333.3036      1666.6964      3333.3036      4.6291335e+09  0.5            1758000        0.28704097     10518.145      21035.951      4.4970129    
   3511200   23537.301     -10.182691     -7934373.2      0.12985155     70090.062     -7864283.1      1666.6071      1666.6071      1666.6071      1666.6964      3333.3036      1666.6964      3333.3036      1666.6964      3333.3036      4.6291335e+09  0.5            1758100        0.2965511      10515.197      21030.691      4.4865614    
   3511400   23900.938     -10.442657     -7941691.6      0.12985155     71172.913     -7870518.7      1666.6071      1666.6071      1666.6071      1666.6964      3333.3036      1666.6964      3333.3036      1666.6964      3333.3036      4.6291335e+09  0.5            1758200        0.30619744     10366.611      20733.321      4.4781674    
   3511600   24370.285     -10.686258     -7941594.7      0.12985155     72570.547     -7869024.1      1666.6071      1666.6071      1666.6071      1666.6964      3333.3036      1666.6964      3333.3036      1666.6964      3333.3036      4.6291335e+09  0.5            1758300        0.3156555      10573.008      21145.925      4.4670336    
   3511800   25410.408     -10.902693     -7943367.1      0.12985155     75667.856     -7867699.2      1666.6071      1666.6071      1666.6071      1666.6964      3333.3036      1666.6964      3333.3036      1666.6964      3333.3036      4.6291335e+09  0.5            1758400        0.32509104     10598.183      21196.356      4.4556889    
   3512000   26509.329     -11.081554     -7943209.4      0.12985155     78940.254     -7864269.1      1666.6071      1666.6071      1666.6071      1666.6964      3333.3036      1666.6964      3333.3036      1666.6964      3333.3036      4.6291335e+09  0.5            1758500        0.33473147     10372.966      20745.734      4.4471777    
   3512200   27067.233     -11.240486     -7943036.2      0.12985155     80601.599     -7862434.6      1666.6071      1666.6071      1666.6071      1666.6964      3333.3036      1666.6964      3333.3036      1666.6964      3333.3036      4.6291335e+09  0.5            1758600        0.34441714     10324.603      20649.392      4.4391809    
   3512400   27393.487     -11.443168     -7942864.6      0.12985155     81573.128     -7861291.5      1666.6071      1666.6071      1666.6071      1666.6964      3333.3036      1666.6964      3333.3036      1666.6964      3333.3036      4.6291335e+09  0.5            1758700        0.35397877     10458.474      20916.94       4.4295444    
   3512600   28191.793     -11.55123      -7950077.5      0.12985155     83950.346     -7866127.1      1666.6071      1666.6071      1666.6071      1666.6964      3333.3036      1666.6964      3333.3036      1666.6964      3333.3036      4.6291335e+09  0.5            1758800        0.36366092     10328.262      20656.561      4.4213769    
   3512800   29364.907     -11.648586     -7949916.4      0.12985155     87443.679     -7862472.7      1666.6071      1666.6071      1666.6071      1666.6964      3333.3036      1666.6964      3333.3036      1666.6964      3333.3036      4.6291335e+09  0.5            1758900        0.37315307     10535.018      21069.907      4.4108858    
   3513000   30187.024     -11.818037     -7949786.8      0.12985155     89891.802     -7859895        1666.6071      1666.6071      1666.6071      1666.6964      3333.3036      1666.6964      3333.3036      1666.6964      3333.3036      4.6291335e+09  0.5            1759000        0.38284428     10318.58       20636.785      4.4027373    
   3513200   30517.358     -11.917618     -7957065.3      0.12985155     90875.48      -7866189.9      1666.6071      1666.6071      1666.6071      1666.6964      3333.3036      1666.6964      3333.3036      1666.6964      3333.3036      4.6291335e+09  0.5            1759100        0.39238026     10486.649      20973.768      4.3927691    
   3513400   31044.04      -11.96922      -7956991.1      0.12985155     92443.849     -7864547.3      1666.6071      1666.6071      1666.6071      1666.6964      3333.3036      1666.6964      3333.3036      1666.6964      3333.3036      4.6291335e+09  0.5            1759200        0.40191169     10491.53       20982.891      4.3827756    
   3513600   32145.088     -12.021375     -7956962.9      0.12985155     95722.584     -7861240.4      1666.6071      1666.6071      1666.6071      1666.6964      3333.3036      1666.6964      3333.3036      1666.6964      3333.3036      4.6291335e+09  0.5            1759300        0.41138877     10551.859      21103.903      4.3722235    
   3513800   33209.466     -12.049986     -7958870.6      0.12985155     98892.12      -7859978.4      1666.6071      1666.6071      1666.6071      1666.6964      3333.3036      1666.6964      3333.3036      1666.6964      3333.3036      4.6291335e+09  0.5            1759400        0.42109773     10299.741      20599.263      4.3641267    
   3514000   33690.925     -12.097137     -7966324.9      0.12985155     100325.82     -7865999.1      1666.6071      1666.6071      1666.6071      1666.6964      3333.3036      1666.6964      3333.3036      1666.6964      3333.3036      4.6291335e+09  0.5            1759500        0.43078991     10317.463      20635.012      4.3557885    
   3514200   34008.417     -12.05214      -7968339.2      0.12985155     101271.26     -7867068        1666.6071      1666.6071      1666.6071      1666.6964      3333.3036      1666.6964      3333.3036      1666.6964      3333.3036      4.6291335e+09  0.5            1759600        0.44031209     10501.946      21004.006      4.3457092    
   3514400   34895.838     -12.055993     -7968524.4      0.12985155     103913.85     -7864610.6      1666.6071      1666.6071      1666.6071      1666.6964      3333.3036      1666.6964      3333.3036      1666.6964      3333.3036      4.6291335e+09  0.5            1759700        0.44976569     10577.963      21155.93       4.3349964    
   3514600   36120.41      -11.958122     -7968767.4      0.12985155     107560.41     -7861207        1666.6071      1666.6071      1666.6071      1666.6964      3333.3036      1666.6964      3333.3036      1666.6964      3333.3036      4.6291335e+09  0.5            1759800        0.45966721     10099.469      20198.982      4.3285523    
   3514800   36855.615     -11.884282     -7970952.7      0.12985155     109749.73     -7861203        1666.6071      1666.6071      1666.6071      1666.6964      3333.3036      1666.6964      3333.3036      1666.6964      3333.3036      4.6291335e+09  0.5            1759900        0.469253       10431.922      20863.814      4.3190637    
   3515000   37085.063     -11.876223     -7971293.6      0.12985155     110432.99     -7860860.6      1666.6071      1666.6071      1666.6071      1666.6964      3333.3036      1666.6964      3333.3036      1666.6964      3333.3036      4.6291335e+09  0.5            1760000        0.47882834     10443.588      20887.015      4.3094761    
   3515200   37668.768     -11.802244     -7979065.5      0.12985155     112171.16     -7866894.3      1666.6071      1666.6071      1666.6071      1666.6964      3333.3036      1666.6964      3333.3036      1666.6964      3333.3036      4.6291335e+09  0.5            1760100        0.48839179     10456.581      20913.244      4.2997819    
   3515400   38923.146     -11.661322     -7988770.1      0.12985155     115906.48     -7872863.6      1666.6071      1666.6071      1666.6071      1666.6964      3333.3036      1666.6964      3333.3036      1666.6964      3333.3036      4.6291335e+09  0.5            1760200        0.49806041     10342.7        20685.424      4.2910008    
   3515600   39986.424     -11.517987     -7989234.1      0.12985155     119072.74     -7870161.4      1666.6071      1666.6071      1666.6071      1666.6964      3333.3036      1666.6964      3333.3036      1666.6964      3333.3036      4.6291335e+09  0.5            1760300        0.50760001     10482.59       20965.119      4.2810979    
   3515800   40276.491     -11.33562      -7989723.5      0.12985155     119936.51     -7869787        1666.6071      1666.6071      1666.6071      1666.6964      3333.3036      1666.6964      3333.3036      1666.6964      3333.3036      4.6291335e+09  0.5            1760400        0.51707732     10551.577      21103.266      4.2706929    
   3516000   40480.605     -11.180165     -7990209.3      0.12985155     120544.33     -7869664.9      1666.6071      1666.6071      1666.6071      1666.6964      3333.3036      1666.6964      3333.3036      1666.6964      3333.3036      4.6291335e+09  0.5            1760500        0.5265884      10514.011      21027.847      4.2605974    
   3516200   41658.139     -11.006639     -7992605.7      0.12985155     124050.82     -7868554.9      1666.6071      1666.6071      1666.6071      1666.6964      3333.3036      1666.6964      3333.3036      1666.6964      3333.3036      4.6291335e+09  0.5            1760600        0.53643509     10155.645      20311.316      4.2531825    
   3516400   43209.9       -10.781771     -7993481.1      0.12985155     128671.7      -7864809.4      1666.6071      1666.6071      1666.6071      1666.6964      3333.3036      1666.6964      3333.3036      1666.6964      3333.3036      4.6291335e+09  0.5            1760700        0.54598829     10467.759      20935.711      4.2433989    
   3516600   43643.196     -10.536469     -7993989.8      0.12985155     129961.98     -7864027.8      1666.6071      1666.6071      1666.6071      1666.6964      3333.3036      1666.6964      3333.3036      1666.6964      3333.3036      4.6291335e+09  0.5            1760800        0.55556899     10437.686      20875.336      4.2338349    
   3516800   42771.253     -10.362076     -7994472.1      0.12985155     127365.49     -7867106.6      1666.6071      1666.6071      1666.6071      1666.6964      3333.3036      1666.6964      3333.3036      1666.6964      3333.3036      4.6291335e+09  0.5            1760900        0.56530159     10274.718      20549.405      4.2254059    
   3517000   42873.929     -10.106216     -7996836.1      0.12985155     127671.24     -7869164.9      1666.6071      1666.6071      1666.6071      1666.6964      3333.3036      1666.6964      3333.3036      1666.6964      3333.3036      4.6291335e+09  0.5            1761000        0.57497739     10335.019      20669.903      4.2165179    
   3517200   46002.293     -9.7801414     -7997283.9      0.12985155     136986.97     -7860296.9      1666.6071      1666.6071      1666.6071      1666.6964      3333.3036      1666.6964      3333.3036      1666.6964      3333.3036      4.6291335e+09  0.5            1761100        0.58454949     10447.14       20894.327      4.2068552    
   3517400   46761.688     -9.47784       -7997700.6      0.12985155     139248.32     -7858452.2      1666.6071      1666.6071      1666.6071      1666.6964      3333.3036      1666.6964      3333.3036      1666.6964      3333.3036      4.6291335e+09  0.5            1761200        0.59403207     10545.621      21091.375      4.196564     
   3517600   46256.77      -9.1409191     -7998073.3      0.12985155     137744.76     -7860328.5      1666.6071      1666.6071      1666.6071      1666.6964      3333.3036      1666.6964      3333.3036      1666.6964      3333.3036      4.6291335e+09  0.5            1761300        0.60369823     10345.335      20690.547      4.1875729    
   3517800   46627.314     -8.8675166     -7998381.5      0.12985155     138848.18     -7859533.4      1666.6071      1666.6071      1666.6071      1666.6964      3333.3036      1666.6964      3333.3036      1666.6964      3333.3036      4.6291335e+09  0.5            1761400        0.61318194     10544.499      21089.105      4.1773158    
   3518000   49825.631     -8.3975749     -7998638.6      0.12985155     148372.22     -7850266.3      1666.6071      1666.6071      1666.6071      1666.6964      3333.3036      1666.6964      3333.3036      1666.6964      3333.3036      4.6291335e+09  0.5            1761500        0.62272731     10476.219      20952.134      4.1674987    
   3518200   50050.767     -8.0824471     -8006206.6      0.12985155     149042.64     -7857164        1666.6071      1666.6071      1666.6071      1666.6964      3333.3036      1666.6964      3333.3036      1666.6964      3333.3036      4.6291335e+09  0.5            1761600        0.63242976     10306.67       20613.527      4.1587192    
   3518400   48547.787     -7.7870097     -8006323.5      0.12985155     144567.02     -7861756.5      1666.6071      1666.6071      1666.6071      1666.6964      3333.3036      1666.6964      3333.3036      1666.6964      3333.3036      4.6291335e+09  0.5            1761700        0.64213639     10302.226      20604.516      4.1499405    
   3518600   49298.226     -7.4084343     -8006366.2      0.12985155     146801.7      -7859564.5      1666.6071      1666.6071      1666.6071      1666.6964      3333.3036      1666.6964      3333.3036      1666.6964      3333.3036      4.6291335e+09  0.5            1761800        0.65166603     10493.557      20987.112      4.14001      
   3518800   53106.28      -6.8948041     -8006335        0.12985155     158141.43     -7848193.6      1666.6071      1666.6071      1666.6071      1666.6964      3333.3036      1666.6964      3333.3036      1666.6964      3333.3036      4.6291335e+09  0.5            1761900        0.66168814     9977.9905      19955.888      4.1331676    
   3519000   52286.023     -6.5619804     -8010015.8      0.12985155     155698.85     -7854317        1666.6071      1666.6071      1666.6071      1666.6964      3333.3036      1666.6964      3333.3036      1666.6964      3333.3036      4.6291335e+09  0.5            1762000        0.67126393     10442.909      20885.584      4.1234936    
   3519200   51122.824     -6.2695313     -8009833.1      0.12985155     152235.04     -7857598        1666.6071      1666.6071      1666.6071      1666.6964      3333.3036      1666.6964      3333.3036      1666.6964      3333.3036      4.6291335e+09  0.5            1762100        0.68102887     10240.727      20481.837      4.1149622    
   3519400   53182.79      -5.8191441     -8009604        0.12985155     158369.27     -7851234.7      1666.6071      1666.6071      1666.6071      1666.6964      3333.3036      1666.6964      3333.3036      1666.6964      3333.3036      4.6291335e+09  0.5            1762200        0.69055431     10498.138      20996.114      4.1049757    
   3519600   55504.841     -5.3614665     -8016684.4      0.12985155     165283.94     -7851400.4      1666.6071      1666.6071      1666.6071      1666.6964      3333.3036      1666.6964      3333.3036      1666.6964      3333.3036      4.6291335e+09  0.5            1762300        0.70087828     9686.2573      19372.415      4.0996715    
   3519800   54887.171     -4.9985246     -8023717        0.12985155     163444.62     -7860272.3      1666.6071      1666.6071      1666.6071      1666.6964      3333.3036      1666.6964      3333.3036      1666.6964      3333.3036      4.6291335e+09  0.5            1762400        0.71104952     9831.583       19663.181      4.0933527    
   3520000   54660.069     -4.6470753     -8030719.8      0.12985155     162768.35     -7867951.5      1666.6071      1666.6071      1666.6071      1666.6964      3333.3036      1666.6964      3333.3036      1666.6964      3333.3036      4.6291335e+09  0.5            1762500        0.72117211     9878.8663      19757.756      4.086656     
   3520200   57552.285     -4.1855045     -8030329.2      0.12985155     171380.88     -7858948.3      1666.6071      1666.6071      1666.6071      1666.6964      3333.3036      1666.6964      3333.3036      1666.6964      3333.3036      4.6291335e+09  0.5            1762600        0.73103568     10138.356      20276.597      4.0784231    
   3520400   59359.092     -3.7554775     -8029920.1      0.12985155     176761.24     -7853158.9      1666.6071      1666.6071      1666.6071      1666.6964      3333.3036      1666.6964      3333.3036      1666.6964      3333.3036      4.6291335e+09  0.5            1762700        0.74065154     10399.502      20799.439      4.0687861    
   3520600   57798.38      -3.4265503     -8029530.7      0.12985155     172113.71     -7857417        1666.6071      1666.6071      1666.6071      1666.6964      3333.3036      1666.6964      3333.3036      1666.6964      3333.3036      4.6291335e+09  0.5            1762800        0.75050404     10149.654      20298.875      4.0604331    
   3520800   57456.243     -3.0528953     -8029179.4      0.12985155     171094.88     -7858084.5      1666.6071      1666.6071      1666.6071      1666.6964      3333.3036      1666.6964      3333.3036      1666.6964      3333.3036      4.6291335e+09  0.5            1762900        0.76041983     10084.994      20170.355      4.0523755    
   3521000   59217.061     -2.6250183     -8028899        0.12985155     176338.3      -7852560.7      1666.6071      1666.6071      1666.6071      1666.6964      3333.3036      1666.6964      3333.3036      1666.6964      3333.3036      4.6291335e+09  0.5            1763000        0.7701578      10269.068      20537.997      4.0433404    
   3521200   61019.108     -2.2652059     -8036065.5      0.12985155     181704.48     -7854361        1666.6071      1666.6071      1666.6071      1666.6964      3333.3036      1666.6964      3333.3036      1666.6964      3333.3036      4.6291335e+09  0.5            1763100        0.77995774     10204.145      20408.276      4.0346083    
   3521400   60973.345     -1.9242974     -8043326.2      0.12985155     181568.21     -7861758        1666.6071      1666.6071      1666.6071      1666.6964      3333.3036      1666.6964      3333.3036      1666.6964      3333.3036      4.6291335e+09  0.5            1763200        0.78957906     10393.584      20786.933      4.02494      
   3521600   61055.449     -1.5990769     -8043297.3      0.12985155     181812.7      -7861484.6      1666.6071      1666.6071      1666.6071      1666.6964      3333.3036      1666.6964      3333.3036      1666.6964      3333.3036      4.6291335e+09  0.5            1763300        0.79917667     10419.325      20839.021      4.0151511    
   3521800   62346.988     -1.2723012     -8052661.4      0.12985155     185658.69     -7867002.8      1666.6071      1666.6071      1666.6071      1666.6964      3333.3036      1666.6964      3333.3036      1666.6964      3333.3036      4.6291335e+09  0.5            1763400        0.80907669     10100.95       20201.826      4.0068668    
   3522000   64776.359     -0.89459737    -8053254.1      0.12985155     192892.94     -7860361.1      1666.6071      1666.6071      1666.6071      1666.6964      3333.3036      1666.6964      3333.3036      1666.6964      3333.3036      4.6291335e+09  0.5            1763500        0.81871727     10372.788      20745.392      3.9972784    
   3522200   65881.651     -0.6215977     -8057386.7      0.12985155     196184.31     -7861202.4      1666.6071      1666.6071      1666.6071      1666.6964      3333.3036      1666.6964      3333.3036      1666.6964      3333.3036      4.6291335e+09  0.5            1763600        0.82859346     10125.43       20250.732      3.9888218    
   3522400   62583.618     -0.4888281     -8057832.6      0.12985155     186363.33     -7871469.2      1666.6071      1666.6071      1666.6071      1666.6964      3333.3036      1666.6964      3333.3036      1666.6964      3333.3036      4.6291335e+09  0.5            1763700        0.83848609     10108.472      20217.152      3.9804107    
   3522600   62349.837     -0.28945869    -8058400.9      0.12985155     185667.17     -7872733.7      1666.6071      1666.6071      1666.6071      1666.6964      3333.3036      1666.6964      3333.3036      1666.6964      3333.3036      4.6291335e+09  0.5            1763800        0.84819845     10296.22       20592.51       3.9711211    
   3522800   66294.562      0.025337187   -8059088.3      0.12985155     197413.88     -7861674.4      1666.6071      1666.6071      1666.6071      1666.6964      3333.3036      1666.6964      3333.3036      1666.6964      3333.3036      4.6291335e+09  0.5            1763900        0.85791458     10292.172      20584.317      3.9618409    
   3523000   67503.118      0.27696298    -8059883.6      0.12985155     201012.76     -7858870.8      1666.6071      1666.6071      1666.6071      1666.6964      3333.3036      1666.6964      3333.3036      1666.6964      3333.3036      4.6291335e+09  0.5            1764000        0.86796728     9947.5604      19894.897      3.9540844    
   3523200   67316.079      0.45379903    -8060753.6      0.12985155     200455.79     -7860297.8      1666.6071      1666.6071      1666.6071      1666.6964      3333.3036      1666.6964      3333.3036      1666.6964      3333.3036      4.6291335e+09  0.5            1764100        0.87773238     10240.552      20481.124      3.9449837    
   3523400   67291.734      0.59522091    -8061667        0.12985155     200383.29     -7861283.7      1666.6071      1666.6071      1666.6071      1666.6964      3333.3036      1666.6964      3333.3036      1666.6964      3333.3036      4.6291335e+09  0.5            1764200        0.88739624     10347.913      20696.208      3.9354186    
   3523600   69928.548      0.8545443     -8064520.9      0.12985155     208235.27     -7856285.6      1666.6071      1666.6071      1666.6071      1666.6964      3333.3036      1666.6964      3333.3036      1666.6964      3333.3036      4.6291335e+09  0.5            1764300        0.89722349     10175.732      20351.155      3.9265688    
   3523800   72391.388      1.0679814     -8072880        0.12985155     215569.19     -7857310.8      1666.6071      1666.6071      1666.6071      1666.6964      3333.3036      1666.6964      3333.3036      1666.6964      3333.3036      4.6291335e+09  0.5            1764400        0.90683487     10404.159      20808.179      3.9167662    
   3524000   70017.834      1.1141295     -8074546.4      0.12985155     208501.15     -7866045.3      1666.6071      1666.6071      1666.6071      1666.6964      3333.3036      1666.6964      3333.3036      1666.6964      3333.3036      4.6291335e+09  0.5            1764500        0.91648768     10359.846      20719.965      3.9071415    
   3524200   68295.836      1.1926484     -8077293.5      0.12985155     203373.34     -7873920.2      1666.6071      1666.6071      1666.6071      1666.6964      3333.3036      1666.6964      3333.3036      1666.6964      3333.3036      4.6291335e+09  0.5            1764600        0.92610606     10396.742      20793.6        3.8973722    
   3524400   71410.985      1.4304012     -8078068.4      0.12985155     212649.72     -7865418.6      1666.6071      1666.6071      1666.6071      1666.6964      3333.3036      1666.6964      3333.3036      1666.6964      3333.3036      4.6291335e+09  0.5            1764700        0.93605548     10050.879      20101.868      3.8889811    
   3524600   73086.689      1.6172025     -8078756.4      0.12985155     217639.68     -7861116.8      1666.6071      1666.6071      1666.6071      1666.6964      3333.3036      1666.6964      3333.3036      1666.6964      3333.3036      4.6291335e+09  0.5            1764800        0.94561871     10456.66       20912.922      3.8789763    
   3524800   73283.216      1.7149888     -8079318        0.12985155     218224.9      -7861093.1      1666.6071      1666.6071      1666.6071      1666.6964      3333.3036      1666.6964      3333.3036      1666.6964      3333.3036      4.6291335e+09  0.5            1764900        0.95536054     10265.039      20530.451      3.8697011    
   3525000   73896.165      1.8875503     -8079750.7      0.12985155     220050.16     -7859700.5      1666.6071      1666.6071      1666.6071      1666.6964      3333.3036      1666.6964      3333.3036      1666.6964      3333.3036      4.6291335e+09  0.5            1765000        0.96546594     9895.6944      19791.081      3.8618731    
   3525200   76126.88       2.0440708     -8080044.8      0.12985155     226692.85     -7853351.9      1666.6071      1666.6071      1666.6071      1666.6964      3333.3036      1666.6964      3333.3036      1666.6964      3333.3036      4.6291335e+09  0.5            1765100        0.97510255     10377.1        20754.365      3.8521465    
   3525400   78450.495      2.2480722     -8080184.4      0.12985155     233612.18     -7846572.2      1666.6071      1666.6071      1666.6071      1666.6964      3333.3036      1666.6964      3333.3036      1666.6964      3333.3036      4.6291335e+09  0.5            1765200        0.98486239     10245.991      20491.839      3.842904     
   3525600   75960.075      2.3147093     -8080169.7      0.12985155     226196.13     -7853973.5      1666.6071      1666.6071      1666.6071      1666.6964      3333.3036      1666.6964      3333.3036      1666.6964      3333.3036      4.6291335e+09  0.5            1765300        0.99531939     9562.9978      19125.944      3.8363375    
   3525800   73081.691      2.3428619     -8087390        0.12985155     217624.8      -7869765.2      1666.6071      1666.6071      1666.6071      1666.6964      3333.3036      1666.6964      3333.3036      1666.6964      3333.3036      4.6291335e+09  0.5            1765400        1.0048459      10497.062      20994.479      3.826152     
   3526000   76728.195      2.5949266     -8087122.2      0.12985155     228483.46     -7858638.7      1666.6071      1666.6071      1666.6071      1666.6964      3333.3036      1666.6964      3333.3036      1666.6964      3333.3036      4.6291335e+09  0.5            1765500        1.0146261      10224.789      20449.39       3.8169356    
   3526200   78723.337      2.7628182     -8079337.1      0.12985155     234424.66     -7844912.4      1666.6071      1666.6071      1666.6071      1666.6964      3333.3036      1666.6964      3333.3036      1666.6964      3333.3036      4.6291335e+09  0.5            1765600        1.0243683      10264.664      20529.484      3.8075655    
   3526400   79334.988      2.8733799     -8078809.3      0.12985155     236246.05     -7842563.3      1666.6071      1666.6071      1666.6071      1666.6964      3333.3036      1666.6964      3333.3036      1666.6964      3333.3036      4.6291335e+09  0.5            1765700        1.0341628      10209.721      20419.296      3.7983822    
   3526600   80371.709      3.0566034     -8085537.9      0.12985155     239333.22     -7846204.7      1666.6071      1666.6071      1666.6071      1666.6964      3333.3036      1666.6964      3333.3036      1666.6964      3333.3036      4.6291335e+09  0.5            1765800        1.0440569      10107.064      20214.202      3.7895481    
   3526800   82785.011      3.1241683     -8094035        0.12985155     246519.63     -7847515.4      1666.6071      1666.6071      1666.6071      1666.6964      3333.3036      1666.6964      3333.3036      1666.6964      3333.3036      4.6291335e+09  0.5            1765900        1.05368        10391.665      20783.377      3.7797223    
   3527000   84353.103      3.3671547     -8093123.5      0.12985155     251189.14     -7841934.3      1666.6071      1666.6071      1666.6071      1666.6964      3333.3036      1666.6964      3333.3036      1666.6964      3333.3036      4.6291335e+09  0.5            1766000        1.0637885      9892.6206      19784.94       3.7716226    
   3527200   80696.86       3.4227392     -8099474.7      0.12985155     240301.47     -7859173.2      1666.6071      1666.6071      1666.6071      1666.6964      3333.3036      1666.6964      3333.3036      1666.6964      3333.3036      4.6291335e+09  0.5            1766100        1.0736631      10127.047      20254.311      3.7626649    
   3527400   78672.184      3.4278048     -8098384.6      0.12985155     234272.33     -7864112.2      1666.6071      1666.6071      1666.6071      1666.6964      3333.3036      1666.6964      3333.3036      1666.6964      3333.3036      4.6291335e+09  0.5            1766200        1.0833253      10349.667      20699.46       3.7529556    
   3527600   83374.031      3.7854901     -8097591.8      0.12985155     248273.63     -7849318.2      1666.6071      1666.6071      1666.6071      1666.6964      3333.3036      1666.6964      3333.3036      1666.6964      3333.3036      4.6291335e+09  0.5            1766300        1.0929816      10355.945      20711.723      3.7432274    
   3527800   84684.977      3.9720829     -8096349.5      0.12985155     252177.4      -7844172        1666.6071      1666.6071      1666.6071      1666.6964      3333.3036      1666.6964      3333.3036      1666.6964      3333.3036      4.6291335e+09  0.5            1766400        1.1027747      10211.239      20422.682      3.7339633    
   3528000   85108.626      4.1748553     -8102448.7      0.12985155     253438.96     -7849009.7      1666.6071      1666.6071      1666.6071      1666.6964      3333.3036      1666.6964      3333.3036      1666.6964      3333.3036      4.6291335e+09  0.5            1766500        1.1125707      10208.182      20416.017      3.7247012    
   3528200   86540.568      4.4100518     -8101146.4      0.12985155     257703.04     -7843443.4      1666.6071      1666.6071      1666.6071      1666.6964      3333.3036      1666.6964      3333.3036      1666.6964      3333.3036      4.6291335e+09  0.5            1766600        1.1221758      10411.176      20822.616      3.7147961    
   3528400   89372.387      4.6787        -8097932.7      0.12985155     266135.71     -7831797        1666.6071      1666.6071      1666.6071      1666.6964      3333.3036      1666.6964      3333.3036      1666.6964      3333.3036      4.6291335e+09  0.5            1766700        1.1321499      10025.956      20051.812      3.7061049    
   3528600   89846.071      4.9180856     -8098521.5      0.12985155     267546.26     -7830975.3      1666.6071      1666.6071      1666.6071      1666.6964      3333.3036      1666.6964      3333.3036      1666.6964      3333.3036      4.6291335e+09  0.5            1766800        1.1419383      10216.203      20432.593      3.69679      
   3528800   84847.693      4.8989435     -8097289.2      0.12985155     252661.94     -7844627.3      1666.6071      1666.6071      1666.6071      1666.6964      3333.3036      1666.6964      3333.3036      1666.6964      3333.3036      4.6291335e+09  0.5            1766900        1.1517732      10167.791      20335.377      3.6876174    
   3529000   84896.153      5.0953515     -8096191        0.12985155     252806.25     -7843384.7      1666.6071      1666.6071      1666.6071      1666.6964      3333.3036      1666.6964      3333.3036      1666.6964      3333.3036      4.6291335e+09  0.5            1767000        1.1618271      9946.1911      19891.86       3.6791285    
   3529200   89712.94       5.3680271     -8095212.1      0.12985155     267149.82     -7828062.3      1666.6071      1666.6071      1666.6071      1666.6964      3333.3036      1666.6964      3333.3036      1666.6964      3333.3036      4.6291335e+09  0.5            1767100        1.1715597      10274.986      20550.522      3.6696033    
   3529400   90708.498      5.5014934     -8103629        0.12985155     270114.42     -7833514.6      1666.6071      1666.6071      1666.6071      1666.6964      3333.3036      1666.6964      3333.3036      1666.6964      3333.3036      4.6291335e+09  0.5            1767200        1.1815165      10043.321      20086.702      3.6607715    
   3529600   91173.228      5.6860183     -8102911        0.12985155     271498.31     -7831412.7      1666.6071      1666.6071      1666.6071      1666.6964      3333.3036      1666.6964      3333.3036      1666.6964      3333.3036      4.6291335e+09  0.5            1767300        1.1912965      10225.146      20450.383      3.6513785    
   3529800   92585.438      5.8370031     -8102343.8      0.12985155     275703.63     -7826640.2      1666.6071      1666.6071      1666.6071      1666.6964      3333.3036      1666.6964      3333.3036      1666.6964      3333.3036      4.6291335e+09  0.5            1767400        1.2009013      10411.29       20822.302      3.6414501    
   3530000   95501.096      6.0054475     -8111206.6      0.12985155     284385.96     -7826820.6      1666.6071      1666.6071      1666.6071      1666.6964      3333.3036      1666.6964      3333.3036      1666.6964      3333.3036      4.6291335e+09  0.5            1767500        1.2109815      9920.4322      19840.79       3.6329521    
   3530200   95277.129      6.1138266     -8110913.5      0.12985155     283719.02     -7827194.5      1666.6071      1666.6071      1666.6071      1666.6964      3333.3036      1666.6964      3333.3036      1666.6964      3333.3036      4.6291335e+09  0.5            1767600        1.2206459      10347.391      20695.167      3.6231932    
   3530400   90477.728      6.1086461     -8110740.9      0.12985155     269427.22     -7841313.7      1666.6071      1666.6071      1666.6071      1666.6964      3333.3036      1666.6964      3333.3036      1666.6964      3333.3036      4.6291335e+09  0.5            1767700        1.2308991      9752.9975      19505.696      3.6151672    
   3530600   91716.045      6.3170085     -8103317.8      0.12985155     273114.72     -7830203        1666.6071      1666.6071      1666.6071      1666.6964      3333.3036      1666.6964      3333.3036      1666.6964      3333.3036      4.6291335e+09  0.5            1767800        1.2405458      10366.213      20732.743      3.6053424    
   3530800   96885.332      6.5318025     -8103369.5      0.12985155     288507.97     -7814861.5      1666.6071      1666.6071      1666.6071      1666.6964      3333.3036      1666.6964      3333.3036      1666.6964      3333.3036      4.6291335e+09  0.5            1767900        1.2502235      10333.168      20666.27       3.59561      
   3531000   96945.468      6.651234      -8103463.7      0.12985155     288687.05     -7814776.7      1666.6071      1666.6071      1666.6071      1666.6964      3333.3036      1666.6964      3333.3036      1666.6964      3333.3036      4.6291335e+09  0.5            1768000        1.2602548      9968.7351      19937.321      3.5868853    
   3531200   96079.799      6.690486      -8103565        0.12985155     286109.23     -7817455.8      1666.6071      1666.6071      1666.6071      1666.6964      3333.3036      1666.6964      3333.3036      1666.6964      3333.3036      4.6291335e+09  0.5            1768100        1.2704898      9770.3776      19540.742      3.5787145    
   3531400   97232.69       6.8456857     -8101774.1      0.12985155     289542.35     -7812231.7      1666.6071      1666.6071      1666.6071      1666.6964      3333.3036      1666.6964      3333.3036      1666.6964      3333.3036      4.6291335e+09  0.5            1768200        1.2803356      10156.638      20313.513      3.5694263    
   3531600   102454.03      7.0801538     -8102233.2      0.12985155     305090.61     -7797142.6      1666.6071      1666.6071      1666.6071      1666.6964      3333.3036      1666.6964      3333.3036      1666.6964      3333.3036      4.6291335e+09  0.5            1768300        1.2901829      10155.005      20309.905      3.560135     
   3531800   102022.87      7.1618397     -8102247.4      0.12985155     303806.7      -7798440.7      1666.6071      1666.6071      1666.6071      1666.6964      3333.3036      1666.6964      3333.3036      1666.6964      3333.3036      4.6291335e+09  0.5            1768400        1.2998352      10360.244      20720.587      3.550302     
   3532000   96404.224      7.1648819     -8102181        0.12985155     287075.32     -7815105.7      1666.6071      1666.6071      1666.6071      1666.6964      3333.3036      1666.6964      3333.3036      1666.6964      3333.3036      4.6291335e+09  0.5            1768500        1.3097414      10094.625      20189.126      3.541159     
   3532200   97605.215      7.3546765     -8096935.9      0.12985155     290651.66     -7806284.3      1666.6071      1666.6071      1666.6071      1666.6964      3333.3036      1666.6964      3333.3036      1666.6964      3333.3036      4.6291335e+09  0.5            1768600        1.3193892      10365.249      20730.529      3.5313118    
   3532400   100823.52      7.5093927     -8097114.6      0.12985155     300235.21     -7796879.3      1666.6071      1666.6071      1666.6071      1666.6964      3333.3036      1666.6964      3333.3036      1666.6964      3333.3036      4.6291335e+09  0.5            1768700        1.3291939      10199.023      20397.981      3.5218848    
   3532600   103154.23      7.6922004     -8096825.4      0.12985155     307175.69     -7789649.8      1666.6071      1666.6071      1666.6071      1666.6964      3333.3036      1666.6964      3333.3036      1666.6964      3333.3036      4.6291335e+09  0.5            1768800        1.339016       10181.14       20362.331      3.5124969    
   3532800   103846.09      7.8797856     -8096426.5      0.12985155     309235.93     -7787190.6      1666.6071      1666.6071      1666.6071      1666.6964      3333.3036      1666.6964      3333.3036      1666.6964      3333.3036      4.6291335e+09  0.5            1768900        1.3486213      10411.028      20822.228      3.5025397    
   3533000   102861.53      7.9082153     -8103304.2      0.12985155     306304.08     -7797000.1      1666.6071      1666.6071      1666.6071      1666.6964      3333.3036      1666.6964      3333.3036      1666.6964      3333.3036      4.6291335e+09  0.5            1769000        1.3585952      10026.105      20051.957      3.4935363    
   3533200   101997.08      8.0961367     -8102718        0.12985155     303729.88     -7798988.1      1666.6071      1666.6071      1666.6071      1666.6964      3333.3036      1666.6964      3333.3036      1666.6964      3333.3036      4.6291335e+09  0.5            1769100        1.3686563      9939.3076      19878.777      3.4847403    
   3533400   105920.27      8.2414516     -8105848.3      0.12985155     315412.48     -7790435.8      1666.6071      1666.6071      1666.6071      1666.6964      3333.3036      1666.6964      3333.3036      1666.6964      3333.3036      4.6291335e+09  0.5            1769200        1.37828        10390.892      20781.831      3.4748241    
   3533600   108918.8       8.4277476     -8114024.1      0.12985155     324341.58     -7789682.5      1666.6071      1666.6071      1666.6071      1666.6964      3333.3036      1666.6964      3333.3036      1666.6964      3333.3036      4.6291335e+09  0.5            1769300        1.3881365      10145.713      20291.3        3.4654931    
   3533800   106335.66      8.4691536     -8113242.1      0.12985155     316649.43     -7796592.7      1666.6071      1666.6071      1666.6071      1666.6964      3333.3036      1666.6964      3333.3036      1666.6964      3333.3036      4.6291335e+09  0.5            1769400        1.3977743      10375.696      20751.411      3.4556141    
   3534000   101585.75      8.4701836     -8112456.6      0.12985155     302505.01     -7809951.6      1666.6071      1666.6071      1666.6071      1666.6964      3333.3036      1666.6964      3333.3036      1666.6964      3333.3036      4.6291335e+09  0.5            1769500        1.4076735      10101.816      20203.475      3.4463789    
   3534200   106356.01      8.7483992     -8111697        0.12985155     316710.04     -7794986.9      1666.6071      1666.6071      1666.6071      1666.6964      3333.3036      1666.6964      3333.3036      1666.6964      3333.3036      4.6291335e+09  0.5            1769600        1.4173114      10375.768      20751.708      3.4365       
   3534400   111323.23      8.966121      -8118336.1      0.12985155     331501.57     -7786834.6      1666.6071      1666.6071      1666.6071      1666.6964      3333.3036      1666.6964      3333.3036      1666.6964      3333.3036      4.6291335e+09  0.5            1769700        1.4269803      10342.375      20684.883      3.4266994    
   3534600   109809.16      8.9597427     -8119466.6      0.12985155     326992.94     -7792473.6      1666.6071      1666.6071      1666.6071      1666.6964      3333.3036      1666.6964      3333.3036      1666.6964      3333.3036      4.6291335e+09  0.5            1769800        1.437042       9938.5608      19876.752      3.4178358    
   3534800   107587.54      9.0624531     -8116842.1      0.12985155     320377.32     -7796464.8      1666.6071      1666.6071      1666.6071      1666.6964      3333.3036      1666.6964      3333.3036      1666.6964      3333.3036      4.6291335e+09  0.5            1769900        1.4466783      10377.583      20755.537      3.407952     
   3535000   110758.02      9.3005566     -8123536.8      0.12985155     329818.48     -7793718.3      1666.6071      1666.6071      1666.6071      1666.6964      3333.3036      1666.6964      3333.3036      1666.6964      3333.3036      4.6291335e+09  0.5            1770000        1.4566607      10017.629      20035.19       3.3988804    
   3535200   115950.9       9.5559931     -8132124.9      0.12985155     345281.98     -7786842.9      1666.6071      1666.6071      1666.6071      1666.6964      3333.3036      1666.6964      3333.3036      1666.6964      3333.3036      4.6291335e+09  0.5            1770100        1.4667554      9906.2021      19812.445      3.3900558    
   3535400   113571.03      9.6839877     -8125973.4      0.12985155     338195.13     -7787778.3      1666.6071      1666.6071      1666.6071      1666.6964      3333.3036      1666.6964      3333.3036      1666.6964      3333.3036      4.6291335e+09  0.5            1770200        1.4763896      10379.759      20759.499      3.38016      
   3535600   111063.33      9.7463417     -8132712.3      0.12985155     330727.62     -7801984.6      1666.6071      1666.6071      1666.6071      1666.6964      3333.3036      1666.6964      3333.3036      1666.6964      3333.3036      4.6291335e+09  0.5            1770300        1.4863392      10050.656      20101.41       3.3709831    
   3535800   112316.78      9.8417037     -8139469.3      0.12985155     334460.18     -7805009.1      1666.6071      1666.6071      1666.6071      1666.6964      3333.3036      1666.6964      3333.3036      1666.6964      3333.3036      4.6291335e+09  0.5            1770400        1.4959611      10392.909      20785.818      3.3610603    
   3536000   114147.81      10.084478     -8138859.2      0.12985155     339912.7      -7798946.5      1666.6071      1666.6071      1666.6071      1666.6964      3333.3036      1666.6964      3333.3036      1666.6964      3333.3036      4.6291335e+09  0.5            1770500        1.5059421      10018.983      20037.683      3.3519408    
   3536200   116093.19      10.302027     -8138235.6      0.12985155     345705.7      -7792529.9      1666.6071      1666.6071      1666.6071      1666.6964      3333.3036      1666.6964      3333.3036      1666.6964      3333.3036      4.6291335e+09  0.5            1770600        1.5156094      10344.255      20688.67       3.3421178    
   3536400   117708.04      10.527299     -8137578.9      0.12985155     350514.44     -7787064.4      1666.6071      1666.6071      1666.6071      1666.6964      3333.3036      1666.6964      3333.3036      1666.6964      3333.3036      4.6291335e+09  0.5            1770700        1.5252923      10327.432      20654.973      3.3323311    
   3536600   119142.88      10.776351     -8136865.5      0.12985155     354787.15     -7782078.4      1666.6071      1666.6071      1666.6071      1666.6964      3333.3036      1666.6964      3333.3036      1666.6964      3333.3036      4.6291335e+09  0.5            1770800        1.5353715      9921.4036      19842.667      3.323404     
   3536800   118453.09      10.917272     -8143476.2      0.12985155     352733.07     -7790743.2      1666.6071      1666.6071      1666.6071      1666.6964      3333.3036      1666.6964      3333.3036      1666.6964      3333.3036      4.6291335e+09  0.5            1770900        1.5451556      10220.586      20441.169      3.3138294    
   3537000   115843.43      11.049187     -8150038.6      0.12985155     344961.96     -7805076.6      1666.6071      1666.6071      1666.6071      1666.6964      3333.3036      1666.6964      3333.3036      1666.6964      3333.3036      4.6291335e+09  0.5            1771000        1.5548885      10274.455      20548.676      3.3041433    
   3537200   117640.73      11.325076     -8143722.6      0.12985155     350313.99     -7793408.6      1666.6071      1666.6071      1666.6071      1666.6964      3333.3036      1666.6964      3333.3036      1666.6964      3333.3036      4.6291335e+09  0.5            1771100        1.5652159      9683.0636      19366.364      3.2957076    
   3537400   123589.66      11.615489     -8143203.4      0.12985155     368028.91     -7775174.5      1666.6071      1666.6071      1666.6071      1666.6964      3333.3036      1666.6964      3333.3036      1666.6964      3333.3036      4.6291335e+09  0.5            1771200        1.5748615      10367.479      20734.858      3.2858267    
   3537600   122686.53      11.731842     -8144117.1      0.12985155     365339.55     -7778777.6      1666.6071      1666.6071      1666.6071      1666.6964      3333.3036      1666.6964      3333.3036      1666.6964      3333.3036      4.6291335e+09  0.5            1771300        1.5847704      10091.911      20183.957      3.2764928    
   3537800   118201.58      11.737052     -8144962.7      0.12985155     351984.13     -7792978.6      1666.6071      1666.6071      1666.6071      1666.6964      3333.3036      1666.6964      3333.3036      1666.6964      3333.3036      4.6291335e+09  0.5            1771400        1.5944123      10371.385      20742.735      3.2666052    
   3538000   118413.31      11.8568       -8143855.6      0.12985155     352614.63     -7791240.9      1666.6071      1666.6071      1666.6071      1666.6964      3333.3036      1666.6964      3333.3036      1666.6964      3333.3036      4.6291335e+09  0.5            1771500        1.6041552      10263.872      20527.36       3.2569261    
   3538200   127263.45      12.209138     -8142666.9      0.12985155     378968.82     -7763698        1666.6071      1666.6071      1666.6071      1666.6964      3333.3036      1666.6964      3333.3036      1666.6964      3333.3036      4.6291335e+09  0.5            1771600        1.6140312      10125.56       20251.354      3.247513     
   3538400   125905.32      12.321469     -8139485.2      0.12985155     374924.53     -7764560.6      1666.6071      1666.6071      1666.6071      1666.6964      3333.3036      1666.6964      3333.3036      1666.6964      3333.3036      4.6291335e+09  0.5            1771700        1.6236697      10375.082      20750.382      3.2376209    
   3538600   120742.04      12.226971     -8138162.5      0.12985155     359549.17     -7778613.3      1666.6071      1666.6071      1666.6071      1666.6964      3333.3036      1666.6964      3333.3036      1666.6964      3333.3036      4.6291335e+09  0.5            1771800        1.6337283      9941.6188      19882.884      3.2285634    
   3538800   122207.46      12.419226     -8136818.7      0.12985155     363912.95     -7772905.8      1666.6071      1666.6071      1666.6071      1666.6964      3333.3036      1666.6964      3333.3036      1666.6964      3333.3036      4.6291335e+09  0.5            1771900        1.6435525      10179.052      20358.399      3.2190331    
   3539000   128860.44      12.634404     -8150187.8      0.12985155     383724.38     -7766463.5      1666.6071      1666.6071      1666.6071      1666.6964      3333.3036      1666.6964      3333.3036      1666.6964      3333.3036      4.6291335e+09  0.5            1772000        1.6535307      10021.745      20043.408      3.2097994    
   3539200   128053.75      12.702117     -8148759.4      0.12985155     381322.19     -7767437.2      1666.6071      1666.6071      1666.6071      1666.6964      3333.3036      1666.6964      3333.3036      1666.6964      3333.3036      4.6291335e+09  0.5            1772100        1.6637947      9742.8074      19485.611      3.2011066    
   3539400   125837.07      12.638655     -8147360.4      0.12985155     374721.32     -7772639.1      1666.6071      1666.6071      1666.6071      1666.6964      3333.3036      1666.6964      3333.3036      1666.6964      3333.3036      4.6291335e+09  0.5            1772200        1.6734823      10322.603      20645.421      3.1912957    
   3539600   126941.17      12.722182     -8138608.4      0.12985155     378009.13     -7760599.3      1666.6071      1666.6071      1666.6071      1666.6964      3333.3036      1666.6964      3333.3036      1666.6964      3333.3036      4.6291335e+09  0.5            1772300        1.6833624      10121.35       20242.628      3.1818507    
   3539800   135574.28      12.924331     -8137250.9      0.12985155     403717.05     -7733533.8      1666.6071      1666.6071      1666.6071      1666.6964      3333.3036      1666.6964      3333.3036      1666.6964      3333.3036      4.6291335e+09  0.5            1772400        1.6929486      10431.608      20863.3        3.1718501    
   3540000   133968.14      12.822376     -8137765.1      0.12985155     398934.23     -7738830.8      1666.6071      1666.6071      1666.6071      1666.6964      3333.3036      1666.6964      3333.3036      1666.6964      3333.3036      4.6291335e+09  0.5            1772500        1.7027808      10170.614      20341.098      3.1623115    
   3540200   129203.67      12.731229     -8134531.9      0.12985155     384746.46     -7749785.4      1666.6071      1666.6071      1666.6071      1666.6964      3333.3036      1666.6964      3333.3036      1666.6964      3333.3036      4.6291335e+09  0.5            1772600        1.7124726      10318.066      20636.144      3.1525103    
   3540400   129169.15      12.6687       -8133274.5      0.12985155     384643.68     -7748630.8      1666.6071      1666.6071      1666.6071      1666.6964      3333.3036      1666.6964      3333.3036      1666.6964      3333.3036      4.6291335e+09  0.5            1772700        1.7223273      10147.396      20294.823      3.143008     
   3540600   132613.51      12.761939     -8132047.8      0.12985155     394900.4      -7737147.4      1666.6071      1666.6071      1666.6071      1666.6964      3333.3036      1666.6964      3333.3036      1666.6964      3333.3036      4.6291335e+09  0.5            1772800        1.7321459      10184.735      20369.401      3.1334364    
   3540800   136341.55      12.800257     -8130836.9      0.12985155     406001.84     -7724835.1      1666.6071      1666.6071      1666.6071      1666.6964      3333.3036      1666.6964      3333.3036      1666.6964      3333.3036      4.6291335e+09  0.5            1772900        1.741958       10191.504      20383.154      3.1238503    
   3541000   136395.4       12.730515     -8131526        0.12985155     406162.22     -7725363.8      1666.6071      1666.6071      1666.6071      1666.6964      3333.3036      1666.6964      3333.3036      1666.6964      3333.3036      4.6291335e+09  0.5            1773000        1.7517257      10237.822      20475.347      3.1141833    
   3541200   129821.8       12.417066     -8137729        0.12985155     386587.15     -7751141.8      1666.6071      1666.6071      1666.6071      1666.6964      3333.3036      1666.6964      3333.3036      1666.6964      3333.3036      4.6291335e+09  0.5            1773100        1.7618689      9858.8518      19717.595      3.1051766    
   3541400   130189.27      12.332859     -8136979.5      0.12985155     387681.4      -7749298.1      1666.6071      1666.6071      1666.6071      1666.6964      3333.3036      1666.6964      3333.3036      1666.6964      3333.3036      4.6291335e+09  0.5            1773200        1.7719795      9890.6783      19781.613      3.0960998    
   3541600   137466.86      12.408779     -8143241        0.12985155     409352.83     -7733888.2      1666.6071      1666.6071      1666.6071      1666.6964      3333.3036      1666.6964      3333.3036      1666.6964      3333.3036      4.6291335e+09  0.5            1773300        1.7816707      10318.652      20637.337      3.0862856    
   3541800   138261.09      12.310505     -8145890.2      0.12985155     411717.91     -7734172.3      1666.6071      1666.6071      1666.6071      1666.6964      3333.3036      1666.6964      3333.3036      1666.6964      3333.3036      4.6291335e+09  0.5            1773400        1.7915172      10155.819      20311.664      3.0767398    
   3542000   135473.89      12.07123      -8144733.6      0.12985155     403418.12     -7741315.5      1666.6071      1666.6071      1666.6071      1666.6964      3333.3036      1666.6964      3333.3036      1666.6964      3333.3036      4.6291335e+09  0.5            1773500        1.8011743      10355.069      20710.119      3.0668681    
   3542200   134186.69      11.918773     -8150960.4      0.12985155     399585.04     -7751375.3      1666.6071      1666.6071      1666.6071      1666.6964      3333.3036      1666.6964      3333.3036      1666.6964      3333.3036      4.6291335e+09  0.5            1773600        1.8110741      10101.202      20202.549      3.0574082    
   3542400   141614.74      11.949564     -8151702.3      0.12985155     421704.52     -7729997.8      1666.6071      1666.6071      1666.6071      1666.6964      3333.3036      1666.6964      3333.3036      1666.6964      3333.3036      4.6291335e+09  0.5            1773700        1.820811       10270.154      20540.148      3.0476713    
   3542600   143703.57      11.831251     -8150486.2      0.12985155     427924.69     -7722561.5      1666.6071      1666.6071      1666.6071      1666.6964      3333.3036      1666.6964      3333.3036      1666.6964      3333.3036      4.6291335e+09  0.5            1773800        1.8304703      10352.785      20705.503      3.0378053    
   3542800   137613.3       11.464335     -8149598.5      0.12985155     409788.9      -7739809.6      1666.6071      1666.6071      1666.6071      1666.6964      3333.3036      1666.6964      3333.3036      1666.6964      3333.3036      4.6291335e+09  0.5            1773900        1.840413       10057.521      20114.961      3.0284083    
   3543000   135750.96      11.288974     -8150223.7      0.12985155     404243.19     -7745980.5      1666.6071      1666.6071      1666.6071      1666.6964      3333.3036      1666.6964      3333.3036      1666.6964      3333.3036      4.6291335e+09  0.5            1774000        1.8501566      10263.203      20526.387      3.0186805    
   3543200   144282.26      11.32048      -8148527.3      0.12985155     429647.93     -7718879.4      1666.6071      1666.6071      1666.6071      1666.6964      3333.3036      1666.6964      3333.3036      1666.6964      3333.3036      4.6291335e+09  0.5            1774100        1.8602383      9918.9631      19838.084      3.0094996    
   3543400   145445.08      11.231222     -8145202.6      0.12985155     433110.61     -7712092        1666.6071      1666.6071      1666.6071      1666.6964      3333.3036      1666.6964      3333.3036      1666.6964      3333.3036      4.6291335e+09  0.5            1774200        1.8702356      10002.833      20005.742      3.0001729    
   3543600   141711.62      10.969882     -8145583.2      0.12985155     421993.01     -7723590.1      1666.6071      1666.6071      1666.6071      1666.6964      3333.3036      1666.6964      3333.3036      1666.6964      3333.3036      4.6291335e+09  0.5            1774300        1.8799014      10345.691      20691.345      2.990313     
   3543800   140464.94      10.761474     -8144009.1      0.12985155     418280.62     -7725728.5      1666.6071      1666.6071      1666.6071      1666.6964      3333.3036      1666.6964      3333.3036      1666.6964      3333.3036      4.6291335e+09  0.5            1774400        1.8897083      10196.885      20393.63       2.9806774    
   3544000   146887.41      10.731219     -8149711.5      0.12985155     437405.62     -7712305.9      1666.6071      1666.6071      1666.6071      1666.6964      3333.3036      1666.6964      3333.3036      1666.6964      3333.3036      4.6291335e+09  0.5            1774500        1.8995419      10169.258      20338.407      2.9710819    
   3544200   150303.98      10.626452     -8147872.2      0.12985155     447579.58     -7700292.6      1666.6071      1666.6071      1666.6071      1666.6964      3333.3036      1666.6964      3333.3036      1666.6964      3333.3036      4.6291335e+09  0.5            1774600        1.9094289      10114.222      20228.63       2.9615666    
   3544400   145287.34      10.425126     -8140429        0.12985155     432640.9      -7707788.1      1666.6071      1666.6071      1666.6071      1666.6964      3333.3036      1666.6964      3333.3036      1666.6964      3333.3036      4.6291335e+09  0.5            1774700        1.9193082      10122.237      20244.216      2.952036     
   3544600   143674.86      10.244298     -8138402        0.12985155     427839.19     -7710562.8      1666.6071      1666.6071      1666.6071      1666.6964      3333.3036      1666.6964      3333.3036      1666.6964      3333.3036      4.6291335e+09  0.5            1774800        1.9291556      10154.874      20309.954      2.9424529    
   3544800   145738.4       10.097626     -8143631.3      0.12985155     433984.08     -7709647.2      1666.6071      1666.6071      1666.6071      1666.6964      3333.3036      1666.6964      3333.3036      1666.6964      3333.3036      4.6291335e+09  0.5            1774900        1.9389971      10161.153      20322.456      2.9328581    
   3545000   149152.78      10.021397     -8141362.1      0.12985155     444151.52     -7697210.6      1666.6071      1666.6071      1666.6071      1666.6964      3333.3036      1666.6964      3333.3036      1666.6964      3333.3036      4.6291335e+09  0.5            1775000        1.9486865      10320.515      20640.779      2.9230333    
   3545200   151019.05      9.9017341     -8140851.2      0.12985155     449708.94     -7691142.2      1666.6071      1666.6071      1666.6071      1666.6964      3333.3036      1666.6964      3333.3036      1666.6964      3333.3036      4.6291335e+09  0.5            1775100        1.9587191      9967.498       19935          2.9137204    
   3545400   149917.78      9.7101904     -8138360.4      0.12985155     446429.56     -7691930.9      1666.6071      1666.6071      1666.6071      1666.6964      3333.3036      1666.6964      3333.3036      1666.6964      3333.3036      4.6291335e+09  0.5            1775200        1.9686446      10075.165      20150.472      2.9042411    
   3545600   146317.56      9.5630649     -8135841.3      0.12985155     435708.71     -7700132.6      1666.6071      1666.6071      1666.6071      1666.6964      3333.3036      1666.6964      3333.3036      1666.6964      3333.3036      4.6291335e+09  0.5            1775300        1.9786074      10037.25       20074.374      2.8948132    
   3545800   149049.85      9.3987243     -8131427.8      0.12985155     443845.01     -7687582.8      1666.6071      1666.6071      1666.6071      1666.6964      3333.3036      1666.6964      3333.3036      1666.6964      3333.3036      4.6291335e+09  0.5            1775400        1.9882943      10323.238      20646.564      2.8849792    
   3546000   155426.4       9.5428858     -8126585.1      0.12985155     462833.27     -7663751.8      1666.6071      1666.6071      1666.6071      1666.6964      3333.3036      1666.6964      3333.3036      1666.6964      3333.3036      4.6291335e+09  0.5            1775500        1.9982133      10081.674      20163.209      2.875481     
   3546200   154360.59      9.3133652     -8125903.1      0.12985155     459659.47     -7666243.6      1666.6071      1666.6071      1666.6071      1666.6964      3333.3036      1666.6964      3333.3036      1666.6964      3333.3036      4.6291335e+09  0.5            1775600        2.0079536      10266.525      20533.196      2.8657234    
   3546400   148458.64      8.9514986     -8123389.2      0.12985155     442084.48     -7681304.8      1666.6071      1666.6071      1666.6071      1666.6964      3333.3036      1666.6964      3333.3036      1666.6964      3333.3036      4.6291335e+09  0.5            1775700        2.0176724      10289.47       20578.933      2.8559355    
   3546600   145473.45      8.7803696     -8121023.5      0.12985155     433195.11     -7687828.4      1666.6071      1666.6071      1666.6071      1666.6964      3333.3036      1666.6964      3333.3036      1666.6964      3333.3036      4.6291335e+09  0.5            1775800        2.0275286      10145.885      20291.819      2.8463413    
   3546800   156156.46      8.9061137     -8126149.8      0.12985155     465007.26     -7661142.6      1666.6071      1666.6071      1666.6071      1666.6964      3333.3036      1666.6964      3333.3036      1666.6964      3333.3036      4.6291335e+09  0.5            1775900        2.0373881      10142.463      20285.013      2.8367492    
   3547000   158547.72      8.8160224     -8133644.9      0.12985155     472128.05     -7661516.8      1666.6071      1666.6071      1666.6071      1666.6964      3333.3036      1666.6964      3333.3036      1666.6964      3333.3036      4.6291335e+09  0.5            1776000        2.0473873      10000.808      20001.564      2.8273473    
   3547200   154994.04      8.572213      -8131670.6      0.12985155     461545.78     -7670124.8      1666.6071      1666.6071      1666.6071      1666.6964      3333.3036      1666.6964      3333.3036      1666.6964      3333.3036      4.6291335e+09  0.5            1776100        2.0571313      10262.737      20525.374      2.8175904    
   3547400   152310.51      8.3661181     -8131782.9      0.12985155     453554.7      -7678228.2      1666.6071      1666.6071      1666.6071      1666.6964      3333.3036      1666.6964      3333.3036      1666.6964      3333.3036      4.6291335e+09  0.5            1776200        2.0673738      9763.2385      19526.477      2.8085108    
   3547600   159819.06      8.319717      -8137555.3      0.12985155     475913.87     -7661641.4      1666.6071      1666.6071      1666.6071      1666.6964      3333.3036      1666.6964      3333.3036      1666.6964      3333.3036      4.6291335e+09  0.5            1776300        2.0772615      10113.602      20227.288      2.7989421    
   3547800   163903.95      8.2908628     -8134146.4      0.12985155     488077.97     -7646068.5      1666.6071      1666.6071      1666.6071      1666.6964      3333.3036      1666.6964      3333.3036      1666.6964      3333.3036      4.6291335e+09  0.5            1776400        2.0869126      10361.493      20722.863      2.7890543    
   3548000   158666.47      7.9637797     -8132756.3      0.12985155     472481.66     -7660274.7      1666.6071      1666.6071      1666.6071      1666.6964      3333.3036      1666.6964      3333.3036      1666.6964      3333.3036      4.6291335e+09  0.5            1776500        2.0967604      10154.446      20308.847      2.7794297    
   3548200   156325.81      7.663292      -8138472.2      0.12985155     465511.57     -7672960.6      1666.6071      1666.6071      1666.6071      1666.6964      3333.3036      1666.6964      3333.3036      1666.6964      3333.3036      4.6291335e+09  0.5            1776600        2.1064783      10290.354      20580.843      2.7696317    
   3548400   159319.56      7.6276179     -8137630.8      0.12985155     474426.43     -7663204.4      1666.6071      1666.6071      1666.6071      1666.6964      3333.3036      1666.6964      3333.3036      1666.6964      3333.3036      4.6291335e+09  0.5            1776700        2.1163763      10103.089      20206.298      2.7600695    
   3548600   160973.6       7.5882256     -8145736        0.12985155     479351.89     -7666384.1      1666.6071      1666.6071      1666.6071      1666.6964      3333.3036      1666.6964      3333.3036      1666.6964      3333.3036      4.6291335e+09  0.5            1776800        2.1260411      10346.723      20693.251      2.7502029    
   3548800   161890.08      7.3944619     -8142655        0.12985155     482081        -7660574        1666.6071      1666.6071      1666.6071      1666.6964      3333.3036      1666.6964      3333.3036      1666.6964      3333.3036      4.6291335e+09  0.5            1776900        2.1361457      9896.5749      19793.201      2.740902     
   3549000   163728.61      7.3605142     -8141058.8      0.12985155     487555.83     -7653503        1666.6071      1666.6071      1666.6071      1666.6964      3333.3036      1666.6964      3333.3036      1666.6964      3333.3036      4.6291335e+09  0.5            1777000        2.1459117      10239.501      20478.947      2.7311634    
   3549200   167192.06      7.2683033     -8142005.1      0.12985155     497869.4      -7644135.7      1666.6071      1666.6071      1666.6071      1666.6964      3333.3036      1666.6964      3333.3036      1666.6964      3333.3036      4.6291335e+09  0.5            1777100        2.155895       10016.755      20033.717      2.7216982    
   3549400   168882.03      7.1893709     -8142446.9      0.12985155     502901.84     -7639545.1      1666.6071      1666.6071      1666.6071      1666.6964      3333.3036      1666.6964      3333.3036      1666.6964      3333.3036      4.6291335e+09  0.5            1777200        2.1660005      9895.7091      19791.385      2.7123816    
   3549600   161942.15      6.8746463     -8140882.2      0.12985155     482236.07     -7658646.1      1666.6071      1666.6071      1666.6071      1666.6964      3333.3036      1666.6964      3333.3036      1666.6964      3333.3036      4.6291335e+09  0.5            1777300        2.1763223      9688.2486      19376.428      2.7033267    
   3549800   158904.27      6.6540028     -8129960.2      0.12985155     473189.79     -7656770.4      1666.6071      1666.6071      1666.6071      1666.6964      3333.3036      1666.6964      3333.3036      1666.6964      3333.3036      4.6291335e+09  0.5            1777400        2.1860556      10273.987      20547.935      2.6935355    
[...]
   4194400   313.76831      1.053571      -10140390       0.15580004     934.34844     -10139455       1568.4105      1568.4105      1568.4105      1715.7947      3284.2053      1715.7947      3284.2053      1715.7947      3284.2053      3.8581513e+09  0.5            2099700        20.504933      6788.7861      13577.576      0.75104463   
   4194600   313.73362      1.1995458     -10140551       0.15582627     934.24515     -10139617       1568.3225      1568.3225      1568.3225      1715.8387      3284.1613      1715.8387      3284.1613      1715.8387      3284.1613      3.8575019e+09  0.5            2099800        20.520051      6614.5817      13229.168      0.736908     
   4194800   313.7494       1.1768941     -10140719       0.15583751     934.29214     -10139784       1568.2848      1568.2848      1568.2848      1715.8576      3284.1424      1715.8576      3284.1424      1715.8576      3284.1424      3.8572237e+09  0.5            2099900        20.534472      6934.4406      13868.883      0.72274547   
   4195000   313.84851      1.2177985     -10148260       0.15585843     934.58726     -10147326       1568.2147      1568.2147      1568.2147      1715.8927      3284.1073      1715.8927      3284.1073      1715.8927      3284.1073      3.8567061e+09  0.5            2100000        20.548272      7246.2545      14492.46       0.70856119   
   4195200   313.964        1.033502      -10148435       0.15585492     934.93118     -10147500       1568.2264      1568.2264      1568.2264      1715.8868      3284.1132      1715.8868      3284.1132      1715.8868      3284.1132      3.8567929e+09  0.5            2100100        20.562094      7235.0471      14470.169      0.69437816   
   4195400   314.02658      1.2644203     -10148594       0.1558896      935.11752     -10147659       1568.1101      1568.1101      1568.1101      1715.9449      3284.0551      1715.9449      3284.0551      1715.9449      3284.0551      3.8559348e+09  0.5            2100200        20.575895      7245.5367      14491.124      0.68019496   
   4195600   313.8916       0.97182751    -10148773       0.1558751      934.71557     -10147838       1568.1588      1568.1588      1568.1588      1715.9206      3284.0794      1715.9206      3284.0794      1715.9206      3284.0794      3.8562935e+09  0.5            2100300        20.590116      7031.7732      14063.511      0.66602587   
   4195800   313.71062      0.80082241    -10148946       0.15587178     934.17666     -10148012       1568.1699      1568.1699      1568.1699      1715.9151      3284.0849      1715.9151      3284.0849      1715.9151      3284.0849      3.8563757e+09  0.5            2100400        20.603945      7231.2049      14462.418      0.65184429   
   4196000   313.61213      1.2584121     -10149097       0.15592726     933.88336     -10148163       1567.9839      1567.9839      1567.9839      1716.008       3283.992       1716.008       3283.992       1716.008       3283.992       3.8550037e+09  0.5            2100500        20.618153      7038.217       14076.339      0.63767493   
   4196200   313.54308      1.0024095     -10149272       0.15591646     933.67774     -10148339       1568.0201      1568.0201      1568.0201      1715.99        3284.01        1715.99        3284.01        1715.99        3284.01        3.8552706e+09  0.5            2100600        20.632001      7221.5733      14443.244      0.62349461   
   4196400   313.54548      0.80554289    -10149444       0.15591175     933.68489     -10148510       1568.0359      1568.0359      1568.0359      1715.9821      3284.0179      1715.9821      3284.0179      1715.9821      3284.0179      3.855387e+09   0.5            2100700        20.645779      7257.8084      14515.648      0.6093127    
   4196600   313.6721       0.83862549    -10149609       0.15592963     934.06195     -10148675       1567.9759      1567.9759      1567.9759      1716.012       3283.988       1716.012       3283.988       1716.012       3283.988       3.854945e+09   0.5            2100800        20.659553      7260.0894      14520.17       0.59513123   
   4196800   313.86428      0.92050257    -10149772       0.15595267     934.63423     -10148838       1567.8987      1567.8987      1567.8987      1716.0506      3283.9494      1716.0506      3283.9494      1716.0506      3283.9494      3.8543754e+09  0.5            2100900        20.673292      7278.5713      14557.207      0.58094933   
   4197000   313.99227      1.0434017     -10149935       0.15597944     935.01535     -10149000       1567.809       1567.809       1567.809       1716.0955      3283.9045      1716.0955      3283.9045      1716.0955      3283.9045      3.853714e+09   0.5            2101000        20.687237      7170.9067      14341.688      0.56677369   
   4197200   314.09077      1.1559461     -10150099       0.15600454     935.30869     -10149164       1567.7249      1567.7249      1567.7249      1716.1375      3283.8625      1716.1375      3283.8625      1716.1375      3283.8625      3.8530939e+09  0.5            2101100        20.701823      6856.0377      13712.168      0.55261546   
   4197400   314.04609      0.98400826    -10150274       0.15600209     935.17563     -10149338       1567.7331      1567.7331      1567.7331      1716.1334      3283.8666      1716.1334      3283.8666      1716.1334      3283.8666      3.8531544e+09  0.5            2101200        20.715963      7072.2853      14144.496      0.53844506   
   4197600   313.91192      0.91897258    -10150444       0.15600884     934.77608     -10149509       1567.7105      1567.7105      1567.7105      1716.1447      3283.8553      1716.1447      3283.8553      1716.1447      3283.8553      3.8529877e+09  0.5            2101300        20.729712      7273.1171      14546.311      0.52426482   
   4197800   313.76139      1.088582      -10150607       0.15603646     934.32784     -10149672       1567.618       1567.618       1567.618       1716.191       3283.809       1716.191       3283.809       1716.191       3283.809       3.8523058e+09  0.5            2101400        20.743452      7277.8763      14555.667      0.51008495   
   4198000   313.53214      0.95293907    -10150779       0.15603566     933.64517     -10149845       1567.6207      1567.6207      1567.6207      1716.1897      3283.8103      1716.1897      3283.8103      1716.1897      3283.8103      3.8523254e+09  0.5            2101500        20.757229      7258.6998      14517.376      0.49590655   
   4198200   313.4293       0.9889187     -10150944       0.15605056     933.33895     -10150010       1567.5708      1567.5708      1567.5708      1716.2146      3283.7854      1716.2146      3283.7854      1716.2146      3283.7854      3.8519575e+09  0.5            2101600        20.771368      7072.2273      14144.55       0.48173712   
   4198400   313.39155      1.0227301     -10151108       0.15606595     933.22653     -10150175       1567.5193      1567.5193      1567.5193      1716.2404      3283.7596      1716.2404      3283.7596      1716.2404      3283.7596      3.8515778e+09  0.5            2101700        20.785309      7173.3788      14346.736      0.46756324   
   4198600   313.50278      1.058837      -10151272       0.15608282     933.55775     -10150338       1567.4628      1567.4628      1567.4628      1716.2686      3283.7314      1716.2686      3283.7314      1716.2686      3283.7314      3.8511616e+09  0.5            2101800        20.799097      7252.8134      14505.651      0.45338636   
   4198800   313.69767      0.83317102    -10151444       0.15607616     934.13809     -10150510       1567.4851      1567.4851      1567.4851      1716.2575      3283.7425      1716.2575      3283.7425      1716.2575      3283.7425      3.8513258e+09  0.5            2101900        20.813224      7078.6878      14157.364      0.43921716   
   4199000   313.8976       1.1519816     -10151600       0.15612012     934.73344     -10150665       1567.338       1567.338       1567.338       1716.331       3283.669       1716.331       3283.669       1716.331       3283.669       3.8502413e+09  0.5            2102000        20.827612      6949.7905      13899.492      0.42505337   
   4199200   313.95814      0.94872058    -10151773       0.15611489     934.91372     -10150839       1567.3555      1567.3555      1567.3555      1716.3223      3283.6777      1716.3223      3283.6777      1716.3223      3283.6777      3.8503703e+09  0.5            2102100        20.841454      7224.4407      14448.99       0.41087848   
   4199400   313.87753      0.96195078    -10151940       0.15612914     934.67368     -10151005       1567.3078      1567.3078      1567.3078      1716.3461      3283.6539      1716.3461      3283.6539      1716.3461      3283.6539      3.8500189e+09  0.5            2102200        20.855222      7263.4391      14526.841      0.39670264   
   4199600   313.75121      1.0960239     -10152102       0.15615412     934.29754     -10151168       1567.2242      1567.2242      1567.2242      1716.3879      3283.6121      1716.3879      3283.6121      1716.3879      3283.6121      3.849403e+09   0.5            2102300        20.868947      7285.8874      14571.802      0.38252657   
   4199800   313.5836       0.8732287     -10152276       0.1561459      933.79842     -10151342       1567.2517      1567.2517      1567.2517      1716.3742      3283.6258      1716.3742      3283.6258      1716.3742      3283.6258      3.8496056e+09  0.5            2102400        20.882832      7202.2106      14404.425      0.36835393   
   4200000   313.48396      1.1532821     -10152432       0.15618391     933.50171     -10151499       1567.1246      1567.1246      1567.1246      1716.4377      3283.5623      1716.4377      3283.5623      1716.4377      3283.5623      3.8486689e+09  0.5            2102500        20.896621      7252.0997      14504.096      0.35418006   
   4200200   313.40992      0.77841827    -10152609       0.15616176     933.28123     -10151676       1567.1986      1567.1986      1567.1986      1716.4007      3283.5993      1716.4007      3283.5993      1716.4007      3283.5993      3.8492147e+09  0.5            2102600        20.910588      7159.484       14319.048      0.34000961   
   4200400   313.45664      0.94855428    -10152769       0.15619023     933.42035     -10151836       1567.1034      1567.1034      1567.1034      1716.4483      3283.5517      1716.4483      3283.5517      1716.4483      3283.5517      3.848513e+09   0.5            2102700        20.924861      7006.6646      14013.361      0.32584418   
   4200600   313.5353       1.2102304     -10154818       0.15622886     933.65459     -10153885       1566.9742      1566.9742      1566.9742      1716.5129      3283.4871      1716.5129      3283.4871      1716.5129      3283.4871      3.8475615e+09  0.5            2102800        20.938662      7245.4239      14490.826      0.3116716    
   4200800   313.60995      1.4503537     -10162348       0.15626768     933.87688     -10161414       1566.8445      1566.8445      1566.8445      1716.5778      3283.4222      1716.5778      3283.4222      1716.5778      3283.4222      3.8466056e+09  0.5            2102900        20.952493      7230.5106      14461.043      0.29749993   
   4201000   313.65184      1.210763      -10162524       0.15625893     934.00163     -10161590       1566.8737      1566.8737      1566.8737      1716.5631      3283.4369      1716.5631      3283.4369      1716.5631      3283.4369      3.8468211e+09  0.5            2103000        20.96637       7206.1389      14412.143      0.28332936   
   4201200   313.84716      1.2313278     -10162688       0.15627464     934.58325     -10161754       1566.8212      1566.8212      1566.8212      1716.5894      3283.4106      1716.5894      3283.4106      1716.5894      3283.4106      3.8464344e+09  0.5            2103100        20.980435      7109.692       14219.419      0.26916159   
   4201400   313.82792      0.72189244    -10162871       0.15624081     934.52594     -10161936       1566.9343      1566.9343      1566.9343      1716.5329      3283.4671      1716.5329      3283.4671      1716.5329      3283.4671      3.8472673e+09  0.5            2103200        20.994236      7245.7557      14491.59       0.25499075   
   4201600   313.7718       0.92943481    -10163399       0.15627382     934.35884     -10162465       1566.824       1566.824       1566.824       1716.588       3283.412       1716.588       3283.412       1716.588       3283.412       3.8464546e+09  0.5            2103300        21.008211      7155.5946      14311.148      0.24082241   
   4201800   313.65809      1.1224738     -10170935       0.15630741     934.02025     -10170001       1566.7117      1566.7117      1566.7117      1716.6441      3283.3559      1716.6441      3283.3559      1716.6441      3283.3559      3.845628e+09   0.5            2103400        21.022256      7120.3198      14240.716      0.22665507   
   4202000   313.50169      1.0805527     -10171102       0.15631633     933.55451     -10170169       1566.6819      1566.6819      1566.6819      1716.659       3283.341       1716.659       3283.341       1716.659       3283.341       3.8454085e+09  0.5            2103500        21.03614       7202.3112      14404.484      0.21248629   
   4202200   313.48082      0.88542931    -10171273       0.15631161     933.49234     -10170340       1566.6977      1566.6977      1566.6977      1716.6512      3283.3488      1716.6512      3283.3488      1716.6512      3283.3488      3.8455246e+09  0.5            2103600        21.050011      7209.4955      14419.099      0.19831775   
   4202400   313.62864      1.1209884     -10171430       0.15634723     933.93253     -10170496       1566.5787      1566.5787      1566.5787      1716.7107      3283.2893      1716.7107      3283.2893      1716.7107      3283.2893      3.8446485e+09  0.5            2103700        21.063773      7266.1339      14532.233      0.18414868   
   4202600   313.7569       0.88461802    -10171604       0.15633915     934.31447     -10170669       1566.6057      1566.6057      1566.6057      1716.6972      3283.3028      1716.6972      3283.3028      1716.6972      3283.3028      3.8448471e+09  0.5            2103800        21.077553      7257.1642      14514.296      0.16998028   
   4202800   313.83402      1.1104373     -10171763       0.15637257     934.54411     -10170828       1566.4941      1566.4941      1566.4941      1716.753       3283.247       1716.753       3283.247       1716.753       3283.247       3.8440254e+09  0.5            2103900        21.091456      7192.6462      14385.316      0.15581332   
   4203000   313.61706      0.94601967    -10171934       0.15636928     933.89804     -10171000       1566.505       1566.505       1566.505       1716.7475      3283.2525      1716.7475      3283.2525      1716.7475      3283.2525      3.8441063e+09  0.5            2104000        21.105519      7110.7784      14221.524      0.14164779   
   4203200   313.42749      0.95874478    -10172099       0.15638188     933.33353     -10171166       1566.463       1566.463       1566.463       1716.7685      3283.2315      1716.7685      3283.2315      1716.7685      3283.2315      3.8437966e+09  0.5            2104100        21.119759      7022.3531      14044.764      0.12748347   
   4203400   313.29335      1.1026572     -10172258       0.15640654     932.93409     -10171325       1566.3806      1566.3806      1566.3806      1716.8097      3283.1903      1716.8097      3283.1903      1716.8097      3283.1903      3.8431905e+09  0.5            2104200        21.133519      7267.4493      14534.837      0.11331647   
   4203600   313.16968      0.8827696     -10172429       0.1563982      932.56584     -10171496       1566.4085      1566.4085      1566.4085      1716.7958      3283.2042      1716.7958      3283.2042      1716.7958      3283.2042      3.8433955e+09  0.5            2104300        21.14726       7277.6168      14555.262      0.099149924  
   4203800   313.1884       1.118273      -10172583       0.15643219     932.62158     -10171650       1566.295       1566.295       1566.295       1716.8525      3283.1475      1716.8525      3283.1475      1716.8525      3283.1475      3.8425603e+09  0.5            2104400        21.161061      7245.7572      14491.564      0.084984191  
   4204000   313.18653      0.87039673    -10172753       0.15642224     932.616       -10171820       1566.3282      1566.3282      1566.3282      1716.8359      3283.1641      1716.8359      3283.1641      1716.8359      3283.1641      3.8428048e+09  0.5            2104500        21.174861      7246.1206      14492.171      0.070818943  
   4204200   313.32403      1.1434535     -10172906       0.1564602      933.02545     -10171973       1566.2015      1566.2015      1566.2015      1716.8992      3283.1008      1716.8992      3283.1008      1716.8992      3283.1008      3.8418725e+09  0.5            2104600        21.188861      7143.2424      14286.553      0.056654714  
   4204400   313.31682      0.8492562     -10173078       0.15644581     933.004       -10172145       1566.2496      1566.2496      1566.2496      1716.8752      3283.1248      1716.8752      3283.1248      1716.8752      3283.1248      3.8422259e+09  0.5            2104700        21.202592      7282.3866      14564.765      0.04249017   
   4204600   313.34672      1.11168       -10173231       0.15648315     933.09302     -10172297       1566.125       1566.125       1566.125       1716.9375      3283.0625      1716.9375      3283.0625      1716.9375      3283.0625      3.841309e+09   0.5            2104800        21.216765      7055.6712      14111.352      0.028326793  
   4204800   313.36875      1.0452954     -10173394       0.15649042     933.15861     -10172461       1566.1007      1566.1007      1566.1007      1716.9496      3283.0504      1716.9496      3283.0504      1716.9496      3283.0504      3.8411306e+09  0.5            2104900        21.230518      7271.4988      14542.948      0.014163122  
   4205000   313.34477      0.75411482    -10173565       0.15647693     933.08721     -10172632       1566.1457      1566.1457      1566.1457      1716.9271      3283.0729      1716.9271      3283.0729      1716.9271      3283.0729      3.8414618e+09  0.5            2105000        21.244321      7244.7803      14489.526      0            
Loop time of 21.2444 on 4 procs for 300000 steps with 1000 atoms

Performance: 610.043 ns/day, 0.039 hours/ns, 14121.375 timesteps/s
99.6% CPU use with 4 MPI tasks x no OpenMP threads

MPI task timing breakdown:
Section |  min time  |  avg time  |  max time  |%varavg| %total
---------------------------------------------------------------
Pair    | 0.84239    | 3.0181     | 6.3341     | 116.5 | 14.21
Neigh   | 0.00705    | 0.017276   | 0.032451   |   7.1 |  0.08
Comm    | 6.5856     | 8.9439     | 10.252     |  47.3 | 42.10
Output  | 0.054747   | 0.073694   | 0.12811    |  11.6 |  0.35
Modify  | 6.6946     | 7.015      | 7.4454     |  11.7 | 33.02
Other   |            | 2.176      |            |       | 10.24

Nlocal:            250 ave         428 max         116 min
Histogram: 1 0 0 2 0 0 0 0 0 1
Nghost:         272.75 ave         360 max         192 min
Histogram: 1 0 0 1 0 1 0 0 0 1
Neighs:         350.25 ave         795 max          63 min
Histogram: 1 0 1 1 0 0 0 0 0 1

Total # of neighbors = 1401
Ave neighs/atom = 1.401
Neighbor list builds = 227
Dangerous builds = 39

# run_style
run_style verlet

# write restart
write_restart ${write_res}
write_restart ./pgnpmf/37/equpmf6.res
System init for write_restart ...
Generated 0 of 1 mixed pair_coeff terms from geometric mixing rule

Total wall time: 0:00:41
