LAMMPS (23 Jun 2022 - Update 1)
OMP_NUM_THREADS environment is not set. Defaulting to 1 thread. (src/comm.cpp:98)
  using 1 OpenMP thread(s) per MPI task
# Read restart
read_restart ${read_res}
read_restart ./pgnpmf/37/equpmf79.res
Reading restart file ...
  restart file = 23 Jun 2022, LAMMPS = 23 Jun 2022
  restoring atom style atomic from restart
  orthogonal box = (2147.6932 2147.6932 2147.6932) to (2852.3068 2852.3068 2852.3068)
  1 by 1 by 1 MPI processor grid
  restoring pair style table from restart
  1000 atoms
  read_restart CPU = 0.004 seconds

# Settings

pair_style table spline 9941

pair_coeff 1 1 ./pgnpmf/N20.txt DE_GNP 75.6
pair_coeff 2 2 ./pgnpmf/N100.txt DE_GNP 115.92
WARNING: 3 of 9941 force values in table DE_GNP are inconsistent with -dE/dr.
WARNING:  Should only be flagged at inflection points (src/pair_table.cpp:463)
pair_coeff 1 2 ./pgnpmf/mixed_potential.txt DE_GNP 95.66
WARNING: 1562 of 9941 force values in table DE_GNP are inconsistent with -dE/dr.
WARNING:  Should only be flagged at inflection points (src/pair_table.cpp:463)

#Neigh_list Calc Frequency

neigh_modify delay 0 every 1 check yes

# Saving Frequency (50 frames)

variable ts_save equal ${steps_equ}
variable ts_save equal 5000

# Dump
#dump 1 all custom ${ts_save} ./pgnpmf/${folder}/equilibration/trajectory/trajectory_${usic}_${trial}.equ.custom type x y z ix iy iz
#dump_modify 1 first no sort id
#dump 2 all cfg 50000 ./equilibration/trajectory/ovito/dumpgen.tens_*.cfg mass type xs ys zs fx fy fz

# thermo_style
thermo_style custom step temp press pe density ke etotal lx ly lz xlo xhi ylo yhi zlo zhi vol dt time cpu tpcpu spcpu cpuremain

# run info
timestep ${ts}
timestep 0.1
thermo 200

# fix

fix 1 all momentum 1000 linear 1 1 1 angular
variable T equal ${temp}
variable T equal 300
fix 2 all nvt temp ${T} 370000 100.0
fix 2 all nvt temp 300 370000 100.0

run 100000
Generated 0 of 1 mixed pair_coeff terms from geometric mixing rule
Unused restart file global fix info:
  fix style: npt, fix ID: 5
Neighbor list info ...
  update every 1 steps, delay 0 steps, check yes
  max neighbors/atom: 2000, page size: 100000
  master list distance cutoff = 117.92
  ghost atom cutoff = 117.92
  binsize = 58.96, bins = 12 12 12
  1 neighbor lists, perpetual/occasional/extra = 1 0 0
  (1) pair table, perpetual
      attributes: half, newton on
      pair build: half/bin/atomonly/newton
      stencil: half/bin/3d
      bin: standard
Per MPI rank memory allocation (min/avg/max) = 3.111 | 3.111 | 3.111 Mbytes
   Step          Temp          Press          PotEng        Density         KinEng         TotEng           Lx             Ly             Lz            Xlo            Xhi            Ylo            Yhi            Zlo            Zhi           Volume           Dt            Time           CPU           T/CPU          S/CPU         CPULeft    
  55305000   304.91745      0.51643491    -44042064       1.7182801      907.99211     -44041156       704.6135       704.6135       704.6135       2147.6932      2852.3068      2147.6932      2852.3068      2147.6932      2852.3068      3.4982664e+08  0.1            16455000       0              0              0              0            
  55305200   330.40394      0.36994872    -44042125       1.7182801      983.88653     -44041142       704.6135       704.6135       704.6135       2147.6932      2852.3068      2147.6932      2852.3068      2147.6932      2852.3068      3.4982664e+08  0.1            16455020       0.040855355    489.52012      4895.0988      20.388176    
  55305400   369.10055      0.22067559    -44042190       1.7182801      1099.1184     -44041091       704.6135       704.6135       704.6135       2147.6932      2852.3068      2147.6932      2852.3068      2147.6932      2852.3068      3.4982664e+08  0.1            16455040       0.081702442    489.63119      4896.2963      20.3446      
  55305600   410.90994      0.063354805   -44042258       1.7182801      1223.6196     -44041035       704.6135       704.6135       704.6135       2147.6932      2852.3068      2147.6932      2852.3068      2147.6932      2852.3068      3.4982664e+08  0.1            16455060       0.12252275     489.95522      4899.5582      20.298336    
  55305800   461.78985     -0.10039666    -44042331       1.7182801      1375.1313     -44040955       704.6135       704.6135       704.6135       2147.6932      2852.3068      2147.6932      2852.3068      2147.6932      2852.3068      3.4982664e+08  0.1            16455080       0.16333285     490.07678      4900.7768      20.253545    
  55306000   521.12822     -0.27214298    -44042407       1.7182801      1551.8308     -44040855       704.6135       704.6135       704.6135       2147.6932      2852.3068      2147.6932      2852.3068      2147.6932      2852.3068      3.4982664e+08  0.1            16455100       0.20426335     488.63347      4886.3348      20.222282    
  55306200   589.25434     -0.45269986    -44042488       1.7182801      1754.6988     -44040733       704.6135       704.6135       704.6135       2147.6932      2852.3068      2147.6932      2852.3068      2147.6932      2852.3068      3.4982664e+08  0.1            16455120       0.24511365     489.59249      4895.9196      20.181207    
  55306400   667.05554     -0.6430943     -44042574       1.7182801      1986.3775     -44040588       704.6135       704.6135       704.6135       2147.6932      2852.3068      2147.6932      2852.3068      2147.6932      2852.3068      3.4982664e+08  0.1            16455140       0.2860031      489.12235      4891.2254      20.142951    
  55306600   755.57436     -0.84404506    -44042666       1.7182801      2249.9714     -44040416       704.6135       704.6135       704.6135       2147.6932      2852.3068      2147.6932      2852.3068      2147.6932      2852.3068      3.4982664e+08  0.1            16455160       0.32687824     489.29624      4892.9643      20.103144    
  55306800   856.03926     -1.056123      -44042763       1.7182801      2549.1388     -44040214       704.6135       704.6135       704.6135       2147.6932      2852.3068      2147.6932      2852.3068      2147.6932      2852.3068      3.4982664e+08  0.1            16455180       0.36777239     489.06697      4890.6718      20.064145    
  55307000   969.71605     -1.2797641     -44042867       1.7182801      2887.6488     -44039979       704.6135       704.6135       704.6135       2147.6932      2852.3068      2147.6932      2852.3068      2147.6932      2852.3068      3.4982664e+08  0.1            16455200       0.40874499     488.13052      4881.2994      20.028619    
  55307200   1098.4064     -1.5152544     -44042976       1.7182801      3270.8666     -44039705       704.6135       704.6135       704.6135       2147.6932      2852.3068      2147.6932      2852.3068      2147.6932      2852.3068      3.4982664e+08  0.1            16455220       0.45055962     478.30213      4783.0157      20.029529    
  55307400   1243.8152     -1.7632639     -44043093       1.7182801      3703.8691     -44039389       704.6135       704.6135       704.6135       2147.6932      2852.3068      2147.6932      2852.3068      2147.6932      2852.3068      3.4982664e+08  0.1            16455240       0.49147269     488.84027      4888.4079      19.98665     
  55307600   1407.9407     -2.0239006     -44043217       1.7182801      4192.6069     -44039024       704.6135       704.6135       704.6135       2147.6932      2852.3068      2147.6932      2852.3068      2147.6932      2852.3068      3.4982664e+08  0.1            16455260       0.53229948     489.87317      4898.7318      19.940848    
  55307800   1593.0112     -2.2964122     -44043348       1.7182801      4743.7152     -44038605       704.6135       704.6135       704.6135       2147.6932      2852.3068      2147.6932      2852.3068      2147.6932      2852.3068      3.4982664e+08  0.1            16455280       0.57316364     489.42884      4894.2819      19.897047    
  55308000   1801.3596     -2.5800942     -44043488       1.7182801      5364.1412     -44038124       704.6135       704.6135       704.6135       2147.6932      2852.3068      2147.6932      2852.3068      2147.6932      2852.3068      3.4982664e+08  0.1            16455300       0.61408746     488.71377      4887.144       19.855565    
  55308200   2035.9463     -2.87438       -44043637       1.7182801      6062.7006     -44037574       704.6135       704.6135       704.6135       2147.6932      2852.3068      2147.6932      2852.3068      2147.6932      2852.3068      3.4982664e+08  0.1            16455320       0.65529372     485.36064      4853.6133      19.822704    
  55308400   2299.7169     -3.3402862     -44045689       1.7182801      6848.1642     -44038841       704.6135       704.6135       704.6135       2147.6932      2852.3068      2147.6932      2852.3068      2147.6932      2852.3068      3.4982664e+08  0.1            16455340       0.69616141     489.38511      4893.8371      19.779242    
  55308600   2596.0252     -3.65324       -44045856       1.7182801      7730.5197     -44038126       704.6135       704.6135       704.6135       2147.6932      2852.3068      2147.6932      2852.3068      2147.6932      2852.3068      3.4982664e+08  0.1            16455360       0.73701809     489.51389      4895.1423      19.735774    
  55308800   2928.4959     -3.9749477     -44046034       1.7182801      8720.5607     -44037313       704.6135       704.6135       704.6135       2147.6932      2852.3068      2147.6932      2852.3068      2147.6932      2852.3068      3.4982664e+08  0.1            16455380       0.77792196     488.95284      4889.5338      19.693767    
  55309000   3300.9808     -4.8504463     -44055495       1.7182801      9829.7572     -44045665       704.6135       704.6135       704.6135       2147.6932      2852.3068      2147.6932      2852.3068      2147.6932      2852.3068      3.4982664e+08  0.1            16455400       0.81886879     488.43998      4884.401       19.652903    
  55309200   3717.9963     -5.1854164     -44055695       1.7182801      11071.558     -44044623       704.6135       704.6135       704.6135       2147.6932      2852.3068      2147.6932      2852.3068      2147.6932      2852.3068      3.4982664e+08  0.1            16455420       0.85973679     489.38065      4893.7825      19.610242    
  55309400   4184.0616     -5.519269      -44055907       1.7182801      12459.421     -44043447       704.6135       704.6135       704.6135       2147.6932      2852.3068      2147.6932      2852.3068      2147.6932      2852.3068      3.4982664e+08  0.1            16455440       0.90102059     484.44952      4844.5195      19.57677     
  55309600   4704.0968     -5.8442165     -44056131       1.7182801      14007.997     -44042123       704.6135       704.6135       704.6135       2147.6932      2852.3068      2147.6932      2852.3068      2147.6932      2852.3068      3.4982664e+08  0.1            16455460       0.9418827      489.45209      4894.523       19.533874    
  55309800   5283.2943     -6.1549377     -44056369       1.7182801      15732.748     -44040636       704.6135       704.6135       704.6135       2147.6932      2852.3068      2147.6932      2852.3068      2147.6932      2852.3068      3.4982664e+08  0.1            16455480       0.98275937     489.27535      4892.752       19.491442    
  55310000   5926.9197     -6.4483325     -44056621       1.7182801      17649.355     -44038971       704.6135       704.6135       704.6135       2147.6932      2852.3068      2147.6932      2852.3068      2147.6932      2852.3068      3.4982664e+08  0.1            16455500       1.0236939      488.58447      4885.8341      19.450232    
  55310200   6640.7858     -6.7211108     -44056886       1.7182801      19775.126     -44037111       704.6135       704.6135       704.6135       2147.6932      2852.3068      2147.6932      2852.3068      2147.6932      2852.3068      3.4982664e+08  0.1            16455520       1.0645222      489.85847      4898.5864      19.4071      
  55310400   7430.4396     -6.9712261     -44057167       1.7182801      22126.58      -44035041       704.6135       704.6135       704.6135       2147.6932      2852.3068      2147.6932      2852.3068      2147.6932      2852.3068      3.4982664e+08  0.1            16455540       1.1053461      489.90839      4899.0946      19.364065    
  55310600   8301.4441     -7.2031498     -44057463       1.7182801      24720.283     -44032743       704.6135       704.6135       704.6135       2147.6932      2852.3068      2147.6932      2852.3068      2147.6932      2852.3068      3.4982664e+08  0.1            16455560       1.1461578      490.05657      4900.5693      19.320981    
  55310800   9259.1365     -7.4354061     -44057774       1.7182801      27572.127     -44030202       704.6135       704.6135       704.6135       2147.6932      2852.3068      2147.6932      2852.3068      2147.6932      2852.3068      3.4982664e+08  0.1            16455580       1.1869794      489.93666      4899.3539      19.27822     
  55311000   10308.306     -7.7031244     -44058102       1.7182801      30696.374     -44027405       704.6135       704.6135       704.6135       2147.6932      2852.3068      2147.6932      2852.3068      2147.6932      2852.3068      3.4982664e+08  0.1            16455600       1.2279082      488.6541       4886.5499      19.237261    
  55311200   11453.569     -8.0407684     -44058445       1.7182801      34106.774     -44024338       704.6135       704.6135       704.6135       2147.6932      2852.3068      2147.6932      2852.3068      2147.6932      2852.3068      3.4982664e+08  0.1            16455620       1.2687407      489.80509      4898.0525      19.194852    
  55311400   12698.356     -8.4532766     -44058805       1.7182801      37813.535     -44020992       704.6135       704.6135       704.6135       2147.6932      2852.3068      2147.6932      2852.3068      2147.6932      2852.3068      3.4982664e+08  0.1            16455640       1.3096089      489.37829      4893.7688      19.153064    
  55311600   14044.947     -8.9027683     -44059184       1.7182801      41823.454     -44017360       704.6135       704.6135       704.6135       2147.6932      2852.3068      2147.6932      2852.3068      2147.6932      2852.3068      3.4982664e+08  0.1            16455660       1.3504302      489.94065      4899.413       19.110665    
  55311800   15493.904     -9.2970685     -44059580       1.7182801      46138.201     -44013442       704.6135       704.6135       704.6135       2147.6932      2852.3068      2147.6932      2852.3068      2147.6932      2852.3068      3.4982664e+08  0.1            16455680       1.3912555      489.89215      4898.9278      19.068413    
  55312000   17043.308     -9.5430817     -44059996       1.7182801      50752.06      -44009244       704.6135       704.6135       704.6135       2147.6932      2852.3068      2147.6932      2852.3068      2147.6932      2852.3068      3.4982664e+08  0.1            16455700       1.433217       476.62751      4766.2623      19.041342    
  55312200   18688.914     -9.5509435     -44060060       1.7182801      55652.393     -44004408       704.6135       704.6135       704.6135       2147.6932      2852.3068      2147.6932      2852.3068      2147.6932      2852.3068      3.4982664e+08  0.1            16455720       1.4740882      489.34184      4893.4322      18.999387    
  55312400   20423.199     -9.6487745     -44060511       1.7182801      60816.798     -43999695       704.6135       704.6135       704.6135       2147.6932      2852.3068      2147.6932      2852.3068      2147.6932      2852.3068      3.4982664e+08  0.1            16455740       1.5149536      489.40946      4894.0778      18.957424    
  55312600   22235         -9.8043809     -44060981       1.7182801      66212.034     -43994769       704.6135       704.6135       704.6135       2147.6932      2852.3068      2147.6932      2852.3068      2147.6932      2852.3068      3.4982664e+08  0.1            16455760       1.5557329      490.44764      4904.4826      18.914463    
  55312800   24109.055     -10.098667     -44061469       1.7182801      71792.65      -43989677       704.6135       704.6135       704.6135       2147.6932      2852.3068      2147.6932      2852.3068      2147.6932      2852.3068      3.4982664e+08  0.1            16455780       1.5965545      489.93723      4899.3719      18.872118    
  55313000   26025.026     -10.149605     -44054597       1.7182801      77498.083     -43977099       704.6135       704.6135       704.6135       2147.6932      2852.3068      2147.6932      2852.3068      2147.6932      2852.3068      3.4982664e+08  0.1            16455800       1.6375216      488.19462      4881.9549      18.831525    
  55313200   27957.908     -10.700231     -44055119       1.7182801      83253.877     -43971865       704.6135       704.6135       704.6135       2147.6932      2852.3068      2147.6932      2852.3068      2147.6932      2852.3068      3.4982664e+08  0.1            16455820       1.6783189      490.23053      4902.3103      18.789007    
  55313400   29877.333     -11.259513     -44055656       1.7182801      88969.595     -43966687       704.6135       704.6135       704.6135       2147.6932      2852.3068      2147.6932      2852.3068      2147.6932      2852.3068      3.4982664e+08  0.1            16455840       1.7191083      490.32264      4903.2242      18.746489    
  55313600   31748.197     -11.753111     -44056207       1.7182801      94540.711     -43961666       704.6135       704.6135       704.6135       2147.6932      2852.3068      2147.6932      2852.3068      2147.6932      2852.3068      3.4982664e+08  0.1            16455860       1.7599944      489.16364      4891.6253      18.705081    
  55313800   33531.204     -12.122911     -44056770       1.7182801      99850.201     -43956919       704.6135       704.6135       704.6135       2147.6932      2852.3068      2147.6932      2852.3068      2147.6932      2852.3068      3.4982664e+08  0.1            16455880       1.800837       489.68281      4896.8389      18.663243    
  55314000   35184.081     -12.459376     -44057341       1.7182801      104772.18     -43952569       704.6135       704.6135       704.6135       2147.6932      2852.3068      2147.6932      2852.3068      2147.6932      2852.3068      3.4982664e+08  0.1            16455900       1.8417397      488.96799      4889.6752      18.622056    
  55314200   36664.394     -12.560359     -44050543       1.7182801      109180.3      -43941363       704.6135       704.6135       704.6135       2147.6932      2852.3068      2147.6932      2852.3068      2147.6932      2852.3068      3.4982664e+08  0.1            16455920       1.8825012      490.65875      4906.5883      18.579489    
  55314400   37931.986     -13.29395      -44051129       1.7182801      112954.98     -43938174       704.6135       704.6135       704.6135       2147.6932      2852.3068      2147.6932      2852.3068      2147.6932      2852.3068      3.4982664e+08  0.1            16455940       1.9233465      489.65038      4896.5012      18.537809    
  55314600   38954.071     -14.125767     -44049826       1.7182801      115998.57     -43933827       704.6135       704.6135       704.6135       2147.6932      2852.3068      2147.6932      2852.3068      2147.6932      2852.3068      3.4982664e+08  0.1            16455960       1.9641565      490.07719      4900.7816      18.495827    
  55314800   39710.15      -14.500042     -44035666       1.7182801      118250.05     -43917416       704.6135       704.6135       704.6135       2147.6932      2852.3068      2147.6932      2852.3068      2147.6932      2852.3068      3.4982664e+08  0.1            16455980       2.004952       490.24844      4902.4816      18.453763    
  55315000   40197.033     -15.623849     -44036263       1.7182801      119699.9      -43916563       704.6135       704.6135       704.6135       2147.6932      2852.3068      2147.6932      2852.3068      2147.6932      2852.3068      3.4982664e+08  0.1            16456000       2.0457826      489.83156      4898.3024      18.412063    
  55315200   40434.421     -16.562537     -44036857       1.7182801      120406.8      -43916450       704.6135       704.6135       704.6135       2147.6932      2852.3068      2147.6932      2852.3068      2147.6932      2852.3068      3.4982664e+08  0.1            16456020       2.0865973      490.01834      4900.1997      18.370257    
  55315400   40464.93      -17.432789     -44037445       1.7182801      120497.65     -43916947       704.6135       704.6135       704.6135       2147.6932      2852.3068      2147.6932      2852.3068      2147.6932      2852.3068      3.4982664e+08  0.1            16456040       2.1282305      480.3853       4803.8502      18.335544    
  55315600   40351.055     -18.488354     -44038026       1.7182801      120158.55     -43917867       704.6135       704.6135       704.6135       2147.6932      2852.3068      2147.6932      2852.3068      2147.6932      2852.3068      3.4982664e+08  0.1            16456060       2.1690128      490.40647      4904.0616      18.293393    
  55315800   40166.831     -19.646841     -44038602       1.7182801      119609.97     -43918992       704.6135       704.6135       704.6135       2147.6932      2852.3068      2147.6932      2852.3068      2147.6932      2852.3068      3.4982664e+08  0.1            16456080       2.2099116      489.0155       4890.1587      18.252251    
  55316000   39987.85      -20.727673     -44039172       1.7182801      119076.99     -43920095       704.6135       704.6135       704.6135       2147.6932      2852.3068      2147.6932      2852.3068      2147.6932      2852.3068      3.4982664e+08  0.1            16456100       2.2507789      489.38971      4893.8927      18.210864    
  55316200   39884.558     -21.704538     -44039737       1.7182801      118769.4      -43920967       704.6135       704.6135       704.6135       2147.6932      2852.3068      2147.6932      2852.3068      2147.6932      2852.3068      3.4982664e+08  0.1            16456120       2.29161        489.81951      4898.1955      18.169212    
  55316400   39918.541     -22.779812     -44040297       1.7182801      118870.6      -43921426       704.6135       704.6135       704.6135       2147.6932      2852.3068      2147.6932      2852.3068      2147.6932      2852.3068      3.4982664e+08  0.1            16456140       2.3324299      489.95949      4899.5888      18.127499    
  55316600   40141.003     -23.928454     -44040856       1.7182801      119533.05     -43921323       704.6135       704.6135       704.6135       2147.6932      2852.3068      2147.6932      2852.3068      2147.6932      2852.3068      3.4982664e+08  0.1            16456160       2.3732598      489.83739      4898.3809      18.085892    
  55316800   40590.242     -24.257715     -44028555       1.7182801      120870.81     -43907684       704.6135       704.6135       704.6135       2147.6932      2852.3068      2147.6932      2852.3068      2147.6932      2852.3068      3.4982664e+08  0.1            16456180       2.4141096      489.5988       4895.9884      18.044462    
  55317000   41289.207     -24.829446     -44027219       1.7182801      122952.21     -43904267       704.6135       704.6135       704.6135       2147.6932      2852.3068      2147.6932      2852.3068      2147.6932      2852.3068      3.4982664e+08  0.1            16456200       2.4559385      478.13873      4781.3793      18.010231    
  55317200   42243.093     -25.400153     -44027777       1.7182801      125792.72     -43901984       704.6135       704.6135       704.6135       2147.6932      2852.3068      2147.6932      2852.3068      2147.6932      2852.3068      3.4982664e+08  0.1            16456220       2.4968803      488.49713      4884.9692      17.969368    
  55317400   43436.218     -25.822955     -44028335       1.7182801      129345.64     -43898990       704.6135       704.6135       704.6135       2147.6932      2852.3068      2147.6932      2852.3068      2147.6932      2852.3068      3.4982664e+08  0.1            16456240       2.5377023      489.9319       4899.3286      17.927654    
  55317600   44832.001     -26.234513     -44028895       1.7182801      133502.04     -43895392       704.6135       704.6135       704.6135       2147.6932      2852.3068      2147.6932      2852.3068      2147.6932      2852.3068      3.4982664e+08  0.1            16456260       2.5784988      490.23921      4902.3959      17.885791    
  55317800   46376.61      -26.737269     -44029456       1.7182801      138101.63     -43891355       704.6135       704.6135       704.6135       2147.6932      2852.3068      2147.6932      2852.3068      2147.6932      2852.3068      3.4982664e+08  0.1            16456280       2.6193458      489.63142      4896.3114      17.844307    
  55318000   48004.861     -27.416104     -44030020       1.7182801      142950.28     -43887070       704.6135       704.6135       704.6135       2147.6932      2852.3068      2147.6932      2852.3068      2147.6932      2852.3068      3.4982664e+08  0.1            16456300       2.6602204      489.3014       4893.011       17.803028    
  55318200   49648.103     -28.516153     -44030590       1.7182801      147843.57     -43882746       704.6135       704.6135       704.6135       2147.6932      2852.3068      2147.6932      2852.3068      2147.6932      2852.3068      3.4982664e+08  0.1            16456320       2.7010221      490.17456      4901.7533      17.76128     
  55318400   51238.293     -28.956246     -44020366       1.7182801      152578.89     -43867787       704.6135       704.6135       704.6135       2147.6932      2852.3068      2147.6932      2852.3068      2147.6932      2852.3068      3.4982664e+08  0.1            16456340       2.7418577      489.76971      4897.6917      17.71978     
  55318600   52710.791     -29.655851     -44020946       1.7182801      156963.74     -43863982       704.6135       704.6135       704.6135       2147.6932      2852.3068      2147.6932      2852.3068      2147.6932      2852.3068      3.4982664e+08  0.1            16456360       2.7826797      489.93172      4899.315       17.678214    
  55318800   54008.475     -30.193049     -44021156       1.7182801      160828.02     -43860328       704.6135       704.6135       704.6135       2147.6932      2852.3068      2147.6932      2852.3068      2147.6932      2852.3068      3.4982664e+08  0.1            16456380       2.8235394      489.4809       4894.8111      17.636904    
  55319000   55086.819     -30.891354     -44021732       1.7182801      164039.14     -43857693       704.6135       704.6135       704.6135       2147.6932      2852.3068      2147.6932      2852.3068      2147.6932      2852.3068      3.4982664e+08  0.1            16456400       2.8643711      489.81552      4898.148       17.595436    
  55319200   55917.158     -31.193319     -44014928       1.7182801      166511.75     -43848416       704.6135       704.6135       704.6135       2147.6932      2852.3068      2147.6932      2852.3068      2147.6932      2852.3068      3.4982664e+08  0.1            16456420       2.9055274      485.95133      4859.5221      17.555946    
  55319400   56489.388     -31.760248     -44008488       1.7182801      168215.75     -43840273       704.6135       704.6135       704.6135       2147.6932      2852.3068      2147.6932      2852.3068      2147.6932      2852.3068      3.4982664e+08  0.1            16456440       2.9462912      490.62905      4906.2954      17.514078    
  55319600   56815.438     -32.781477     -44009055       1.7182801      169186.67     -43839868       704.6135       704.6135       704.6135       2147.6932      2852.3068      2147.6932      2852.3068      2147.6932      2852.3068      3.4982664e+08  0.1            16456460       2.9870908      490.20314      4902.0199      17.472448    
  55319800   56928.041     -33.533582     -44007718       1.7182801      169521.99     -43838196       704.6135       704.6135       704.6135       2147.6932      2852.3068      2147.6932      2852.3068      2147.6932      2852.3068      3.4982664e+08  0.1            16456480       3.0279171      489.87859      4898.7826      17.430997    
  55320000   56879.388     -34.373112     -44008265       1.7182801      169377.11     -43838888       704.6135       704.6135       704.6135       2147.6932      2852.3068      2147.6932      2852.3068      2147.6932      2852.3068      3.4982664e+08  0.1            16456500       3.0694933      481.04369      4810.4457      17.393808    
  55320200   56736.611     -35.142076     -44008434       1.7182801      168951.94     -43839482       704.6135       704.6135       704.6135       2147.6932      2852.3068      2147.6932      2852.3068      2147.6932      2852.3068      3.4982664e+08  0.1            16456520       3.1102772      490.39059      4903.9092      17.352085    
  55320400   56572.521     -36.094053     -44008963       1.7182801      168463.31     -43840500       704.6135       704.6135       704.6135       2147.6932      2852.3068      2147.6932      2852.3068      2147.6932      2852.3068      3.4982664e+08  0.1            16456540       3.1510538      490.47905      4904.7843      17.310347    
  55320600   56458.216     -37.34226      -44011379       1.7182801      168122.93     -43843256       704.6135       704.6135       704.6135       2147.6932      2852.3068      2147.6932      2852.3068      2147.6932      2852.3068      3.4982664e+08  0.1            16456560       3.1918586      490.13381      4901.3443      17.268787    
  55320800   56459.066     -38.61119      -44011895       1.7182801      168125.46     -43843769       704.6135       704.6135       704.6135       2147.6932      2852.3068      2147.6932      2852.3068      2147.6932      2852.3068      3.4982664e+08  0.1            16456580       3.2326339      490.49504      4904.9521      17.227086    
  55321000   56629.967     -39.527307     -44012405       1.7182801      168634.37     -43843771       704.6135       704.6135       704.6135       2147.6932      2852.3068      2147.6932      2852.3068      2147.6932      2852.3068      3.4982664e+08  0.1            16456600       3.2734847      489.58961      4895.8817      17.185806    
  55321200   57013.403     -39.90712      -44012908       1.7182801      169776.18     -43843132       704.6135       704.6135       704.6135       2147.6932      2852.3068      2147.6932      2852.3068      2147.6932      2852.3068      3.4982664e+08  0.1            16456620       3.3143333      489.61095      4896.113       17.144526    
  55321400   57638.013     -39.997816     -44013406       1.7182801      171636.16     -43841770       704.6135       704.6135       704.6135       2147.6932      2852.3068      2147.6932      2852.3068      2147.6932      2852.3068      3.4982664e+08  0.1            16456640       3.3551043      490.5448       4905.4491      17.10286     
  55321600   58515.88      -40.215046     -44015797       1.7182801      174250.3      -43841547       704.6135       704.6135       704.6135       2147.6932      2852.3068      2147.6932      2852.3068      2147.6932      2852.3068      3.4982664e+08  0.1            16456660       3.3960598      488.33576      4883.3573      17.062143    
  55321800   59638.692     -40.616952     -44016291       1.7182801      177593.84     -43838697       704.6135       704.6135       704.6135       2147.6932      2852.3068      2147.6932      2852.3068      2147.6932      2852.3068      3.4982664e+08  0.1            16456680       3.4377278      479.98509      4799.8494      17.024949    
  55322000   60977.383     -41.079685     -44016780       1.7182801      181580.24     -43835200       704.6135       704.6135       704.6135       2147.6932      2852.3068      2147.6932      2852.3068      2147.6932      2852.3068      3.4982664e+08  0.1            16456700       3.4784902      490.6483       4906.4936      16.983227    
  55322200   62484.821     -41.400403     -44017264       1.7182801      186069.13     -43831195       704.6135       704.6135       704.6135       2147.6932      2852.3068      2147.6932      2852.3068      2147.6932      2852.3068      3.4982664e+08  0.1            16456720       3.5192951      490.13324      4901.3305      16.941734    
  55322400   64100.455     -41.661635     -44017742       1.7182801      190880.21     -43826862       704.6135       704.6135       704.6135       2147.6932      2852.3068      2147.6932      2852.3068      2147.6932      2852.3068      3.4982664e+08  0.1            16456740       3.5600548      490.6825       4906.8187      16.900042    
  55322600   65755.409     -41.615022     -44017847       1.7182801      195808.38     -43822039       704.6135       704.6135       704.6135       2147.6932      2852.3068      2147.6932      2852.3068      2147.6932      2852.3068      3.4982664e+08  0.1            16456760       3.6008458      490.29381      4902.7737      16.858527    
  55322800   67377.788     -41.663161     -44019845       1.7182801      200639.55     -43819205       704.6135       704.6135       704.6135       2147.6932      2852.3068      2147.6932      2852.3068      2147.6932      2852.3068      3.4982664e+08  0.1            16456780       3.6415819      490.97808      4909.9553      16.816753    
  55323000   68898.493     -41.869103     -44020682       1.7182801      205167.95     -43815514       704.6135       704.6135       704.6135       2147.6932      2852.3068      2147.6932      2852.3068      2147.6932      2852.3068      3.4982664e+08  0.1            16456800       3.6823744      490.28594      4902.8553      16.775271    
  55323200   70254.944     -42.004436     -44021146       1.7182801      209207.23     -43811938       704.6135       704.6135       704.6135       2147.6932      2852.3068      2147.6932      2852.3068      2147.6932      2852.3068      3.4982664e+08  0.1            16456820       3.7232027      489.85586      4898.5479      16.733965    
  55323400   71396.366     -42.337979     -44021603       1.7182801      212606.19     -43808997       704.6135       704.6135       704.6135       2147.6932      2852.3068      2147.6932      2852.3068      2147.6932      2852.3068      3.4982664e+08  0.1            16456840       3.7641138      488.86496      4888.6458      16.693036    
  55323600   72288.003     -42.644269     -44022054       1.7182801      215261.33     -43806793       704.6135       704.6135       704.6135       2147.6932      2852.3068      2147.6932      2852.3068      2147.6932      2852.3068      3.4982664e+08  0.1            16456860       3.8050094      489.04736      4890.4764      16.652041    
  55323800   72915.24      -42.916447     -44022498       1.7182801      217129.13     -43805369       704.6135       704.6135       704.6135       2147.6932      2852.3068      2147.6932      2852.3068      2147.6932      2852.3068      3.4982664e+08  0.1            16456880       3.846637       480.44984      4804.499       16.614209    
  55324000   73285.033     -43.765676     -44032577       1.7182801      218230.31     -43814347       704.6135       704.6135       704.6135       2147.6932      2852.3068      2147.6932      2852.3068      2147.6932      2852.3068      3.4982664e+08  0.1            16456900       3.8875506      488.83884      4888.3871      16.573252    
  55324200   73426.708     -43.770675     -44025628       1.7182801      218652.2      -43806976       704.6135       704.6135       704.6135       2147.6932      2852.3068      2147.6932      2852.3068      2147.6932      2852.3068      3.4982664e+08  0.1            16456920       3.9284113      489.4676       4894.6811      16.532073    
  55324400   73388.427     -44.057966     -44024150       1.7182801      218538.21     -43805611       704.6135       704.6135       704.6135       2147.6932      2852.3068      2147.6932      2852.3068      2147.6932      2852.3068      3.4982664e+08  0.1            16456940       3.9692785      489.39025      4893.9087      16.490929    
  55324600   73233.8       -44.693        -44024549       1.7182801      218077.75     -43806471       704.6135       704.6135       704.6135       2147.6932      2852.3068      2147.6932      2852.3068      2147.6932      2852.3068      3.4982664e+08  0.1            16456960       4.0101962      488.785        4887.8299      16.449998    
  55324800   73037.037     -45.076565     -44010178       1.7182801      217491.82     -43792687       704.6135       704.6135       704.6135       2147.6932      2852.3068      2147.6932      2852.3068      2147.6932      2852.3068      3.4982664e+08  0.1            16456980       4.0510304      489.7844       4897.8562      16.408729    
  55325000   72872.998     -46.127506     -44010552       1.7182801      217003.34     -43793549       704.6135       704.6135       704.6135       2147.6932      2852.3068      2147.6932      2852.3068      2147.6932      2852.3068      3.4982664e+08  0.1            16457000       4.0919064      489.28652      4892.871       16.367634    
  55325200   72811.22      -47.259012     -44012808       1.7182801      216819.38     -43795988       704.6135       704.6135       704.6135       2147.6932      2852.3068      2147.6932      2852.3068      2147.6932      2852.3068      3.4982664e+08  0.1            16457020       4.1327843      489.26249      4892.6168      16.326553    
  55325400   72913.123     -48.336589     -44015053       1.7182801      217122.83     -43797930       704.6135       704.6135       704.6135       2147.6932      2852.3068      2147.6932      2852.3068      2147.6932      2852.3068      3.4982664e+08  0.1            16457040       4.1736454      489.46319      4894.6361      16.285409    
  55325600   73227.468     -49.020617     -44015026       1.7182801      218058.9      -43796967       704.6135       704.6135       704.6135       2147.6932      2852.3068      2147.6932      2852.3068      2147.6932      2852.3068      3.4982664e+08  0.1            16457060       4.2145326      489.14869      4891.4919      16.244372    
  55325800   73787.906     -49.520816     -44015360       1.7182801      219727.78     -43795632       704.6135       704.6135       704.6135       2147.6932      2852.3068      2147.6932      2852.3068      2147.6932      2852.3068      3.4982664e+08  0.1            16457080       4.2554053      489.32482      4893.2479      16.203309    
  55326000   74610.092     -50.111558     -44023063       1.7182801      222176.11     -43800887       704.6135       704.6135       704.6135       2147.6932      2852.3068      2147.6932      2852.3068      2147.6932      2852.3068      3.4982664e+08  0.1            16457100       4.2963819      488.08261      4880.8295      16.162588    
  55326200   75690.95      -50.488948     -44030760       1.7182801      225394.72     -43805366       704.6135       704.6135       704.6135       2147.6932      2852.3068      2147.6932      2852.3068      2147.6932      2852.3068      3.4982664e+08  0.1            16457120       4.3372297      489.62377      4896.1992      16.12141     
  55326400   77005.182     -50.474714     -44032966       1.7182801      229308.28     -43803658       704.6135       704.6135       704.6135       2147.6932      2852.3068      2147.6932      2852.3068      2147.6932      2852.3068      3.4982664e+08  0.1            16457140       4.3780695      489.71767      4897.2122      16.080207    
  55326600   78508.533     -50.251598     -44033268       1.7182801      233785        -43799483       704.6135       704.6135       704.6135       2147.6932      2852.3068      2147.6932      2852.3068      2147.6932      2852.3068      3.4982664e+08  0.1            16457160       4.4189506      489.22237      4892.2219      16.039162    
  55326800   80140.373     -49.674968     -44033558       1.7182801      238644.35     -43794913       704.6135       704.6135       704.6135       2147.6932      2852.3068      2147.6932      2852.3068      2147.6932      2852.3068      3.4982664e+08  0.1            16457180       4.460653       479.58907      4795.8867      16.001066    
  55327000   81830.559     -49.006081     -44033838       1.7182801      243677.43     -43790161       704.6135       704.6135       704.6135       2147.6932      2852.3068      2147.6932      2852.3068      2147.6932      2852.3068      3.4982664e+08  0.1            16457200       4.5015208      489.3844       4893.8379      15.959945    
  55327200   83504.486     -48.092887     -44032215       1.7182801      248662.1      -43783553       704.6135       704.6135       704.6135       2147.6932      2852.3068      2147.6932      2852.3068      2147.6932      2852.3068      3.4982664e+08  0.1            16457220       4.5422697      490.81108      4908.1299      15.918412    
  55327400   85087.991     -47.413475     -44034005       1.7182801      253377.51     -43780627       704.6135       704.6135       704.6135       2147.6932      2852.3068      2147.6932      2852.3068      2147.6932      2852.3068      3.4982664e+08  0.1            16457240       4.5838334      481.18797      4811.8717      15.879716    
  55327600   86513.112     -47.291501     -44041636       1.7182801      257621.27     -43784014       704.6135       704.6135       704.6135       2147.6932      2852.3068      2147.6932      2852.3068      2147.6932      2852.3068      3.4982664e+08  0.1            16457260       4.6246031      490.56204      4905.6158      15.83825     
  55327800   87723.944     -47.022679     -44041510       1.7182801      261226.92     -43780283       704.6135       704.6135       704.6135       2147.6932      2852.3068      2147.6932      2852.3068      2147.6932      2852.3068      3.4982664e+08  0.1            16457280       4.6653898      490.35618      4903.5699      15.796853    
  55328000   88680.381     -46.98451      -44041741       1.7182801      264075.03     -43777666       704.6135       704.6135       704.6135       2147.6932      2852.3068      2147.6932      2852.3068      2147.6932      2852.3068      3.4982664e+08  0.1            16457300       4.706271       489.22099      4892.2127      15.755784    
  55328200   89362.289     -46.978006     -44041960       1.7182801      266105.64     -43775854       704.6135       704.6135       704.6135       2147.6932      2852.3068      2147.6932      2852.3068      2147.6932      2852.3068      3.4982664e+08  0.1            16457320       4.7470425      490.5395       4905.3824      15.714355    
  55328400   89771.819     -46.537524     -44034787       1.7182801      267325.15     -43767462       704.6135       704.6135       704.6135       2147.6932      2852.3068      2147.6932      2852.3068      2147.6932      2852.3068      3.4982664e+08  0.1            16457340       4.7877995      490.71376      4907.1399      15.672889    
  55328600   89934.868     -46.718881     -44034978       1.7182801      267810.68     -43767167       704.6135       704.6135       704.6135       2147.6932      2852.3068      2147.6932      2852.3068      2147.6932      2852.3068      3.4982664e+08  0.1            16457360       4.8285876      490.33866      4903.3967      15.631536    
  55328800   89898.775     -47.032334     -44035155       1.7182801      267703.2      -43767452       704.6135       704.6135       704.6135       2147.6932      2852.3068      2147.6932      2852.3068      2147.6932      2852.3068      3.4982664e+08  0.1            16457380       4.8693173      491.04204      4910.421       15.590006    
  55329000   89727.246     -47.330057     -44035318       1.7182801      267192.42     -43768125       704.6135       704.6135       704.6135       2147.6932      2852.3068      2147.6932      2852.3068      2147.6932      2852.3068      3.4982664e+08  0.1            16457400       4.9101465      489.84519      4898.4491      15.548804    
  55329200   89494.866     -47.742746     -44037361       1.7182801      266500.43     -43770860       704.6135       704.6135       704.6135       2147.6932      2852.3068      2147.6932      2852.3068      2147.6932      2852.3068      3.4982664e+08  0.1            16457420       4.9509081      490.65737      4906.5719      15.507397    
  55329400   89279.697     -47.661516     -44030118       1.7182801      265859.69     -43764258       704.6135       704.6135       704.6135       2147.6932      2852.3068      2147.6932      2852.3068      2147.6932      2852.3068      3.4982664e+08  0.1            16457440       4.991699       490.30324      4903.0342      15.466091    
  55329600   89155.62      -48.000841     -44030238       1.7182801      265490.21     -43764748       704.6135       704.6135       704.6135       2147.6932      2852.3068      2147.6932      2852.3068      2147.6932      2852.3068      3.4982664e+08  0.1            16457460       5.0324565      490.71089      4907.0998      15.424691    
  55329800   89188.927     -47.843113     -44022966       1.7182801      265589.39     -43757376       704.6135       704.6135       704.6135       2147.6932      2852.3068      2147.6932      2852.3068      2147.6932      2852.3068      3.4982664e+08  0.1            16457480       5.0731682      491.25921      4912.5805      15.383162    
  55330000   89433.615     -47.866218     -44023057       1.7182801      266318.03     -43756739       704.6135       704.6135       704.6135       2147.6932      2852.3068      2147.6932      2852.3068      2147.6932      2852.3068      3.4982664e+08  0.1            16457500       5.1139437      490.48995      4904.922       15.341837    
  55330200   89929.183     -47.992758     -44030515       1.7182801      267793.75     -43762721       704.6135       704.6135       704.6135       2147.6932      2852.3068      2147.6932      2852.3068      2147.6932      2852.3068      3.4982664e+08  0.1            16457520       5.1546938      490.79348      4907.932       15.300447    
  55330400   90695.742     -47.38562      -44030582       1.7182801      270076.43     -43760505       704.6135       704.6135       704.6135       2147.6932      2852.3068      2147.6932      2852.3068      2147.6932      2852.3068      3.4982664e+08  0.1            16457540       5.1963052      480.64001      4806.3933      15.261596    
  55330600   91733.094     -46.375203     -44030635       1.7182801      273165.49     -43757470       704.6135       704.6135       704.6135       2147.6932      2852.3068      2147.6932      2852.3068      2147.6932      2852.3068      3.4982664e+08  0.1            16457560       5.2370293      491.10984      4911.1072      15.220123    
  55330800   93020.58      -45.188417     -44030676       1.7182801      276999.4      -43753677       704.6135       704.6135       704.6135       2147.6932      2852.3068      2147.6932      2852.3068      2147.6932      2852.3068      3.4982664e+08  0.1            16457580       5.2777657      490.95958      4909.5934      15.178697    
  55331000   94516.534     -44.440152     -44030706       1.7182801      281454.1      -43749252       704.6135       704.6135       704.6135       2147.6932      2852.3068      2147.6932      2852.3068      2147.6932      2852.3068      3.4982664e+08  0.1            16457600       5.3198256      475.51323      4755.1267      15.141049    
  55331200   96161.447     -43.887826     -44030723       1.7182801      286352.37     -43744371       704.6135       704.6135       704.6135       2147.6932      2852.3068      2147.6932      2852.3068      2147.6932      2852.3068      3.4982664e+08  0.1            16457620       5.3606204      490.25931      4902.5978      15.099769    
  55331400   97882.53      -42.824777     -44028829       1.7182801      291477.46     -43737352       704.6135       704.6135       704.6135       2147.6932      2852.3068      2147.6932      2852.3068      2147.6932      2852.3068      3.4982664e+08  0.1            16457640       5.401418       490.22385      4902.237       15.058505    
  55331600   99601.999     -41.782692     -44028814       1.7182801      296597.74     -43732217       704.6135       704.6135       704.6135       2147.6932      2852.3068      2147.6932      2852.3068      2147.6932      2852.3068      3.4982664e+08  0.1            16457660       5.4432346      478.27951      4782.7854      15.02006     
  55331800   101242.17     -41.009585     -44028784       1.7182801      301481.91     -43727302       704.6135       704.6135       704.6135       2147.6932      2852.3068      2147.6932      2852.3068      2147.6932      2852.3068      3.4982664e+08  0.1            16457680       5.4840144      490.4393       4904.3982      14.978732    
  55332000   102730.86     -40.345468     -44028737       1.7182801      305914.96     -43722822       704.6135       704.6135       704.6135       2147.6932      2852.3068      2147.6932      2852.3068      2147.6932      2852.3068      3.4982664e+08  0.1            16457700       5.5248321      489.98366      4899.8404      14.937515    
  55332200   104007.45     -39.855248     -44030567       1.7182801      309716.42     -43720850       704.6135       704.6135       704.6135       2147.6932      2852.3068      2147.6932      2852.3068      2147.6932      2852.3068      3.4982664e+08  0.1            16457720       5.5665513      479.39413      4793.9419      14.898717    
  55332400   105027.54     -39.242733     -44030117       1.7182801      312754.09     -43717363       704.6135       704.6135       704.6135       2147.6932      2852.3068      2147.6932      2852.3068      2147.6932      2852.3068      3.4982664e+08  0.1            16457740       5.6073233      490.5342       4905.3354      14.857366    
  55332600   105766.63     -38.869583     -44037397       1.7182801      314954.97     -43722442       704.6135       704.6135       704.6135       2147.6932      2852.3068      2147.6932      2852.3068      2147.6932      2852.3068      3.4982664e+08  0.1            16457760       5.6480462      491.12289      4911.24        14.815895    
  55332800   106222.63     -38.332728     -44044659       1.7182801      316312.86     -43728346       704.6135       704.6135       704.6135       2147.6932      2852.3068      2147.6932      2852.3068      2147.6932      2852.3068      3.4982664e+08  0.1            16457780       5.6888447      490.21022      4902.1024      14.774632    
  55333000   106417.67     -37.651054     -44044527       1.7182801      316893.65     -43727634       704.6135       704.6135       704.6135       2147.6932      2852.3068      2147.6932      2852.3068      2147.6932      2852.3068      3.4982664e+08  0.1            16457800       5.7295641      491.17152      4911.7149      14.73317     
  55333200   106396.49     -36.808234     -44044380       1.7182801      316830.57     -43727549       704.6135       704.6135       704.6135       2147.6932      2852.3068      2147.6932      2852.3068      2147.6932      2852.3068      3.4982664e+08  0.1            16457820       5.7703526      490.33415      4903.3347      14.691897    
  55333400   106221.28     -35.1708       -44036839       1.7182801      316308.85     -43720530       704.6135       704.6135       704.6135       2147.6932      2852.3068      2147.6932      2852.3068      2147.6932      2852.3068      3.4982664e+08  0.1            16457840       5.8110996      490.83395      4908.3458      14.650524    
  55333600   105966.68     -33.976186     -44034766       1.7182801      315550.69     -43719215       704.6135       704.6135       704.6135       2147.6932      2852.3068      2147.6932      2852.3068      2147.6932      2852.3068      3.4982664e+08  0.1            16457860       5.8526296      481.57892      4815.787       14.611116    
  55333800   105713.62     -33.143334     -44034209       1.7182801      314797.11     -43719412       704.6135       704.6135       704.6135       2147.6932      2852.3068      2147.6932      2852.3068      2147.6932      2852.3068      3.4982664e+08  0.1            16457880       5.893382       490.76722      4907.6661      14.569756    
  55334000   105539.56     -32.375715     -44034009       1.7182801      314278.79     -43719730       704.6135       704.6135       704.6135       2147.6932      2852.3068      2147.6932      2852.3068      2147.6932      2852.3068      3.4982664e+08  0.1            16457900       5.9341197      490.94822      4909.4899      14.528367    
  55334200   105516.06     -31.492422     -44033798       1.7182801      314208.82     -43719589       704.6135       704.6135       704.6135       2147.6932      2852.3068      2147.6932      2852.3068      2147.6932      2852.3068      3.4982664e+08  0.1            16457920       5.9748743      490.74197      4907.4214      14.487029    
  55334400   105701.53     -30.475646     -44035101       1.7182801      314761.11     -43720340       704.6135       704.6135       704.6135       2147.6932      2852.3068      2147.6932      2852.3068      2147.6932      2852.3068      3.4982664e+08  0.1            16457940       6.0156614      490.35082      4903.5057      14.445777    
  55334600   106138.3      -29.281502     -44034864       1.7182801      316061.74     -43718802       704.6135       704.6135       704.6135       2147.6932      2852.3068      2147.6932      2852.3068      2147.6932      2852.3068      3.4982664e+08  0.1            16457960       6.0563913      491.0391       4910.3827      14.404396    
  55334800   106850.59     -27.407689     -44019856       1.7182801      318182.82     -43701673       704.6135       704.6135       704.6135       2147.6932      2852.3068      2147.6932      2852.3068      2147.6932      2852.3068      3.4982664e+08  0.1            16457980       6.0971348      490.875        4908.7493      14.363055    
  55335000   107842.09     -26.40931      -44019588       1.7182801      321135.33     -43698453       704.6135       704.6135       704.6135       2147.6932      2852.3068      2147.6932      2852.3068      2147.6932      2852.3068      3.4982664e+08  0.1            16458000       6.1378878      490.76301      4907.6438      14.321743    
  55335200   109094.96     -25.394768     -44019303       1.7182801      324866.15     -43694437       704.6135       704.6135       704.6135       2147.6932      2852.3068      2147.6932      2852.3068      2147.6932      2852.3068      3.4982664e+08  0.1            16458020       6.178577       491.53087      4915.2987      14.280292    
  55335400   110569.69     -24.488948     -44019002       1.7182801      329257.65     -43689745       704.6135       704.6135       704.6135       2147.6932      2852.3068      2147.6932      2852.3068      2147.6932      2852.3068      3.4982664e+08  0.1            16458040       6.2193363      490.68514      4906.8569      14.239012    
  55335600   112209.07     -23.341719     -44018686       1.7182801      334139.44     -43684547       704.6135       704.6135       704.6135       2147.6932      2852.3068      2147.6932      2852.3068      2147.6932      2852.3068      3.4982664e+08  0.1            16458060       6.2600165      491.63874      4916.3858      14.197559    
  55335800   113940.99     -22.049791     -44025730       1.7182801      339296.82     -43686434       704.6135       704.6135       704.6135       2147.6932      2852.3068      2147.6932      2852.3068      2147.6932      2852.3068      3.4982664e+08  0.1            16458080       6.3012255      485.33166      4853.3157      14.157304    
  55336000   115685.67     -20.230263     -44023482       1.7182801      344492.18     -43678990       704.6135       704.6135       704.6135       2147.6932      2852.3068      2147.6932      2852.3068      2147.6932      2852.3068      3.4982664e+08  0.1            16458100       6.3420157      490.31474      4903.1415      14.116104    
  55336200   117365.12     -18.561519     -44023113       1.7182801      349493.29     -43673620       704.6135       704.6135       704.6135       2147.6932      2852.3068      2147.6932      2852.3068      2147.6932      2852.3068      3.4982664e+08  0.1            16458120       6.3827578      490.89335      4908.9424      14.074804    
  55336400   118904.99     -17.047433     -44022730       1.7182801      354078.75     -43668651       704.6135       704.6135       704.6135       2147.6932      2852.3068      2147.6932      2852.3068      2147.6932      2852.3068      3.4982664e+08  0.1            16458140       6.4252246      470.95413      4709.5253      14.037279    
  55336600   120240.45     -15.368895     -44016848       1.7182801      358055.54     -43658793       704.6135       704.6135       704.6135       2147.6932      2852.3068      2147.6932      2852.3068      2147.6932      2852.3068      3.4982664e+08  0.1            16458160       6.4659119      491.55465      4915.5578      13.99584     
  55336800   121322.93     -13.947443     -44016434       1.7182801      361278.96     -43655155       704.6135       704.6135       704.6135       2147.6932      2852.3068      2147.6932      2852.3068      2147.6932      2852.3068      3.4982664e+08  0.1            16458180       6.506662       490.79568      4907.9606      13.954544    
  55337000   122122.99     -12.870899     -44015634       1.7182801      363661.41     -43651973       704.6135       704.6135       704.6135       2147.6932      2852.3068      2147.6932      2852.3068      2147.6932      2852.3068      3.4982664e+08  0.1            16458200       6.5475076      489.64833      4896.4699      13.913459    
  55337200   122635.61     -12.22773      -44015189       1.7182801      365187.89     -43650001       704.6135       704.6135       704.6135       2147.6932      2852.3068      2147.6932      2852.3068      2147.6932      2852.3068      3.4982664e+08  0.1            16458220       6.5882322      491.10608      4911.0782      13.872121    
  55337400   122877.87     -11.059258     -44014730       1.7182801      365909.32     -43648821       704.6135       704.6135       704.6135       2147.6932      2852.3068      2147.6932      2852.3068      2147.6932      2852.3068      3.4982664e+08  0.1            16458240       6.6290677      489.76606      4897.6467      13.831023    
  55337600   122889.3      -9.9795392     -44014256       1.7182801      365943.36     -43648313       704.6135       704.6135       704.6135       2147.6932      2852.3068      2147.6932      2852.3068      2147.6932      2852.3068      3.4982664e+08  0.1            16458260       6.6698549      490.35292      4903.5341      13.789827    
  55337800   122730.43     -9.1655273     -44013403       1.7182801      365470.27     -43647933       704.6135       704.6135       704.6135       2147.6932      2852.3068      2147.6932      2852.3068      2147.6932      2852.3068      3.4982664e+08  0.1            16458280       6.7105836      491.05468      4910.5537      13.748517    
  55338000   122474.06     -8.719603      -44012909       1.7182801      364706.83     -43648202       704.6135       704.6135       704.6135       2147.6932      2852.3068      2147.6932      2852.3068      2147.6932      2852.3068      3.4982664e+08  0.1            16458300       6.7514583      489.30022      4892.9972      13.707511    
  55338200   122199.67     -8.236338      -44012401       1.7182801      363889.75     -43648512       704.6135       704.6135       704.6135       2147.6932      2852.3068      2147.6932      2852.3068      2147.6932      2852.3068      3.4982664e+08  0.1            16458320       6.7922246      490.6001       4905.9975      13.666288    
  55338400   121988.32     -6.8431469     -44004137       1.7182801      363260.39     -43640877       704.6135       704.6135       704.6135       2147.6932      2852.3068      2147.6932      2852.3068      2147.6932      2852.3068      3.4982664e+08  0.1            16458340       6.8330037      490.44509      4904.4528      13.625096    
  55338600   121915.31     -5.6705398     -44003982       1.7182801      363042.99     -43640939       704.6135       704.6135       704.6135       2147.6932      2852.3068      2147.6932      2852.3068      2147.6932      2852.3068      3.4982664e+08  0.1            16458360       6.8737437      490.92195      4909.224       13.583831    
  55338800   122043.38     -4.4380376     -44010829       1.7182801      363424.34     -43647404       704.6135       704.6135       704.6135       2147.6932      2852.3068      2147.6932      2852.3068      2147.6932      2852.3068      3.4982664e+08  0.1            16458380       6.9144756      491.01424      4910.1486      13.542557    
  55339000   122418.65     -3.3608973     -44025042       1.7182801      364541.83     -43660500       704.6135       704.6135       704.6135       2147.6932      2852.3068      2147.6932      2852.3068      2147.6932      2852.3068      3.4982664e+08  0.1            16458400       6.9552893      490.03269      4900.32        13.501448    
  55339200   123070.77     -1.9977606     -44031865       1.7182801      366483.73     -43665381       704.6135       704.6135       704.6135       2147.6932      2852.3068      2147.6932      2852.3068      2147.6932      2852.3068      3.4982664e+08  0.1            16458420       6.9968852      480.81568      4808.1546      13.461848    
  55339400   124008.36      0.13512449    -44029405       1.7182801      369275.72     -43660129       704.6135       704.6135       704.6135       2147.6932      2852.3068      2147.6932      2852.3068      2147.6932      2852.3068      3.4982664e+08  0.1            16458440       7.0375733      491.54478      4915.4486      13.420493    
  55339600   125217.42      2.2041728     -44028830       1.7182801      372876.09     -43655954       704.6135       704.6135       704.6135       2147.6932      2852.3068      2147.6932      2852.3068      2147.6932      2852.3068      3.4982664e+08  0.1            16458460       7.0783254      490.7724       4907.7295      13.379267    
  55339800   126662.64      4.5818727     -44026351       1.7182801      377179.71     -43649171       704.6135       704.6135       704.6135       2147.6932      2852.3068      2147.6932      2852.3068      2147.6932      2852.3068      3.4982664e+08  0.1            16458480       7.1190352      491.2814       4912.8198      13.337967    
  55340000   128286.75      6.7498314     -44025755       1.7182801      382016.03     -43643739       704.6135       704.6135       704.6135       2147.6932      2852.3068      2147.6932      2852.3068      2147.6932      2852.3068      3.4982664e+08  0.1            16458500       7.1597662      491.02823      4910.2776      13.296712    
  55340200   130018.24      8.7114243     -44025140       1.7182801      387172.12     -43637968       704.6135       704.6135       704.6135       2147.6932      2852.3068      2147.6932      2852.3068      2147.6932      2852.3068      3.4982664e+08  0.1            16458520       7.2004543      491.53933      4915.3909      13.255386    
  55340400   131779.18      10.480788     -44024511       1.7182801      392415.89     -43632095       704.6135       704.6135       704.6135       2147.6932      2852.3068      2147.6932      2852.3068      2147.6932      2852.3068      3.4982664e+08  0.1            16458540       7.241148       491.48006      4914.7918      13.214076    
  55340600   133488.68      12.285567     -44023868       1.7182801      397506.48     -43626361       704.6135       704.6135       704.6135       2147.6932      2852.3068      2147.6932      2852.3068      2147.6932      2852.3068      3.4982664e+08  0.1            16458560       7.2817745      492.28953      4922.8926      13.172652    
  55340800   135070.08      14.164023     -44023212       1.7182801      402215.63     -43620996       704.6135       704.6135       704.6135       2147.6932      2852.3068      2147.6932      2852.3068      2147.6932      2852.3068      3.4982664e+08  0.1            16458580       7.3224217      492.03865      4920.3911      13.131274    
  55341000   136456.85      16.15778      -44022915       1.7182801      406345.19     -43616570       704.6135       704.6135       704.6135       2147.6932      2852.3068      2147.6932      2852.3068      2147.6932      2852.3068      3.4982664e+08  0.1            16458600       7.3631625      490.90862      4909.0879      13.090071    
  55341200   137597.28      18.476202     -44022608       1.7182801      409741.2      -43612867       704.6135       704.6135       704.6135       2147.6932      2852.3068      2147.6932      2852.3068      2147.6932      2852.3068      3.4982664e+08  0.1            16458620       7.4038715      491.29196      4912.9083      13.048816    
  55341400   138457.78      20.774457     -44021921       1.7182801      412303.64     -43609617       704.6135       704.6135       704.6135       2147.6932      2852.3068      2147.6932      2852.3068      2147.6932      2852.3068      3.4982664e+08  0.1            16458640       7.4454894      480.56179      4805.6254      13.009156    
  55341600   139027.85      22.797586     -44013847       1.7182801      414001.21     -43599845       704.6135       704.6135       704.6135       2147.6932      2852.3068      2147.6932      2852.3068      2147.6932      2852.3068      3.4982664e+08  0.1            16458660       7.4861487      491.89211      4918.9325      12.967813    
  55341800   139320.08      23.868975     -44013141       1.7182801      414871.41     -43598270       704.6135       704.6135       704.6135       2147.6932      2852.3068      2147.6932      2852.3068      2147.6932      2852.3068      3.4982664e+08  0.1            16458680       7.5278141      480.01398      4800.0964      12.928207    
  55342000   139369.2       24.900497     -44012425       1.7182801      415017.67     -43597408       704.6135       704.6135       704.6135       2147.6932      2852.3068      2147.6932      2852.3068      2147.6932      2852.3068      3.4982664e+08  0.1            16458700       7.5685726      490.6966       4907.0145      12.887033    
  55342200   139231.56      26.483708     -44004320       1.7182801      414607.8      -43589712       704.6135       704.6135       704.6135       2147.6932      2852.3068      2147.6932      2852.3068      2147.6932      2852.3068      3.4982664e+08  0.1            16458720       7.6093303      490.70327      4907.0338      12.845862    
  55342400   138979.21      27.799637     -44003585       1.7182801      413856.34     -43589729       704.6135       704.6135       704.6135       2147.6932      2852.3068      2147.6932      2852.3068      2147.6932      2852.3068      3.4982664e+08  0.1            16458740       7.6501637      489.79681      4897.9511      12.804823    
  55342600   138693.1       29.262101     -44002848       1.7182801      413004.38     -43589843       704.6135       704.6135       704.6135       2147.6932      2852.3068      2147.6932      2852.3068      2147.6932      2852.3068      3.4982664e+08  0.1            16458760       7.690881       491.19126      4911.9128      12.763593    
  55342800   138453.66      30.488772     -44009482       1.7182801      412291.36     -43597191       704.6135       704.6135       704.6135       2147.6932      2852.3068      2147.6932      2852.3068      2147.6932      2852.3068      3.4982664e+08  0.1            16458780       7.7315772      491.44717      4914.481       12.722334    
  55343000   138337.13      32.622753     -44001354       1.7182801      411944.36     -43589410       704.6135       704.6135       704.6135       2147.6932      2852.3068      2147.6932      2852.3068      2147.6932      2852.3068      3.4982664e+08  0.1            16458800       7.7723949      489.98327      4899.8337      12.681279    
  55343200   138411.02      34.521449     -43998703       1.7182801      412164.38     -43586539       704.6135       704.6135       704.6135       2147.6932      2852.3068      2147.6932      2852.3068      2147.6932      2852.3068      3.4982664e+08  0.1            16458820       7.8132065      490.05645      4900.5604      12.640217    
  55343400   138727.18      36.761008     -43992089       1.7182801      413105.86     -43578983       704.6135       704.6135       704.6135       2147.6932      2852.3068      2147.6932      2852.3068      2147.6932      2852.3068      3.4982664e+08  0.1            16458840       7.853958       490.7794       4907.797       12.599061    
  55343600   139320.38      38.294743     -43998700       1.7182801      414872.3      -43583828       704.6135       704.6135       704.6135       2147.6932      2852.3068      2147.6932      2852.3068      2147.6932      2852.3068      3.4982664e+08  0.1            16458860       7.8946859      491.06086      4910.6121      12.557872    
  55343800   140203.49      39.673679     -44005309       1.7182801      417502.06     -43587807       704.6135       704.6135       704.6135       2147.6932      2852.3068      2147.6932      2852.3068      2147.6932      2852.3068      3.4982664e+08  0.1            16458880       7.9354952      490.08653      4900.8587      12.516816    
  55344000   141363.79      41.432817     -44004530       1.7182801      420957.24     -43583573       704.6135       704.6135       704.6135       2147.6932      2852.3068      2147.6932      2852.3068      2147.6932      2852.3068      3.4982664e+08  0.1            16458900       7.9763072      490.05201      4900.5202      12.475766    
  55344200   142769.21      43.616568     -44003737       1.7182801      425142.32     -43578595       704.6135       704.6135       704.6135       2147.6932      2852.3068      2147.6932      2852.3068      2147.6932      2852.3068      3.4982664e+08  0.1            16458920       8.017168       489.46465      4894.6457      12.434795    
  55344400   144367.86      45.928235     -44002934       1.7182801      429902.83     -43573032       704.6135       704.6135       704.6135       2147.6932      2852.3068      2147.6932      2852.3068      2147.6932      2852.3068      3.4982664e+08  0.1            16458940       8.0586996      481.56261      4815.6314      12.394856    
  55344600   146091.46      48.255776     -44002122       1.7182801      435035.41     -43567086       704.6135       704.6135       704.6135       2147.6932      2852.3068      2147.6932      2852.3068      2147.6932      2852.3068      3.4982664e+08  0.1            16458960       8.099523       489.91433      4899.1323      12.353822    
  55344800   147862.65      49.683512     -44012469       1.7182801      440309.72     -43572160       704.6135       704.6135       704.6135       2147.6932      2852.3068      2147.6932      2852.3068      2147.6932      2852.3068      3.4982664e+08  0.1            16458980       8.140323       490.19709      4901.9801      12.312753    
  55345000   149600.23      52.182374     -44004269       1.7182801      445483.94     -43558785       704.6135       704.6135       704.6135       2147.6932      2852.3068      2147.6932      2852.3068      2147.6932      2852.3068      3.4982664e+08  0.1            16459000       8.1812235      488.99201      4889.9102      12.271839    
  55345200   151224.25      54.286527     -44003439       1.7182801      450319.99     -43553119       704.6135       704.6135       704.6135       2147.6932      2852.3068      2147.6932      2852.3068      2147.6932      2852.3068      3.4982664e+08  0.1            16459020       8.2220948      489.33924      4893.3904      12.230881    
  55345400   152662.69      55.86174      -44011869       1.7182801      454603.44     -43557266       704.6135       704.6135       704.6135       2147.6932      2852.3068      2147.6932      2852.3068      2147.6932      2852.3068      3.4982664e+08  0.1            16459040       8.2628772      490.40982      4904.1048      12.189792    
  55345600   153861.1       57.980284     -44011019       1.7182801      458172.08     -43552847       704.6135       704.6135       704.6135       2147.6932      2852.3068      2147.6932      2852.3068      2147.6932      2852.3068      3.4982664e+08  0.1            16459060       8.3036161      490.93008      4909.3107      12.148644    
  55345800   154782.42      60.231065     -44010163       1.7182801      460915.63     -43549247       704.6135       704.6135       704.6135       2147.6932      2852.3068      2147.6932      2852.3068      2147.6932      2852.3068      3.4982664e+08  0.1            16459080       8.3444317      490.00746      4900.075       12.10761     
  55346000   155409.72      61.999528     -44011194       1.7182801      462783.61     -43548410       704.6135       704.6135       704.6135       2147.6932      2852.3068      2147.6932      2852.3068      2147.6932      2852.3068      3.4982664e+08  0.1            16459100       8.3854738      487.30487      4873.0394      12.066905    
  55346200   155752.39      63.999787     -44008428       1.7182801      463804.03     -43544624       704.6135       704.6135       704.6135       2147.6932      2852.3068      2147.6932      2852.3068      2147.6932      2852.3068      3.4982664e+08  0.1            16459120       8.4272462      478.78549      4787.8515      12.027238    
  55346400   155841.54      65.3073       -44014931       1.7182801      464069.48     -43550861       704.6135       704.6135       704.6135       2147.6932      2852.3068      2147.6932      2852.3068      2147.6932      2852.3068      3.4982664e+08  0.1            16459140       8.4680234      490.47124      4904.7215      11.986142    
  55346600   155729.11      66.951789     -44014049       1.7182801      463734.69     -43550314       704.6135       704.6135       704.6135       2147.6932      2852.3068      2147.6932      2852.3068      2147.6932      2852.3068      3.4982664e+08  0.1            16459160       8.5088786      489.53273      4895.3165      11.94516     
  55346800   155484.49      68.943637     -44005416       1.7182801      463006.27     -43542410       704.6135       704.6135       704.6135       2147.6932      2852.3068      2147.6932      2852.3068      2147.6932      2852.3068      3.4982664e+08  0.1            16459180       8.5505518      479.92505      4799.2624      11.905317    
  55347000   155187.69      70.150418     -44011171       1.7182801      462122.45     -43549048       704.6135       704.6135       704.6135       2147.6932      2852.3068      2147.6932      2852.3068      2147.6932      2852.3068      3.4982664e+08  0.1            16459200       8.5913099      490.69973      4907.0041      11.864193    
  55347200   154923.02      71.60087      -44002910       1.7182801      461334.29     -43541576       704.6135       704.6135       704.6135       2147.6932      2852.3068      2147.6932      2852.3068      2147.6932      2852.3068      3.4982664e+08  0.1            16459220       8.6320761      490.60333      4906.0252      11.823084    
  55347400   154769.53      72.926657     -44009409       1.7182801      460877.24     -43548532       704.6135       704.6135       704.6135       2147.6932      2852.3068      2147.6932      2852.3068      2147.6932      2852.3068      3.4982664e+08  0.1            16459240       8.6728387      490.64615      4906.4349      11.781973    
  55347600   154796.68      75.092062     -44008533       1.7182801      460958.09     -43547575       704.6135       704.6135       704.6135       2147.6932      2852.3068      2147.6932      2852.3068      2147.6932      2852.3068      3.4982664e+08  0.1            16459260       8.7136178      490.44687      4904.4977      11.740887    
  55347800   155059.25      77.339611     -44005392       1.7182801      461739.96     -43543652       704.6135       704.6135       704.6135       2147.6932      2852.3068      2147.6932      2852.3068      2147.6932      2852.3068      3.4982664e+08  0.1            16459280       8.7544391      489.93965      4899.3911      11.699861    
  55348000   155592.94      78.956352     -44004507       1.7182801      463329.21     -43541178       704.6135       704.6135       704.6135       2147.6932      2852.3068      2147.6932      2852.3068      2147.6932      2852.3068      3.4982664e+08  0.1            16459300       8.795377       488.54444      4885.4144      11.658992    
  55348200   156414.63      80.166202     -44003610       1.7182801      465776.05     -43537834       704.6135       704.6135       704.6135       2147.6932      2852.3068      2147.6932      2852.3068      2147.6932      2852.3068      3.4982664e+08  0.1            16459320       8.8361556      490.45453      4904.5802      11.617911    
  55348400   157518.6       81.768187     -44002701       1.7182801      469063.5      -43533638       704.6135       704.6135       704.6135       2147.6932      2852.3068      2147.6932      2852.3068      2147.6932      2852.3068      3.4982664e+08  0.1            16459340       8.8769029      490.83012      4908.3036      11.576793    
  55348600   158877.52      83.482432     -44003676       1.7182801      473110.13     -43530566       704.6135       704.6135       704.6135       2147.6932      2852.3068      2147.6932      2852.3068      2147.6932      2852.3068      3.4982664e+08  0.1            16459360       8.9176604      490.70646      4907.071       11.535692    
  55348800   160443.91      85.33041      -44010127       1.7182801      477774.57     -43532352       704.6135       704.6135       704.6135       2147.6932      2852.3068      2147.6932      2852.3068      2147.6932      2852.3068      3.4982664e+08  0.1            16459380       8.95845        490.32219      4903.2056      11.494635    
  55349000   162153.07      87.749434     -44009197       1.7182801      482864.14     -43526333       704.6135       704.6135       704.6135       2147.6932      2852.3068      2147.6932      2852.3068      2147.6932      2852.3068      3.4982664e+08  0.1            16459400       9.000117       479.99341      4799.9379      11.454698    
  55349200   163928.71      90.102623     -44006370       1.7182801      488151.71     -43518218       704.6135       704.6135       704.6135       2147.6932      2852.3068      2147.6932      2852.3068      2147.6932      2852.3068      3.4982664e+08  0.1            16459420       9.0409952      489.26056      4892.5996      11.413748    
  55349400   165687.36      92.338203     -44007328       1.7182801      493388.65     -43513939       704.6135       704.6135       704.6135       2147.6932      2852.3068      2147.6932      2852.3068      2147.6932      2852.3068      3.4982664e+08  0.1            16459440       9.081785       490.31788      4903.1508      11.372689    
  55349600   167346.6       95.485766     -44000531       1.7182801      498329.61     -43502201       704.6135       704.6135       704.6135       2147.6932      2852.3068      2147.6932      2852.3068      2147.6932      2852.3068      3.4982664e+08  0.1            16459460       9.122574       490.32718      4903.3097      11.331631    
  55349800   168835.13      97.954646     -43999581       1.7182801      502762.18     -43496819       704.6135       704.6135       704.6135       2147.6932      2852.3068      2147.6932      2852.3068      2147.6932      2852.3068      3.4982664e+08  0.1            16459480       9.1633475      490.51709      4905.1756      11.290556    
[...]
  55994400   305.8304      -5.9494587     -43848361       1.7163732      910.7107      -43847450       704.87434      704.87434      704.87434      2147.5628      2852.4372      2147.5628      2852.4372      2147.5628      2852.4372      3.5021529e+08  0.1            16523940       67.949636      427.44955      4274.4932      2.4888257    
  55994600   305.74453     -5.1401885     -43848431       1.7164005      910.455       -43847520       704.87061      704.87061      704.87061      2147.5647      2852.4353      2147.5647      2852.4353      2147.5647      2852.4353      3.5020973e+08  0.1            16523960       67.996465      427.08975      4270.8928      2.4418621    
  55994800   305.70785     -4.1905903     -43848501       1.7164317      910.34576     -43847591       704.86633      704.86633      704.86633      2147.5668      2852.4332      2147.5668      2852.4332      2147.5668      2852.4332      3.5020335e+08  0.1            16523980       68.043272      427.28389      4272.8428      2.3948979    
  55995000   305.54303     -3.2437261     -43848572       1.7164629      909.85497     -43847662       704.86207      704.86207      704.86207      2147.569       2852.431       2147.569       2852.431       2147.569       2852.431       3.50197e+08    0.1            16524000       68.09012       426.91316      4269.1315      2.3479353    
  55995200   305.70982     -2.454042      -43848642       1.7164896      910.35164     -43847731       704.85841      704.85841      704.85841      2147.5708      2852.4292      2147.5708      2852.4292      2147.5708      2852.4292      3.5019154e+08  0.1            16524020       68.137885      418.71392      4187.1329      2.3010038    
  55995400   305.83263     -1.9032612     -43848712       1.7165096      910.71736     -43847801       704.85567      704.85567      704.85567      2147.5722      2852.4278      2147.5722      2852.4278      2147.5722      2852.4278      3.5018746e+08  0.1            16524040       68.184685      427.35035      4273.5109      2.2540393    
  55995600   305.74473     -1.5746125     -43848781       1.7165234      910.45561     -43847871       704.85378      704.85378      704.85378      2147.5731      2852.4269      2147.5731      2852.4269      2147.5731      2852.4269      3.5018464e+08  0.1            16524060       68.231518      427.05647      4270.5654      2.207076     
  55995800   305.70603     -1.4014907     -43848851       1.7165329      910.34037     -43847941       704.85249      704.85249      704.85249      2147.5738      2852.4262      2147.5738      2852.4262      2147.5738      2852.4262      3.5018272e+08  0.1            16524080       68.278313      427.39306      4273.9232      2.1601118    
  55996000   305.53825     -1.31857       -43848921       1.7165398      909.84073     -43848011       704.85153      704.85153      704.85153      2147.5742      2852.4258      2147.5742      2852.4258      2147.5742      2852.4258      3.5018129e+08  0.1            16524100       68.325189      426.65882      4266.5968      2.1131502    
  55996200   305.70353     -1.2849561     -43848991       1.7165454      910.33292     -43848080       704.85076      704.85076      704.85076      2147.5746      2852.4254      2147.5746      2852.4254      2147.5746      2852.4254      3.5018015e+08  0.1            16524120       68.37193       427.88785      4278.874       2.0661848    
  55996400   305.82565     -1.2829268     -43849060       1.7165502      910.69656     -43848150       704.85011      704.85011      704.85011      2147.5749      2852.4251      2147.5749      2852.4251      2147.5749      2852.4251      3.5017918e+08  0.1            16524140       68.41873       427.3539       4273.5282      2.0192213    
  55996600   305.7363      -1.3058518     -43849130       1.7165544      910.4305      -43848220       704.84954      704.84954      704.84954      2147.5752      2852.4248      2147.5752      2852.4248      2147.5752      2852.4248      3.5017833e+08  0.1            16524160       68.465539      427.26574      4272.6714      1.9722584    
  55996800   305.69748     -1.3504698     -43849200       1.716558       910.31488     -43848290       704.84905      704.84905      704.84905      2147.5755      2852.4245      2147.5755      2852.4245      2147.5755      2852.4245      3.501776e+08   0.1            16524180       68.512394      426.84243      4268.4264      1.925297     
  55997000   305.52908     -1.413483      -43849270       1.7165611      909.81342     -43848360       704.84863      704.84863      704.84863      2147.5757      2852.4243      2147.5757      2852.4243      2147.5757      2852.4243      3.5017696e+08  0.1            16524200       68.55925       426.84843      4268.474       1.8783357    
  55997200   305.69499     -1.488248      -43849339       1.7165639      910.30748     -43848429       704.84824      704.84824      704.84824      2147.5759      2852.4241      2147.5759      2852.4241      2147.5759      2852.4241      3.5017638e+08  0.1            16524220       68.606056      427.29334      4272.9356      1.8313732    
  55997400   305.81783     -1.5616336     -43849409       1.7165668      910.67327     -43848498       704.84784      704.84784      704.84784      2147.5761      2852.4239      2147.5761      2852.4239      2147.5761      2852.4239      3.5017579e+08  0.1            16524240       68.652809      427.78305      4277.8372      1.7844096    
  55997600   305.728       -1.6065459     -43849478       1.7165706      910.40579     -43848568       704.84732      704.84732      704.84732      2147.5763      2852.4237      2147.5763      2852.4237      2147.5763      2852.4237      3.5017501e+08  0.1            16524260       68.699623      427.21481      4272.1395      1.7374478    
  55997800   305.68975     -1.5722653     -43849548       1.7165767      910.29187     -43848638       704.84649      704.84649      704.84649      2147.5768      2852.4232      2147.5768      2852.4232      2147.5768      2852.4232      3.5017378e+08  0.1            16524280       68.746379      427.75971      4277.5974      1.6904848    
  55998000   305.52193     -1.3728219     -43849618       1.7165875      909.79213     -43848708       704.84501      704.84501      704.84501      2147.5775      2852.4225      2147.5775      2852.4225      2147.5775      2852.4225      3.5017158e+08  0.1            16524300       68.793241      426.78095      4267.8159      1.6435246    
  55998200   305.6905      -0.87744045    -43849687       1.7166066      910.29412     -43848777       704.8424       704.8424       704.8424       2147.5788      2852.4212      2147.5788      2852.4212      2147.5788      2852.4212      3.5016768e+08  0.1            16524320       68.840055      427.22023      4272.194       1.5965634    
  55998400   305.80749     -2.9741598     -43849756       1.7165528      910.64249     -43848846       704.84976      704.84976      704.84976      2147.5751      2852.4249      2147.5751      2852.4249      2147.5751      2852.4249      3.5017865e+08  0.1            16524340       68.8869        426.9389       4269.3862      1.5496031    
  55998600   305.74837      5.7320336     -43857203       1.7168137      910.46643     -43856292       704.81405      704.81405      704.81405      2147.593       2852.407       2147.593       2852.407       2147.593       2852.407       3.5012543e+08  0.1            16524360       68.933706      427.29872      4272.9973      1.5026421    
  55998800   305.67271     -5.847053      -43849894       1.7164825      910.24112     -43848984       704.85938      704.85938      704.85938      2147.5703      2852.4297      2147.5703      2852.4297      2147.5703      2852.4297      3.5019299e+08  0.1            16524380       68.980534      427.09807      4270.9772      1.4556818    
  55999000   305.55374      8.2560947     -43864718       1.7169059      909.88686     -43863809       704.80143      704.80143      704.80143      2147.5993      2852.4007      2147.5993      2852.4007      2147.5993      2852.4007      3.5010663e+08  0.1            16524400       69.027402      426.73064      4267.3065      1.4087225    
  55999200   305.68018     -3.0372434     -43850034       1.7165724      910.26339     -43849124       704.84708      704.84708      704.84708      2147.5765      2852.4235      2147.5765      2852.4235      2147.5765      2852.4235      3.5017465e+08  0.1            16524420       69.074164      427.6995       4276.998       1.3617613    
  55999400   305.80341     -3.4340527     -43850104       1.7165667      910.63033     -43849193       704.84786      704.84786      704.84786      2147.5761      2852.4239      2147.5761      2852.4239      2147.5761      2852.4239      3.5017582e+08  0.1            16524440       69.120953      427.44782      4274.4715      1.3148008    
  55999600   305.75998      9.3294729     -43866821       1.7169565      910.50102     -43865911       704.79451      704.79451      704.79451      2147.6027      2852.3973      2147.6027      2852.3973      2147.6027      2852.3973      3.5009631e+08  0.1            16524460       69.168723      418.66711      4186.6754      1.2678585    
  55999800   305.66808     -5.871835      -43850242       1.7165092      910.22736     -43849331       704.85573      704.85573      704.85573      2147.5721      2852.4279      2147.5721      2852.4279      2147.5721      2852.4279      3.5018755e+08  0.1            16524480       69.215605      426.61064      4266.115       1.2208994    
  56000000   305.52173     -1.1776137     -43865069       1.7166682      909.79155     -43864159       704.83396      704.83396      704.83396      2147.583       2852.417       2147.583       2852.417       2147.583       2852.417       3.501551e+08   0.1            16524500       69.2625        426.48195      4264.8086      1.1739407    
  56000200   305.72758      9.6947156     -43874407       1.7169938      910.40453     -43873497       704.78941      704.78941      704.78941      2147.6053      2852.3947      2147.6053      2852.3947      2147.6053      2852.3947      3.5008872e+08  0.1            16524520       69.309273      427.59659      4275.9655      1.1269801    
  56000400   305.79506     -5.5878734     -43857828       1.7165449      910.60548     -43856918       704.85084      704.85084      704.85084      2147.5746      2852.4254      2147.5746      2852.4254      2147.5746      2852.4254      3.5018027e+08  0.1            16524540       69.356022      427.81719      4278.1787      1.0800193    
  56000600   305.74625      5.4074361     -43874549       1.7168847      910.46014     -43873638       704.80433      704.80433      704.80433      2147.5978      2852.4022      2147.5978      2852.4022      2147.5978      2852.4022      3.5011095e+08  0.1            16524560       69.402771      427.81015      4278.1027      1.0330589    
  56000800   305.68101     -2.941426      -43865346       1.7166413      910.26586     -43864436       704.83765      704.83765      704.83765      2147.5812      2852.4188      2147.5812      2852.4188      2147.5812      2852.4188      3.501606e+08   0.1            16524580       69.449587      427.20682      4272.065       0.98609965   
  56001000   305.53358      2.4253261     -43874689       1.7168125      909.82683     -43873779       704.81422      704.81422      704.81422      2147.5929      2852.4071      2147.5929      2852.4071      2147.5929      2852.4071      3.5012569e+08  0.1            16524600       69.496424      427.01751      4270.1775      0.9391409    
  56001200   305.69419      0.4698655     -43874759       1.7167634      910.30511     -43873848       704.82094      704.82094      704.82094      2147.5895      2852.4105      2147.5895      2852.4105      2147.5895      2852.4105      3.5013569e+08  0.1            16524620       69.543231      427.28285      4272.8245      0.89218193   
  56001400   305.82829      3.7999747     -43874828       1.7168621      910.70442     -43873917       704.80743      704.80743      704.80743      2147.5963      2852.4037      2147.5963      2852.4037      2147.5963      2852.4037      3.5011556e+08  0.1            16524640       69.59003       427.36269      4273.6249      0.84522307   
  56001600   305.7343       2.9544709     -43874897       1.7168441      910.42454     -43873987       704.80989      704.80989      704.80989      2147.5951      2852.4049      2147.5951      2852.4049      2147.5951      2852.4049      3.5011923e+08  0.1            16524660       69.636843      427.22688      4272.2731      0.79826459   
  56001800   305.68278     -1.1992672     -43874967       1.7167337      910.27111     -43874057       704.82499      704.82499      704.82499      2147.5875      2852.4125      2147.5875      2852.4125      2147.5875      2852.4125      3.5014174e+08  0.1            16524680       69.683669      427.11503      4271.1562      0.75130643   
  56002000   305.51472     -1.3388027     -43875037       1.7167355      909.77067     -43874127       704.82475      704.82475      704.82475      2147.5876      2852.4124      2147.5876      2852.4124      2147.5876      2852.4124      3.5014138e+08  0.1            16524700       69.730636      425.83421      4258.3367      0.70434988   
  56002200   305.69624      3.4175684     -43875106       1.7168738      910.31121     -43874195       704.80583      704.80583      704.80583      2147.5971      2852.4029      2147.5971      2852.4029      2147.5971      2852.4029      3.5011318e+08  0.1            16524720       69.777433      427.37967      4273.7985      0.65739172   
  56002400   305.81735      2.871771      -43875175       1.7168641      910.67185     -43874265       704.80715      704.80715      704.80715      2147.5964      2852.4036      2147.5964      2852.4036      2147.5964      2852.4036      3.5011515e+08  0.1            16524740       69.824295      426.77971      4267.7975      0.61043434   
  56002600   305.70897     -2.4583867     -43875245       1.7167212      910.34912     -43874334       704.82672      704.82672      704.82672      2147.5866      2852.4134      2147.5866      2852.4134      2147.5866      2852.4134      3.5014431e+08  0.1            16524760       69.87108       427.49317      4274.9263      0.56347647   
  56002800   305.68263      1.2696645     -43875314       1.7168306      910.27068     -43874404       704.81174      704.81174      704.81174      2147.5941      2852.4059      2147.5941      2852.4059      2147.5941      2852.4059      3.50122e+08    0.1            16524780       69.917866      427.47925      4274.796       0.51651884   
  56003000   305.52528      4.5847651     -43875383       1.7169282      909.80212     -43874473       704.79838      704.79838      704.79838      2147.6008      2852.3992      2147.6008      2852.3992      2147.6008      2852.3992      3.5010209e+08  0.1            16524800       69.964685      427.17383      4271.7402      0.46956166   
  56003200   305.69404      5.1849336     -43875452       1.7169502      910.30465     -43874542       704.79537      704.79537      704.79537      2147.6023      2852.3977      2147.6023      2852.3977      2147.6023      2852.3977      3.500976e+08   0.1            16524820       70.011461      427.56917      4275.667       0.42260441   
  56003400   305.80406     -0.29588373    -43868144       1.7167926      910.63227     -43867234       704.81694      704.81694      704.81694      2147.5915      2852.4085      2147.5915      2852.4085      2147.5915      2852.4085      3.5012974e+08  0.1            16524840       70.058244      427.50655      4275.0897      0.37564743   
  56003600   305.74029      6.2919779     -43875590       1.7169914      910.44238     -43874680       704.78974      704.78974      704.78974      2147.6051      2852.3949      2147.6051      2852.3949      2147.6051      2852.3949      3.500892e+08   0.1            16524860       70.105217      425.77695      4257.7656      0.32869158   
  56003800   305.67184     -1.6003379     -43860905       1.7167563      910.23854     -43859995       704.82191      704.82191      704.82191      2147.589       2852.411       2147.589       2852.411       2147.589       2852.411       3.5013714e+08  0.1            16524880       70.153062      418.0115       4180.1065      0.28173922   
  56004000   305.49059     -5.881313      -43860973       1.7166426      909.69882     -43860064       704.83747      704.83747      704.83747      2147.5813      2852.4187      2147.5813      2852.4187      2147.5813      2852.4187      3.5016034e+08  0.1            16524900       70.20001       426.011        4260.1201      0.23478265   
  56004200   305.65776     -5.8927518     -43861043       1.7166474      910.1966      -43860132       704.83681      704.83681      704.83681      2147.5816      2852.4184      2147.5816      2852.4184      2147.5816      2852.4184      3.5015935e+08  0.1            16524920       70.246754      427.85442      4278.5454      0.18782555   
  56004400   305.78516     -3.848584      -43861113       1.7167093      910.57599     -43860202       704.82834      704.82834      704.82834      2147.5858      2852.4142      2147.5858      2852.4142      2147.5858      2852.4142      3.5014674e+08  0.1            16524940       70.293629      426.67099      4266.709       0.140869     
  56004600   305.68378     -6.8832667     -43861181       1.71663        910.27411     -43860270       704.83919      704.83919      704.83919      2147.5804      2852.4196      2147.5804      2852.4196      2147.5804      2852.4196      3.5016291e+08  0.1            16524960       70.340398      427.63048      4276.3069      0.093912418  
  56004800   305.69818      8.9638118     -43861249       1.7170735      910.31699     -43860339       704.77851      704.77851      704.77851      2147.6107      2852.3893      2147.6107      2852.3893      2147.6107      2852.3893      3.5007247e+08  0.1            16524980       70.387286      426.55293      4265.5289      0.046956163  
  56005000   305.48084     -6.0518764     -43861320       1.7166627      909.66977     -43860410       704.83472      704.83472      704.83472      2147.5826      2852.4174      2147.5826      2852.4174      2147.5826      2852.4174      3.5015623e+08  0.1            16525000       70.434114      427.09213      4270.9118      0            
Loop time of 70.4341 on 1 procs for 300000 steps with 1000 atoms

Performance: 36.800 ns/day, 0.652 hours/ns, 4259.299 timesteps/s
99.8% CPU use with 1 MPI tasks x 1 OpenMP threads

MPI task timing breakdown:
Section |  min time  |  avg time  |  max time  |%varavg| %total
---------------------------------------------------------------
Pair    | 55.253     | 55.253     | 55.253     |   0.0 | 78.45
Neigh   | 0.022171   | 0.022171   | 0.022171   |   0.0 |  0.03
Comm    | 1.9953     | 1.9953     | 1.9953     |   0.0 |  2.83
Output  | 0.051681   | 0.051681   | 0.051681   |   0.0 |  0.07
Modify  | 11.581     | 11.581     | 11.581     |   0.0 | 16.44
Other   |            | 1.53       |            |       |  2.17

Nlocal:           1000 ave        1000 max        1000 min
Histogram: 1 0 0 0 0 0 0 0 0 0
Nghost:           1303 ave        1303 max        1303 min
Histogram: 1 0 0 0 0 0 0 0 0 0
Neighs:           6740 ave        6740 max        6740 min
Histogram: 1 0 0 0 0 0 0 0 0 0

Total # of neighbors = 6740
Ave neighs/atom = 6.74
Neighbor list builds = 31
Dangerous builds = 10

# run_style
run_style verlet

# write restart
write_restart ${write_res}
write_restart ./pgnpmf/37/equpmf80.res
System init for write_restart ...
Generated 0 of 1 mixed pair_coeff terms from geometric mixing rule

Total wall time: 0:02:33
