LAMMPS (23 Jun 2022 - Update 1)
# Read restart
read_restart ${read_res}
read_restart ./pgnpmf/37/equpmf2.res
Reading restart file ...
  restart file = 23 Jun 2022, LAMMPS = 23 Jun 2022
  restoring atom style atomic from restart
  orthogonal box = (1406.5943 1406.5943 1406.5943) to (3593.4057 3593.4057 3593.4057)
  1 by 2 by 2 MPI processor grid
  restoring pair style table from restart
  1000 atoms
  read_restart CPU = 0.016 seconds

# Settings

pair_style table spline 9941

pair_coeff 1 1 ./pgnpmf/N20.txt DE_GNP 75.6
pair_coeff 2 2 ./pgnpmf/N100.txt DE_GNP 115.92
WARNING: 3 of 9941 force values in table DE_GNP are inconsistent with -dE/dr.
WARNING:  Should only be flagged at inflection points (../pair_table.cpp:463)
pair_coeff 1 2 ./pgnpmf/mixed_potential.txt DE_GNP 95.66
WARNING: 1562 of 9941 force values in table DE_GNP are inconsistent with -dE/dr.
WARNING:  Should only be flagged at inflection points (../pair_table.cpp:463)

#Neigh_list Calc Frequency

neigh_modify delay 0 every 1 check yes

# Saving Frequency (50 frames)

variable ts_save equal ${steps_equ}
variable ts_save equal 5000

# Dump
#dump 1 all custom ${ts_save} ./pgnpmf/${folder}/equilibration/trajectory/trajectory_${usic}_${trial}.equ.custom type x y z ix iy iz
#dump_modify 1 first no sort id
#dump 2 all cfg 50000 ./equilibration/trajectory/ovito/dumpgen.tens_*.cfg mass type xs ys zs fx fy fz

# thermo_style
thermo_style custom step temp press pe density ke etotal lx ly lz xlo xhi ylo yhi zlo zhi vol dt time cpu tpcpu spcpu cpuremain

# run info
timestep ${ts}
timestep 0.5
thermo 200

# fix

fix 1 all momentum 1000 linear 1 1 1 angular
variable T equal ${temp}
variable T equal 300
fix 2 all nvt temp ${T} 370000 100.0
fix 2 all nvt temp 300 370000 100.0

run 100000
Generated 0 of 1 mixed pair_coeff terms from geometric mixing rule
Unused restart file global fix info:
  fix style: npt, fix ID: 5
Neighbor list info ...
  update every 1 steps, delay 0 steps, check yes
  max neighbors/atom: 2000, page size: 100000
  master list distance cutoff = 117.92
  ghost atom cutoff = 117.92
  binsize = 58.96, bins = 38 38 38
  1 neighbor lists, perpetual/occasional/extra = 1 0 0
  (1) pair table, perpetual
      attributes: half, newton on
      pair build: half/bin/atomonly/newton
      stencil: half/bin/3d
      bin: standard
Per MPI rank memory allocation (min/avg/max) = 3.161 | 3.162 | 3.165 Mbytes
   Step          Temp          Press          PotEng        Density         KinEng         TotEng           Lx             Ly             Lz            Xlo            Xhi            Ylo            Yhi            Zlo            Zhi           Volume           Dt            Time           CPU           T/CPU          S/CPU         CPULeft    
   1405000   320.41562      1.0369856     -3044053.2      0.057479478    954.14301     -3043099.1      2186.8114      2186.8114      2186.8114      1406.5943      3593.4057      1406.5943      3593.4057      1406.5943      3593.4057      1.0457648e+10  0.5            705000         0              0              0              0            
   1405200   472.12299      0.97293778    -3044334.3      0.057479478    1405.9017     -3042928.4      2186.8114      2186.8114      2186.8114      1406.5943      3593.4057      1406.5943      3593.4057      1406.5943      3593.4057      1.0457648e+10  0.5            705100         0.008950162    11172.123      22341.905      4.4673589    
   1405400   767.42433      0.89326556    -3044681.1      0.057479478    2285.2586     -3042395.8      2186.8114      2186.8114      2186.8114      1406.5943      3593.4057      1406.5943      3593.4057      1406.5943      3593.4057      1.0457648e+10  0.5            705200         0.017856454    11228.196      22456.589      4.4468146    
   1405600   1252.4163      0.79312697    -3045116.1      0.057479478    3729.4818     -3041386.6      2186.8114      2186.8114      2186.8114      1406.5943      3593.4057      1406.5943      3593.4057      1406.5943      3593.4057      1.0457648e+10  0.5            705300         0.026763662    11226.942      22453.929      4.4342072    
   1405800   1991.4205      0.67239223    -3045655.7      0.057479478    5930.1102     -3039725.6      2186.8114      2186.8114      2186.8114      1406.5943      3593.4057      1406.5943      3593.4057      1406.5943      3593.4057      1.0457648e+10  0.5            705400         0.035695136    11196.286      22392.502      4.4264747    
   1406000   3023.3986      0.5394375     -3045939.9      0.057479478    9003.1648     -3036936.8      2186.8114      2186.8114      2186.8114      1406.5943      3593.4057      1406.5943      3593.4057      1406.5943      3593.4057      1.0457648e+10  0.5            705500         0.045460674    10240.018      20479.079      4.5008856    
   1406200   4292.8679      0.38039636    -3046700.5      0.057479478    12783.427     -3033917.1      2186.8114      2186.8114      2186.8114      1406.5943      3593.4057      1406.5943      3593.4057      1406.5943      3593.4057      1.0457648e+10  0.5            705600         0.054527333    11029.573      22060.448      4.4895884    
   1406400   5574.3992      0.19577292    -3047918.1      0.057479478    16599.609     -3031318.5      2186.8114      2186.8114      2186.8114      1406.5943      3593.4057      1406.5943      3593.4057      1406.5943      3593.4057      1.0457648e+10  0.5            705700         0.063393944    11278.223      22556.505      4.4648937    
   1406600   6497.2609     -0.016865939   -3048809.6      0.057479478    19347.733     -3029461.8      2186.8114      2186.8114      2186.8114      1406.5943      3593.4057      1406.5943      3593.4057      1406.5943      3593.4057      1.0457648e+10  0.5            705800         0.072276422    11258.154      22516.204      4.4451309    
   1406800   6931.75       -0.26721722    -3050064        0.057479478    20641.568     -3029422.5      2186.8114      2186.8114      2186.8114      1406.5943      3593.4057      1406.5943      3593.4057      1406.5943      3593.4057      1.0457648e+10  0.5            705900         0.081166726    11248.142      22496.34       4.4282171    
   1407000   7399.2383     -0.52326888    -3050915.2      0.057479478    22033.668     -3028881.6      2186.8114      2186.8114      2186.8114      1406.5943      3593.4057      1406.5943      3593.4057      1406.5943      3593.4057      1.0457648e+10  0.5            706000         0.090102413    11190.917      22381.516      4.4151423    
   1407200   8357.7768     -0.75479631    -3051744.5      0.057479478    24888.032     -3026856.5      2186.8114      2186.8114      2186.8114      1406.5943      3593.4057      1406.5943      3593.4057      1406.5943      3593.4057      1.0457648e+10  0.5            706100         0.099545901    10589.384      21178.784      4.4253751    
   1407400   9420.5306     -0.96937118    -3052558.4      0.057479478    28052.731     -3024505.7      2186.8114      2186.8114      2186.8114      1406.5943      3593.4057      1406.5943      3593.4057      1406.5943      3593.4057      1.0457648e+10  0.5            706200         0.10848908     11181.737      22363.68       4.4119832    
   1407600   10056.21      -1.2189872     -3053336.9      0.057479478    29945.677     -3023391.2      2186.8114      2186.8114      2186.8114      1406.5943      3593.4057      1406.5943      3593.4057      1406.5943      3593.4057      1.0457648e+10  0.5            706300         0.11874442     9751.0327      19501.921      4.4484375    
   1407800   10443.486     -1.5005187     -3054065.1      0.057479478    31098.918     -3022966.1      2186.8114      2186.8114      2186.8114      1406.5943      3593.4057      1406.5943      3593.4057      1406.5943      3593.4057      1.0457648e+10  0.5            706400         0.12788647     10938.531      21877.312      4.439563     
   1408000   11175.693     -1.7980353     -3054736.9      0.057479478    33279.306     -3021457.6      2186.8114      2186.8114      2186.8114      1406.5943      3593.4057      1406.5943      3593.4057      1406.5943      3593.4057      1.0457648e+10  0.5            706500         0.13732529     10594.413      21188.645      4.4402641    
   1408200   12261.211     -2.0644277     -3055352        0.057479478    36511.794     -3018840.2      2186.8114      2186.8114      2186.8114      1406.5943      3593.4057      1406.5943      3593.4057      1406.5943      3593.4057      1.0457648e+10  0.5            706600         0.14678075     10576.029      21152.239      4.4401828    
   1408400   13113.86      -2.2613614     -3055915.7      0.057479478    39050.837     -3016864.8      2186.8114      2186.8114      2186.8114      1406.5943      3593.4057      1406.5943      3593.4057      1406.5943      3593.4057      1.0457648e+10  0.5            706700         0.15636177     10437.288      20874.362      4.4425803    
   1408600   13548.934     -2.5320833     -3056415.1      0.057479478    40346.411     -3016068.7      2186.8114      2186.8114      2186.8114      1406.5943      3593.4057      1406.5943      3593.4057      1406.5943      3593.4057      1.0457648e+10  0.5            706800         0.16530292     11184.271      22368.795      4.4265025    
   1408800   14081.03      -2.7989034     -3056852.4      0.057479478    41930.902     -3014921.5      2186.8114      2186.8114      2186.8114      1406.5943      3593.4057      1406.5943      3593.4057      1406.5943      3593.4057      1.0457648e+10  0.5            706900         0.17478088     10550.639      21101.146      4.4247751    
   1409000   15059.662     -2.9984619     -3057224.8      0.057479478    44845.102     -3012379.7      2186.8114      2186.8114      2186.8114      1406.5943      3593.4057      1406.5943      3593.4057      1406.5943      3593.4057      1.0457648e+10  0.5            707000         0.18379656     11091.825      22183.554      4.4111763    
   1409200   16074.288     -3.2394474     -3057911.2      0.057479478    47866.484     -3010044.7      2186.8114      2186.8114      2186.8114      1406.5943      3593.4057      1406.5943      3593.4057      1406.5943      3593.4057      1.0457648e+10  0.5            707100         0.19278111     11130.358      22261.078      4.3972921    
   1409400   16666.611     -3.4852472     -3058167        0.057479478    49630.321     -3008536.7      2186.8114      2186.8114      2186.8114      1406.5943      3593.4057      1406.5943      3593.4057      1406.5943      3593.4057      1.0457648e+10  0.5            707200         0.20263664     10146.465      20292.655      4.4027946    
   1409600   17085.444     -3.6999279     -3058345.8      0.057479478    50877.534     -3007468.3      2186.8114      2186.8114      2186.8114      1406.5943      3593.4057      1406.5943      3593.4057      1406.5943      3593.4057      1.0457648e+10  0.5            707300         0.21156097     11205.415      22410.937      4.3876356    
   1409800   17874.251     -3.9239913     -3065832.4      0.057479478    53226.467     -3012605.9      2186.8114      2186.8114      2186.8114      1406.5943      3593.4057      1406.5943      3593.4057      1406.5943      3593.4057      1.0457648e+10  0.5            707400         0.2204272      11278.806      22557.655      4.3718483    
   1410000   18945.629     -4.1316572     -3073271.9      0.057479478    56416.848     -3016855.1      2186.8114      2186.8114      2186.8114      1406.5943      3593.4057      1406.5943      3593.4057      1406.5943      3593.4057      1.0457648e+10  0.5            707500         0.22934531     11213.095      22426.025      4.3576049    
   1410200   19738.015     -4.3536375     -3073283.1      0.057479478    58776.439     -3014506.7      2186.8114      2186.8114      2186.8114      1406.5943      3593.4057      1406.5943      3593.4057      1406.5943      3593.4057      1.0457648e+10  0.5            707600         0.23830448     11161.741      22323.756      4.3445135    
   1410400   20169.459     -4.5717228     -3073227        0.057479478    60061.206     -3013165.8      2186.8114      2186.8114      2186.8114      1406.5943      3593.4057      1406.5943      3593.4057      1406.5943      3593.4057      1.0457648e+10  0.5            707700         0.24748352     10894.437      21788.745      4.3355829    
   1410600   20762.666     -4.7451226     -3073104.2      0.057479478    61827.674     -3011276.5      2186.8114      2186.8114      2186.8114      1406.5943      3593.4057      1406.5943      3593.4057      1406.5943      3593.4057      1.0457648e+10  0.5            707800         0.25652152     11064.406      22128.944      4.3242552    
   1410800   21762.927     -4.9210643     -3072930.7      0.057479478    64806.281     -3008124.4      2186.8114      2186.8114      2186.8114      1406.5943      3593.4057      1406.5943      3593.4057      1406.5943      3593.4057      1.0457648e+10  0.5            707900         0.2656883      10908.861      21817.596      4.3151828    
   1411000   22718.282     -5.0952039     -3072710.7      0.057479478    67651.163     -3005059.5      2186.8114      2186.8114      2186.8114      1406.5943      3593.4057      1406.5943      3593.4057      1406.5943      3593.4057      1.0457648e+10  0.5            708000         0.27467156     11131.806      22263.449      4.3032257    
   1411200   23276.028     -5.2421348     -3072433.5      0.057479478    69312.037     -3003121.5      2186.8114      2186.8114      2186.8114      1406.5943      3593.4057      1406.5943      3593.4057      1406.5943      3593.4057      1.0457648e+10  0.5            708100         0.28362464     11169.367      22338.821      4.2910001    
   1411400   23757.256     -5.4052319     -3072122.5      0.057479478    70745.052     -3001377.5      2186.8114      2186.8114      2186.8114      1406.5943      3593.4057      1406.5943      3593.4057      1406.5943      3593.4057      1.0457648e+10  0.5            708200         0.29250999     11254.483      22509.149      4.2779903    
   1411600   24596.911     -5.5098423     -3071769.8      0.057479478    73245.401     -2998524.4      2186.8114      2186.8114      2186.8114      1406.5943      3593.4057      1406.5943      3593.4057      1406.5943      3593.4057      1.0457648e+10  0.5            708300         0.30139921     11249.621      22499.25       4.2652862    
   1411800   25614.184     -5.6276233     -3069497.3      0.057479478    76274.666     -2993222.6      2186.8114      2186.8114      2186.8114      1406.5943      3593.4057      1406.5943      3593.4057      1406.5943      3593.4057      1.0457648e+10  0.5            708400         0.31029325     11243.515      22486.931      4.2528721    
   1412000   26340.581     -5.7577643     -3069082        0.057479478    78437.751     -2990644.2      2186.8114      2186.8114      2186.8114      1406.5943      3593.4057      1406.5943      3593.4057      1406.5943      3593.4057      1.0457648e+10  0.5            708500         0.31945895     10910.178      21820.259      4.2442712    
   1412200   26819.06      -5.8724295     -3068645.5      0.057479478    79862.581     -2988783        2186.8114      2186.8114      2186.8114      1406.5943      3593.4057      1406.5943      3593.4057      1406.5943      3593.4057      1.0457648e+10  0.5            708600         0.32837913     11210.625      22421.507      4.2324685    
   1412400   27496.266     -5.9611302     -3070081.7      0.057479478    81879.186     -2988202.5      2186.8114      2186.8114      2186.8114      1406.5943      3593.4057      1406.5943      3593.4057      1406.5943      3593.4057      1.0457648e+10  0.5            708700         0.33725868     11261.813      22523.466      4.2203176    
   1412600   28470.111     -6.0328232     -3069976.5      0.057479478    84779.13      -2985197.4      2186.8114      2186.8114      2186.8114      1406.5943      3593.4057      1406.5943      3593.4057      1406.5943      3593.4057      1.0457648e+10  0.5            708800         0.34641971     10915.833      21831.723      4.2117596    
   1412800   29341.866     -6.1173342     -3076888.8      0.057479478    87375.067     -2989513.7      2186.8114      2186.8114      2186.8114      1406.5943      3593.4057      1406.5943      3593.4057      1406.5943      3593.4057      1.0457648e+10  0.5            708900         0.35547925     11038.115      22076.376      4.2019705    
   1413000   29905.042     -6.1783133     -3076421.6      0.057479478    89052.108     -2987369.5      2186.8114      2186.8114      2186.8114      1406.5943      3593.4057      1406.5943      3593.4057      1406.5943      3593.4057      1.0457648e+10  0.5            709000         0.36443024     11171.789      22343.201      4.1909747    
   1413200   30470.104     -6.2630032     -3075951.1      0.057479478    90734.768     -2985216.3      2186.8114      2186.8114      2186.8114      1406.5943      3593.4057      1406.5943      3593.4057      1406.5943      3593.4057      1.0457648e+10  0.5            709100         0.37359682     10909.215      21818.693      4.1824865    
   1413400   31337.109     -6.3179039     -3082855.8      0.057479478    93316.56      -2989539.2      2186.8114      2186.8114      2186.8114      1406.5943      3593.4057      1406.5943      3593.4057      1406.5943      3593.4057      1.0457648e+10  0.5            709200         0.38248784     11247.364      22494.63       4.1709625    
   1413600   32278.046     -6.3351375     -3082384        0.057479478    96118.508     -2986265.5      2186.8114      2186.8114      2186.8114      1406.5943      3593.4057      1406.5943      3593.4057      1406.5943      3593.4057      1.0457648e+10  0.5            709300         0.39138588     11238.486      22476.86       4.1596356    
   1413800   32965.616     -6.3544387     -3081921        0.057479478    98165.974     -2983755        2186.8114      2186.8114      2186.8114      1406.5943      3593.4057      1406.5943      3593.4057      1406.5943      3593.4057      1.0457648e+10  0.5            709400         0.40029337     11226.444      22453.1        4.1485176    
   1414000   33517.479     -6.3635456     -3081464.4      0.057479478    99809.328     -2981655        2186.8114      2186.8114      2186.8114      1406.5943      3593.4057      1406.5943      3593.4057      1406.5943      3593.4057      1.0457648e+10  0.5            709500         0.40925626     11157.093      22313.069      4.1380622    
   1414200   34284.163     -6.3693551     -3081018.8      0.057479478    102092.38     -2978926.4      2186.8114      2186.8114      2186.8114      1406.5943      3593.4057      1406.5943      3593.4057      1406.5943      3593.4057      1.0457648e+10  0.5            709600         0.41821667     11160.245      22321.416      4.127638     
   1414400   35233.323     -6.3572825     -3080576.1      0.057479478    104918.82     -2975657.2      2186.8114      2186.8114      2186.8114      1406.5943      3593.4057      1406.5943      3593.4057      1406.5943      3593.4057      1.0457648e+10  0.5            709700         0.42734037     10960.391      21920.64       4.118857     
   1414600   36030.065     -6.3212612     -3080158.8      0.057479478    107291.38     -2972867.4      2186.8114      2186.8114      2186.8114      1406.5943      3593.4057      1406.5943      3593.4057      1406.5943      3593.4057      1.0457648e+10  0.5            709800         0.43630143     11159.454      22319.149      4.1085257    
   1414800   36690.008     -6.2716186     -3079749.2      0.057479478    109256.58     -2970492.7      2186.8114      2186.8114      2186.8114      1406.5943      3593.4057      1406.5943      3593.4057      1406.5943      3593.4057      1.0457648e+10  0.5            709900         0.44534445     11058.272      22116.64       4.0990065    
   1415000   37712.994     -6.2035985     -3079368.2      0.057479478    112302.86     -2967065.3      2186.8114      2186.8114      2186.8114      1406.5943      3593.4057      1406.5943      3593.4057      1406.5943      3593.4057      1.0457648e+10  0.5            710000         0.4545797      10828.04       21655.904      4.0912385    
   1415200   39120.056     -6.1548005     -3079005.7      0.057479478    116492.85     -2962512.8      2186.8114      2186.8114      2186.8114      1406.5943      3593.4057      1406.5943      3593.4057      1406.5943      3593.4057      1.0457648e+10  0.5            710100         0.46361887     11062.93       22126.004      4.0816831    
   1415400   39495.129     -6.072327      -3078669.1      0.057479478    117609.75     -2961059.4      2186.8114      2186.8114      2186.8114      1406.5943      3593.4057      1406.5943      3593.4057      1406.5943      3593.4057      1.0457648e+10  0.5            710200         0.47273885     10964.994      21930.024      4.0728447    
   1415600   38091.657     -6.0350693     -3078374.9      0.057479478    113430.45     -2964944.4      2186.8114      2186.8114      2186.8114      1406.5943      3593.4057      1406.5943      3593.4057      1406.5943      3593.4057      1.0457648e+10  0.5            710300         0.4816183      11261.997      22523.877      4.0619686    
   1415800   38339.031     -5.9754802     -3078134.5      0.057479478    114167.09     -2963967.4      2186.8114      2186.8114      2186.8114      1406.5943      3593.4057      1406.5943      3593.4057      1406.5943      3593.4057      1.0457648e+10  0.5            710400         0.4905056      11251.859      22503.552      4.0512323    
   1416000   40955.434     -5.8602733     -3078322.9      0.057479478    121958.29     -2956364.6      2186.8114      2186.8114      2186.8114      1406.5943      3593.4057      1406.5943      3593.4057      1406.5943      3593.4057      1.0457648e+10  0.5            710500         0.49951214     11103.105      22206.258      4.0415263    
   1416200   41802.236     -5.7637319     -3078206.8      0.057479478    124479.92     -2953726.9      2186.8114      2186.8114      2186.8114      1406.5943      3593.4057      1406.5943      3593.4057      1406.5943      3593.4057      1.0457648e+10  0.5            710600         0.50847366     11158.875      22317.809      4.0314869    
   1416400   42439.823     -5.670407      -3078166.1      0.057479478    126378.55     -2951787.5      2186.8114      2186.8114      2186.8114      1406.5943      3593.4057      1406.5943      3593.4057      1406.5943      3593.4057      1.0457648e+10  0.5            710700         0.51738982     11215.647      22431.377      4.0211341    
   1416600   43702.561     -5.5357384     -3078213.1      0.057479478    130138.76     -2948074.4      2186.8114      2186.8114      2186.8114      1406.5943      3593.4057      1406.5943      3593.4057      1406.5943      3593.4057      1.0457648e+10  0.5            710800         0.52649143     10987.002      21974.045      4.012244     
   1416800   45481.543     -5.3615765     -3078350.8      0.057479478    135436.27     -2942914.6      2186.8114      2186.8114      2186.8114      1406.5943      3593.4057      1406.5943      3593.4057      1406.5943      3593.4057      1.0457648e+10  0.5            710900         0.5353531      11284.272      22568.485      4.0015559    
   1417000   45317.982     -5.26126       -3078581.6      0.057479478    134949.21     -2943632.4      2186.8114      2186.8114      2186.8114      1406.5943      3593.4057      1406.5943      3593.4057      1406.5943      3593.4057      1.0457648e+10  0.5            711000         0.54444195     11002.737      22005.359      3.992591     
   1417200   43010.517     -5.1718979     -3078895        0.057479478    128077.97     -2950817        2186.8114      2186.8114      2186.8114      1406.5943      3593.4057      1406.5943      3593.4057      1406.5943      3593.4057      1.0457648e+10  0.5            711100         0.55412182     10330.755      20661.435      3.9878776    
   1417400   44598.39      -5.0220581     -3079317.4      0.057479478    132806.39     -2946511        2186.8114      2186.8114      2186.8114      1406.5943      3593.4057      1406.5943      3593.4057      1406.5943      3593.4057      1.0457648e+10  0.5            711200         0.56321653     10995.451      21991.137      3.9788673    
   1417600   46870.184     -4.8366337     -3079856.9      0.057479478    139571.4      -2940285.5      2186.8114      2186.8114      2186.8114      1406.5943      3593.4057      1406.5943      3593.4057      1406.5943      3593.4057      1.0457648e+10  0.5            711300         0.57287089     10357.923      20715.572      3.9737405    
   1417800   47712.557     -4.6664984     -3080494.7      0.057479478    142079.85     -2938414.8      2186.8114      2186.8114      2186.8114      1406.5943      3593.4057      1406.5943      3593.4057      1406.5943      3593.4057      1.0457648e+10  0.5            711400         0.58182789     11164.436      22329.164      3.9637176    
   1418000   48480.664     -4.4848837     -3081236.5      0.057479478    144367.14     -2936869.4      2186.8114      2186.8114      2186.8114      1406.5943      3593.4057      1406.5943      3593.4057      1406.5943      3593.4057      1.0457648e+10  0.5            711500         0.59077865     11172.254      22344.302      3.9536886    
   1418200   49636.092     -4.2892602     -3082064.4      0.057479478    147807.81     -2934256.6      2186.8114      2186.8114      2186.8114      1406.5943      3593.4057      1406.5943      3593.4057      1406.5943      3593.4057      1.0457648e+10  0.5            711600         0.59975436     11141.261      22282.767      3.9438532    
   1418400   51069.207     -4.0878596     -3082998.2      0.057479478    152075.38     -2930922.8      2186.8114      2186.8114      2186.8114      1406.5943      3593.4057      1406.5943      3593.4057      1406.5943      3593.4057      1.0457648e+10  0.5            711700         0.60959369     10163.272      20326.399      3.9396273    
   1418600   50825.129     -3.9423004     -3091379.4      0.057479478    151348.56     -2940030.8      2186.8114      2186.8114      2186.8114      1406.5943      3593.4057      1406.5943      3593.4057      1406.5943      3593.4057      1.0457648e+10  0.5            711800         0.61852519     11196.267      22392.497      3.9294687    
   1418800   49338.351     -3.8006977     -3092452.4      0.057479478    146921.18     -2945531.2      2186.8114      2186.8114      2186.8114      1406.5943      3593.4057      1406.5943      3593.4057      1406.5943      3593.4057      1.0457648e+10  0.5            711900         0.6274038      11263.042      22526.307      3.919014     
   1419000   51071.859     -3.5835109     -3093576.6      0.057479478    152083.28     -2941493.3      2186.8114      2186.8114      2186.8114      1406.5943      3593.4057      1406.5943      3593.4057      1406.5943      3593.4057      1.0457648e+10  0.5            712000         0.63638902     11129.272      22258.196      3.9092622    
   1419200   54267.527     -3.3655894     -3094794.7      0.057479478    161599.43     -2933195.2      2186.8114      2186.8114      2186.8114      1406.5943      3593.4057      1406.5943      3593.4057      1406.5943      3593.4057      1.0457648e+10  0.5            712100         0.6454809      10998.978      21998.217      3.9001724    
   1419400   53990.126     -3.1815003     -3097950.8      0.057479478    160773.38     -2937177.5      2186.8114      2186.8114      2186.8114      1406.5943      3593.4057      1406.5943      3593.4057      1406.5943      3593.4057      1.0457648e+10  0.5            712200         0.65497413     10533.743      21067.306      3.8934718    
   1419600   53278.018     -3.0522023     -3101113.5      0.057479478    158652.84     -2942460.6      2186.8114      2186.8114      2186.8114      1406.5943      3593.4057      1406.5943      3593.4057      1406.5943      3593.4057      1.0457648e+10  0.5            712300         0.66394439     11148.033      22296.368      3.8836325    
   1419800   54525.974     -2.8864606     -3102393.1      0.057479478    162369.04     -2940024.1      2186.8114      2186.8114      2186.8114      1406.5943      3593.4057      1406.5943      3593.4057      1406.5943      3593.4057      1.0457648e+10  0.5            712400         0.67287381     11198.961      22397.899      3.8735831    
   1420000   58898.782     -2.6282546     -3103714.6      0.057479478    175390.52     -2928324        2186.8114      2186.8114      2186.8114      1406.5943      3593.4057      1406.5943      3593.4057      1406.5943      3593.4057      1.0457648e+10  0.5            712500         0.68185827     11130.214      22260.163      3.8638772    
   1420200   57850.253     -2.449169      -3105025.7      0.057479478    172268.18     -2932757.5      2186.8114      2186.8114      2186.8114      1406.5943      3593.4057      1406.5943      3593.4057      1406.5943      3593.4057      1.0457648e+10  0.5            712600         0.69084043     11133.208      22266.81       3.8541744    
   1420400   56426.647     -2.2490149     -3106296.2      0.057479478    168028.92     -2938267.2      2186.8114      2186.8114      2186.8114      1406.5943      3593.4057      1406.5943      3593.4057      1406.5943      3593.4057      1.0457648e+10  0.5            712700         0.70057471     10272.972      20545.618      3.8486247    
   1420600   57217.451     -2.0712229     -3107554.4      0.057479478    170383.8      -2937170.6      2186.8114      2186.8114      2186.8114      1406.5943      3593.4057      1406.5943      3593.4057      1406.5943      3593.4057      1.0457648e+10  0.5            712800         0.71167647     9007.6067      18015.347      3.8503642    
   1420800   59383.593     -1.8835698     -3108823.3      0.057479478    176834.2      -2931989.1      2186.8114      2186.8114      2186.8114      1406.5943      3593.4057      1406.5943      3593.4057      1406.5943      3593.4057      1.0457648e+10  0.5            712900         0.72079272     10969.429      21938.761      3.8411986    
   1421000   61512.777     -1.6778559     -3111995.7      0.057479478    183174.55     -2928821.2      2186.8114      2186.8114      2186.8114      1406.5943      3593.4057      1406.5943      3593.4057      1406.5943      3593.4057      1.0457648e+10  0.5            713000         0.72986852     11018.276      22036.358      3.8318225    
   1421200   61716.347     -1.4699823     -3113264        0.057479478    183780.74     -2929483.3      2186.8114      2186.8114      2186.8114      1406.5943      3593.4057      1406.5943      3593.4057      1406.5943      3593.4057      1.0457648e+10  0.5            713100         0.7391648      10757.043      21514.408      3.823592     
   1421400   58977.494     -1.3744766     -3121888.2      0.057479478    175624.91     -2946263.3      2186.8114      2186.8114      2186.8114      1406.5943      3593.4057      1406.5943      3593.4057      1406.5943      3593.4057      1.0457648e+10  0.5            713200         0.74887682     10296.497      20592.78       3.8174571    
   1421600   59898.817     -1.2285905     -3138259.9      0.057479478    178368.45     -2959891.5      2186.8114      2186.8114      2186.8114      1406.5943      3593.4057      1406.5943      3593.4057      1406.5943      3593.4057      1.0457648e+10  0.5            713300         0.75874115     10137.579      20275.331      3.8119993    
   1421800   63574.212     -0.97917078    -3139571.7      0.057479478    189313.15     -2950258.6      2186.8114      2186.8114      2186.8114      1406.5943      3593.4057      1406.5943      3593.4057      1406.5943      3593.4057      1.0457648e+10  0.5            713400         0.76764725     11228.293      22456.584      3.8016921    
   1422000   64199.963     -0.79167467    -3140904.4      0.057479478    191176.53     -2949727.9      2186.8114      2186.8114      2186.8114      1406.5943      3593.4057      1406.5943      3593.4057      1406.5943      3593.4057      1.0457648e+10  0.5            713500         0.77684669     10870.13       21740.007      3.7928511    
   1422200   63258.688     -0.66404081    -3149633.2      0.057479478    188373.57     -2961259.6      2186.8114      2186.8114      2186.8114      1406.5943      3593.4057      1406.5943      3593.4057      1406.5943      3593.4057      1.0457648e+10  0.5            713600         0.78589939     11046.489      22093.337      3.7832931    
   1422400   63526.311     -0.4656586     -3150983.3      0.057479478    189170.51     -2961812.8      2186.8114      2186.8114      2186.8114      1406.5943      3593.4057      1406.5943      3593.4057      1406.5943      3593.4057      1.0457648e+10  0.5            713700         0.79484869     11174.097      22348.112      3.7732571    
   1422600   68803.136     -0.24817603    -3154271.7      0.057479478    204883.99     -2949387.7      2186.8114      2186.8114      2186.8114      1406.5943      3593.4057      1406.5943      3593.4057      1406.5943      3593.4057      1.0457648e+10  0.5            713800         0.80384156     11119.886      22239.73       3.7634504    
   1422800   68890.913     -0.065985354   -3155715.1      0.057479478    205145.37     -2950569.7      2186.8114      2186.8114      2186.8114      1406.5943      3593.4057      1406.5943      3593.4057      1406.5943      3593.4057      1.0457648e+10  0.5            713900         0.81306021     10847.394      21694.694      3.7547049    
   1423000   65846.861      0.070740363   -3157119.9      0.057479478    196080.71     -2961039.2      2186.8114      2186.8114      2186.8114      1406.5943      3593.4057      1406.5943      3593.4057      1406.5943      3593.4057      1.0457648e+10  0.5            714000         0.82208146     11085.022      22169.992      3.7450487    
   1423200   66214.575      0.24371662    -3160412.2      0.057479478    197175.7      -2963236.5      2186.8114      2186.8114      2186.8114      1406.5943      3593.4057      1406.5943      3593.4057      1406.5943      3593.4057      1.0457648e+10  0.5            714100         0.83112047     11063.24       22126.674      3.7354852    
   1423400   69156.294      0.46015243    -3161839.9      0.057479478    205935.64     -2955904.3      2186.8114      2186.8114      2186.8114      1406.5943      3593.4057      1406.5943      3593.4057      1406.5943      3593.4057      1.0457648e+10  0.5            714200         0.84010811     11126.362      22252.711      3.7257064    
   1423600   71222.301      0.64387065    -3163308.4      0.057479478    212087.85     -2951220.6      2186.8114      2186.8114      2186.8114      1406.5943      3593.4057      1406.5943      3593.4057      1406.5943      3593.4057      1.0457648e+10  0.5            714300         0.8495482      10593.055      21185.88       3.7179261    
   1423800   67628.915      0.73891477    -3164756.7      0.057479478    201387.36     -2963369.3      2186.8114      2186.8114      2186.8114      1406.5943      3593.4057      1406.5943      3593.4057      1406.5943      3593.4057      1.0457648e+10  0.5            714400         0.85869356     10934.638      21869.516      3.7088347    
   1424000   66731.216      0.92584988    -3166177.4      0.057479478    198714.17     -2967463.2      2186.8114      2186.8114      2186.8114      1406.5943      3593.4057      1406.5943      3593.4057      1406.5943      3593.4057      1.0457648e+10  0.5            714500         0.86770574     11095.986      22191.906      3.6991766    
   1424200   71069.894      1.1293298     -3167619.4      0.057479478    211634.01     -2955985.3      2186.8114      2186.8114      2186.8114      1406.5943      3593.4057      1406.5943      3593.4057      1406.5943      3593.4057      1.0457648e+10  0.5            714600         0.87708297     10664.114      21328.137      3.6910676    
   1424400   73101.739      1.2830495     -3171364.8      0.057479478    217684.5      -2953680.4      2186.8114      2186.8114      2186.8114      1406.5943      3593.4057      1406.5943      3593.4057      1406.5943      3593.4057      1.0457648e+10  0.5            714700         0.88614178     11039.065      22078.374      3.6816081    
   1424600   72836.856      1.483857      -3172813.6      0.057479478    216895.72     -2955917.9      2186.8114      2186.8114      2186.8114      1406.5943      3593.4057      1406.5943      3593.4057      1406.5943      3593.4057      1.0457648e+10  0.5            714800         0.89512415     11132.961      22265.811      3.6718446    
   1424800   71348.161      1.6220951     -3176134.7      0.057479478    212462.64     -2963672.1      2186.8114      2186.8114      2186.8114      1406.5943      3593.4057      1406.5943      3593.4057      1406.5943      3593.4057      1.0457648e+10  0.5            714900         0.90411089     11127.48       22254.902      3.6621146    
   1425000   71700.299      1.7887165     -3177515.3      0.057479478    213511.25     -2964004.1      2186.8114      2186.8114      2186.8114      1406.5943      3593.4057      1406.5943      3593.4057      1406.5943      3593.4057      1.0457648e+10  0.5            715000         0.91334443     10830.007      21659.959      3.6533872    
   1425200   76874.311      2.0148998     -3178878.8      0.057479478    228918.57     -2949960.3      2186.8114      2186.8114      2186.8114      1406.5943      3593.4057      1406.5943      3593.4057      1406.5943      3593.4057      1.0457648e+10  0.5            715100         0.92292465     10438.211      20876.489      3.6460184    
   1425400   77560.801      2.2116535     -3180210.9      0.057479478    230962.82     -2949248.1      2186.8114      2186.8114      2186.8114      1406.5943      3593.4057      1406.5943      3593.4057      1406.5943      3593.4057      1.0457648e+10  0.5            715200         0.93193528     11098.07       22196.23       3.6363833    
   1425600   74995.057      2.3317348     -3181437.1      0.057479478    223322.47     -2958114.6      2186.8114      2186.8114      2186.8114      1406.5943      3593.4057      1406.5943      3593.4057      1406.5943      3593.4057      1.0457648e+10  0.5            715300         0.94169153     10249.762      20499.407      3.6296355    
   1425800   75011.533      2.4951622     -3184453.8      0.057479478    223371.54     -2961082.2      2186.8114      2186.8114      2186.8114      1406.5943      3593.4057      1406.5943      3593.4057      1406.5943      3593.4057      1.0457648e+10  0.5            715400         0.95104641     10689.634      21379.44       3.6213005    
   1426000   81148.564      2.7343927     -3185521.2      0.057479478    241646.57     -2943874.6      2186.8114      2186.8114      2186.8114      1406.5943      3593.4057      1406.5943      3593.4057      1406.5943      3593.4057      1.0457648e+10  0.5            715500         0.96082344     10227.99       20455.827      3.6145352    
   1426200   81615.318      2.9010326     -3186472.4      0.057479478    243036.48     -2943435.9      2186.8114      2186.8114      2186.8114      1406.5943      3593.4057      1406.5943      3593.4057      1406.5943      3593.4057      1.0457648e+10  0.5            715600         0.97008794     10793.961      21588.063      3.6058065    
   1426400   78783.06       3.0350781     -3187249.3      0.057479478    234602.5      -2952646.8      2186.8114      2186.8114      2186.8114      1406.5943      3593.4057      1406.5943      3593.4057      1406.5943      3593.4057      1.0457648e+10  0.5            715700         0.97966583     10440.728      20881.297      3.5982207    
   1426600   78129.29       3.2196897     -3187842.8      0.057479478    232655.68     -2955187.1      2186.8114      2186.8114      2186.8114      1406.5943      3593.4057      1406.5943      3593.4057      1406.5943      3593.4057      1.0457648e+10  0.5            715800         0.98876253     10993.012      21986.087      3.5888501    
   1426800   81561.252      3.3974249     -3187916.2      0.057479478    242875.48     -2945040.7      2186.8114      2186.8114      2186.8114      1406.5943      3593.4057      1406.5943      3593.4057      1406.5943      3593.4057      1.0457648e+10  0.5            715900         0.99856322     10203.32       20406.425      3.5820119    
   1427000   84482.784      3.6069184     -3188179.9      0.057479478    251575.3      -2936604.6      2186.8114      2186.8114      2186.8114      1406.5943      3593.4057      1406.5943      3593.4057      1406.5943      3593.4057      1.0457648e+10  0.5            716000         1.0076181      11043.736      22087.428      3.5724731    
   1427200   82483.949      3.7385402     -3195638.3      0.057479478    245623.11     -2950015.2      2186.8114      2186.8114      2186.8114      1406.5943      3593.4057      1406.5943      3593.4057      1406.5943      3593.4057      1.0457648e+10  0.5            716100         1.0166776      11038.285      22076.97       3.5629586    
   1427400   81641.351      3.8880724     -3195544.9      0.057479478    243114        -2952430.9      2186.8114      2186.8114      2186.8114      1406.5943      3593.4057      1406.5943      3593.4057      1406.5943      3593.4057      1.0457648e+10  0.5            716200         1.026635       10042.681      20085.375      3.5565645    
   1427600   82995.66       4.0623795     -3195295.2      0.057479478    247146.9      -2948148.3      2186.8114      2186.8114      2186.8114      1406.5943      3593.4057      1406.5943      3593.4057      1406.5943      3593.4057      1.0457648e+10  0.5            716300         1.0356014      11152.922      22305.75       3.5467128    
   1427800   85489.92       4.2738902     -3194896.9      0.057479478    254574.38     -2940322.6      2186.8114      2186.8114      2186.8114      1406.5943      3593.4057      1406.5943      3593.4057      1406.5943      3593.4057      1.0457648e+10  0.5            716400         1.0447362      10947.082      21894.225      3.5374475    
   1428000   86777.874      4.4552293     -3194357.4      0.057479478    258409.69     -2935947.8      2186.8114      2186.8114      2186.8114      1406.5943      3593.4057      1406.5943      3593.4057      1406.5943      3593.4057      1.0457648e+10  0.5            716500         1.0541613      10609.907      21219.826      3.5291563    
   1428200   85253.822      4.5699203     -3193695.3      0.057479478    253871.32     -2939824        2186.8114      2186.8114      2186.8114      1406.5943      3593.4057      1406.5943      3593.4057      1406.5943      3593.4057      1.0457648e+10  0.5            716600         1.0633808      10846.576      21693.183      3.5201642    
   1428400   82512.417      4.6774401     -3193337.4      0.057479478    245707.89     -2947629.5      2186.8114      2186.8114      2186.8114      1406.5943      3593.4057      1406.5943      3593.4057      1406.5943      3593.4057      1.0457648e+10  0.5            716700         1.0729457      10454.905      20909.634      3.5122997    
   1428600   86614.284      4.8714588     -3192193.6      0.057479478    257922.55     -2934271        2186.8114      2186.8114      2186.8114      1406.5943      3593.4057      1406.5943      3593.4057      1406.5943      3593.4057      1.0457648e+10  0.5            716800         1.0822254      10776.149      21552.138      3.5034833    
   1428800   89700.113      5.037301      -3198777.3      0.057479478    267111.62     -2931665.7      2186.8114      2186.8114      2186.8114      1406.5943      3593.4057      1406.5943      3593.4057      1406.5943      3593.4057      1.0457648e+10  0.5            716900         1.0912741      11051.425      22103.214      3.4939178    
   1429000   89044.975      5.1339334     -3197986.5      0.057479478    265160.73     -2932825.8      2186.8114      2186.8114      2186.8114      1406.5943      3593.4057      1406.5943      3593.4057      1406.5943      3593.4057      1.0457648e+10  0.5            717000         1.1002841      11098.668      22197.103      3.4842405    
   1429200   87990.106      5.2437361     -3197223.4      0.057479478    262019.51     -2935203.9      2186.8114      2186.8114      2186.8114      1406.5943      3593.4057      1406.5943      3593.4057      1406.5943      3593.4057      1.0457648e+10  0.5            717100         1.109355       11024.331      22048.607      3.4747638    
   1429400   91026.871      5.3817678     -3198431.8      0.057479478    271062.48     -2927369.3      2186.8114      2186.8114      2186.8114      1406.5943      3593.4057      1406.5943      3593.4057      1406.5943      3593.4057      1.0457648e+10  0.5            717200         1.1186152      10798.959      21597.995      3.4658802    
   1429600   94690.897      5.5333285     -3197794.8      0.057479478    281973.32     -2915821.5      2186.8114      2186.8114      2186.8114      1406.5943      3593.4057      1406.5943      3593.4057      1406.5943      3593.4057      1.0457648e+10  0.5            717300         1.1276321      11090.295      22180.697      3.4562448    
   1429800   91884.607      5.579548      -3197275.9      0.057479478    273616.67     -2923659.2      2186.8114      2186.8114      2186.8114      1406.5943      3593.4057      1406.5943      3593.4057      1406.5943      3593.4057      1.0457648e+10  0.5            717400         1.1366232      11122.11       22244.237      3.4465414    
   1430000   89125.735      5.617906      -3196881.9      0.057479478    265401.22     -2931480.7      2186.8114      2186.8114      2186.8114      1406.5943      3593.4057      1406.5943      3593.4057      1406.5943      3593.4057      1.0457648e+10  0.5            717500         1.1459803      10686.936      21373.68       3.4379484    
   1430200   94112.71       5.7455824     -3196645.3      0.057479478    280251.58     -2916393.8      2186.8114      2186.8114      2186.8114      1406.5943      3593.4057      1406.5943      3593.4057      1406.5943      3593.4057      1.0457648e+10  0.5            717600         1.1552102      10834.428      21669.066      3.4289638    
   1430400   97534.779      5.8698789     -3196533        0.057479478    290441.92     -2906091        2186.8114      2186.8114      2186.8114      1406.5943      3593.4057      1406.5943      3593.4057      1406.5943      3593.4057      1.0457648e+10  0.5            717700         1.1644293      10847.112      21694.282      3.4199442    
   1430600   94435.303      5.8849406     -3196524.2      0.057479478    281212.21     -2915312        2186.8114      2186.8114      2186.8114      1406.5943      3593.4057      1406.5943      3593.4057      1406.5943      3593.4057      1.0457648e+10  0.5            717800         1.173621       10879.325      21736.033      3.4108701    
   1430800   92803.013      5.9210547     -3196636.9      0.057479478    276351.53     -2920285.4      2186.8114      2186.8114      2186.8114      1406.5943      3593.4057      1406.5943      3593.4057      1406.5943      3593.4057      1.0457648e+10  0.5            717900         1.1826532      11071.499      22166.505      3.40128      
   1431000   96716.08       6.0000245     -3196869.2      0.057479478    288003.97     -2908865.3      2186.8114      2186.8114      2186.8114      1406.5943      3593.4057      1406.5943      3593.4057      1406.5943      3593.4057      1.0457648e+10  0.5            718000         1.191676       11082.99       22165.724      3.3917       
   1431200   100219.69      6.0663878     -3197550.3      0.057479478    298437.13     -2899113.2      2186.8114      2186.8114      2186.8114      1406.5943      3593.4057      1406.5943      3593.4057      1406.5943      3593.4057      1.0457648e+10  0.5            718100         1.2009224      10815.068      21630.29       3.382757     
   1431400   98361.053      6.0946826     -3197904.5      0.057479478    292902.42     -2905002.1      2186.8114      2186.8114      2186.8114      1406.5943      3593.4057      1406.5943      3593.4057      1406.5943      3593.4057      1.0457648e+10  0.5            718200         1.2099135      11122.137      22244.313      3.373098     
   1431600   97381.409      6.0520844     -3206044.9      0.057479478    289985.21     -2916059.7      2186.8114      2186.8114      2186.8114      1406.5943      3593.4057      1406.5943      3593.4057      1406.5943      3593.4057      1.0457648e+10  0.5            718300         1.2189469      11070.025      22140.195      3.3635658    
   1431800   98523.127      6.0755413     -3206448.2      0.057479478    293385.05     -2913063.2      2186.8114      2186.8114      2186.8114      1406.5943      3593.4057      1406.5943      3593.4057      1406.5943      3593.4057      1.0457648e+10  0.5            718400         1.2281376      10880.587      21760.967      3.3544711    
   1432000   100386.15      6.1150235     -3206849.2      0.057479478    298932.8      -2907916.4      2186.8114      2186.8114      2186.8114      1406.5943      3593.4057      1406.5943      3593.4057      1406.5943      3593.4057      1.0457648e+10  0.5            718500         1.2371808      11057.905      22115.681      3.3449766    
   1432200   102004.97      6.1469616     -3207202.6      0.057479478    303753.4      -2903449.2      2186.8114      2186.8114      2186.8114      1406.5943      3593.4057      1406.5943      3593.4057      1406.5943      3593.4057      1.0457648e+10  0.5            718600         1.2463662      10887.047      21774.31       3.335868     
   1432400   103709.96      6.1691239     -3209748.1      0.057479478    308830.56     -2900917.5      2186.8114      2186.8114      2186.8114      1406.5943      3593.4057      1406.5943      3593.4057      1406.5943      3593.4057      1.0457648e+10  0.5            718700         1.2564794      9887.9722      19775.622      3.3292182    
   1432600   103146.85      6.1819062     -3209928.9      0.057479478    307153.71     -2902775.2      2186.8114      2186.8114      2186.8114      1406.5943      3593.4057      1406.5943      3593.4057      1406.5943      3593.4057      1.0457648e+10  0.5            718800         1.2655106      11072.679      22145.809      3.3196783    
   1432800   100394.07      6.1322875     -3212269.6      0.057479478    298956.4      -2913313.2      2186.8114      2186.8114      2186.8114      1406.5943      3593.4057      1406.5943      3593.4057      1406.5943      3593.4057      1.0457648e+10  0.5            718900         1.2750872      10442.1        20883.82       3.3115638    
   1433000   101846.61      6.176825      -3212236.3      0.057479478    303281.81     -2908954.5      2186.8114      2186.8114      2186.8114      1406.5943      3593.4057      1406.5943      3593.4057      1406.5943      3593.4057      1.0457648e+10  0.5            719000         1.2843901      10749.277      21498.698      3.3027236    
   1433200   107460.34      6.2437394     -3213967        0.057479478    319998.53     -2893968.4      2186.8114      2186.8114      2186.8114      1406.5943      3593.4057      1406.5943      3593.4057      1406.5943      3593.4057      1.0457648e+10  0.5            719100         1.293498       10979.593      21959.267      3.2933799    
   1433400   107026.94      6.2971026     -3213646        0.057479478    318707.94     -2894938        2186.8114      2186.8114      2186.8114      1406.5943      3593.4057      1406.5943      3593.4057      1406.5943      3593.4057      1.0457648e+10  0.5            719200         1.302499       11109.92       22219.889      3.2837705    
   1433600   104241.56      6.2886364     -3213172.7      0.057479478    310413.58     -2902759.1      2186.8114      2186.8114      2186.8114      1406.5943      3593.4057      1406.5943      3593.4057      1406.5943      3593.4057      1.0457648e+10  0.5            719300         1.3117783      10776.609      21553.159      3.2748649    
   1433800   104818.01      6.3263085     -3212587.9      0.057479478    312130.12     -2900457.8      2186.8114      2186.8114      2186.8114      1406.5943      3593.4057      1406.5943      3593.4057      1406.5943      3593.4057      1.0457648e+10  0.5            719400         1.3208383      11037.586      22075.331      3.265411     
   1434000   106918.23      6.3881607     -3211871.6      0.057479478    318384.24     -2893487.3      2186.8114      2186.8114      2186.8114      1406.5943      3593.4057      1406.5943      3593.4057      1406.5943      3593.4057      1.0457648e+10  0.5            719500         1.3299596      10963.322      21926.384      3.2561137    
   1434200   107588.58      6.4514078     -3211409.1      0.057479478    320380.43     -2891028.7      2186.8114      2186.8114      2186.8114      1406.5943      3593.4057      1406.5943      3593.4057      1406.5943      3593.4057      1.0457648e+10  0.5            719600         1.3392718      10738.633      21477.483      3.2472805    
   1434400   109235.02      6.4889943     -3212327.7      0.057479478    325283.23     -2887044.5      2186.8114      2186.8114      2186.8114      1406.5943      3593.4057      1406.5943      3593.4057      1406.5943      3593.4057      1.0457648e+10  0.5            719700         1.3486424      10671.712      21343.419      3.2385817    
   1434600   111285.33      6.5667125     -3211215.4      0.057479478    331388.71     -2879826.7      2186.8114      2186.8114      2186.8114      1406.5943      3593.4057      1406.5943      3593.4057      1406.5943      3593.4057      1.0457648e+10  0.5            719800         1.3578503      10860.116      21720.257      3.229487     
   1434800   111753.24      6.6567461     -3209561.5      0.057479478    332782.08     -2876779.5      2186.8114      2186.8114      2186.8114      1406.5943      3593.4057      1406.5943      3593.4057      1406.5943      3593.4057      1.0457648e+10  0.5            719900         1.3670865      10827.022      21654.136      3.2204571    
   1435000   109392.06      6.6852103     -3208142.3      0.057479478    325750.88     -2882391.4      2186.8114      2186.8114      2186.8114      1406.5943      3593.4057      1406.5943      3593.4057      1406.5943      3593.4057      1.0457648e+10  0.5            720000         1.3761792      10997.824      21995.169      3.2110905    
   1435200   108403.06      6.7310254     -3208501.2      0.057479478    322805.81     -2885695.4      2186.8114      2186.8114      2186.8114      1406.5943      3593.4057      1406.5943      3593.4057      1406.5943      3593.4057      1.0457648e+10  0.5            720100         1.3852778      10990.756      21981.865      3.2017398    
   1435400   114146.42      6.8810047     -3206827.5      0.057479478    339908.54     -2866919        2186.8114      2186.8114      2186.8114      1406.5943      3593.4057      1406.5943      3593.4057      1406.5943      3593.4057      1.0457648e+10  0.5            720200         1.3945567      10777.076      21554.17       3.1928059    
   1435600   115752.89      6.9564574     -3212361.8      0.057479478    344692.34     -2867669.4      2186.8114      2186.8114      2186.8114      1406.5943      3593.4057      1406.5943      3593.4057      1406.5943      3593.4057      1.0457648e+10  0.5            720300         1.4036409      11008.203      22016.488      3.1834255    
   1435800   112868.32      6.9802261     -3210381.8      0.057479478    336102.58     -2874279.3      2186.8114      2186.8114      2186.8114      1406.5943      3593.4057      1406.5943      3593.4057      1406.5943      3593.4057      1.0457648e+10  0.5            720400         1.4126951      11044.602      22089.208      3.1739818    
   1436000   111072.57      7.0032922     -3208312.2      0.057479478    330755.14     -2877557        2186.8114      2186.8114      2186.8114      1406.5943      3593.4057      1406.5943      3593.4057      1406.5943      3593.4057      1.0457648e+10  0.5            720500         1.4219865      10762.54       21524.716      3.1650721    
   1436200   117929.21      7.1284595     -3206512        0.057479478    351173.04     -2855339        2186.8114      2186.8114      2186.8114      1406.5943      3593.4057      1406.5943      3593.4057      1406.5943      3593.4057      1.0457648e+10  0.5            720600         1.431117       10952.328      21904.869      3.1558013    
   1436400   119403.24      7.2197201     -3204179.7      0.057479478    355562.46     -2848617.3      2186.8114      2186.8114      2186.8114      1406.5943      3593.4057      1406.5943      3593.4057      1406.5943      3593.4057      1.0457648e+10  0.5            720700         1.4409452      10174.794      20349.468      3.1480574    
   1436600   115014.71      7.2020941     -3201768.9      0.057479478    342494.16     -2859274.7      2186.8114      2186.8114      2186.8114      1406.5943      3593.4057      1406.5943      3593.4057      1406.5943      3593.4057      1.0457648e+10  0.5            720800         1.4503732      10606.736      21213.776      3.1394199    
   1436800   113590.55      7.2249352     -3208654.2      0.057479478    338253.25     -2870401        2186.8114      2186.8114      2186.8114      1406.5943      3593.4057      1406.5943      3593.4057      1406.5943      3593.4057      1.0457648e+10  0.5            720900         1.4601661      10211.429      20422.59       3.1315563    
   1437000   121284.45      7.3281429     -3206226.3      0.057479478    361164.38     -2845061.9      2186.8114      2186.8114      2186.8114      1406.5943      3593.4057      1406.5943      3593.4057      1406.5943      3593.4057      1.0457648e+10  0.5            721000         1.470248       9918.722       19837.234      3.1242825    
   1437200   121200.93      7.3630717     -3203769.1      0.057479478    360915.66     -2842853.4      2186.8114      2186.8114      2186.8114      1406.5943      3593.4057      1406.5943      3593.4057      1406.5943      3593.4057      1.0457648e+10  0.5            721100         1.4799078      10352.253      20704.66       3.1160841    
   1437400   118054.39      7.3653161     -3201383.3      0.057479478    351545.8      -2849837.5      2186.8114      2186.8114      2186.8114      1406.5943      3593.4057      1406.5943      3593.4057      1406.5943      3593.4057      1.0457648e+10  0.5            721200         1.4890328      10959.022      21918.344      3.1067518    
   1437600   118619.37      7.3676712     -3206529.2      0.057479478    353228.23     -2853300.9      2186.8114      2186.8114      2186.8114      1406.5943      3593.4057      1406.5943      3593.4057      1406.5943      3593.4057      1.0457648e+10  0.5            721300         1.4988624      10173.284      20346.292      3.0988798    
   1437800   126117.7       7.4666327     -3211774.3      0.057479478    375556.97     -2836217.3      2186.8114      2186.8114      2186.8114      1406.5943      3593.4057      1406.5943      3593.4057      1406.5943      3593.4057      1.0457648e+10  0.5            721400         1.5079628      10988.513      21977.182      3.0894893    
   1438000   124742         7.4355165     -3211660.8      0.057479478    371460.38     -2840200.4      2186.8114      2186.8114      2186.8114      1406.5943      3593.4057      1406.5943      3593.4057      1406.5943      3593.4057      1.0457648e+10  0.5            721500         1.5178076      10157.611      20315.13       3.0816142    
   1438200   121146.34      7.397136      -3215325.5      0.057479478    360753.11     -2854572.4      2186.8114      2186.8114      2186.8114      1406.5943      3593.4057      1406.5943      3593.4057      1406.5943      3593.4057      1.0457648e+10  0.5            721600         1.5269641      10921.306      21842.829      3.0723296    
   1438400   121668.88      7.396717      -3213753.1      0.057479478    362309.15     -2851444        2186.8114      2186.8114      2186.8114      1406.5943      3593.4057      1406.5943      3593.4057      1406.5943      3593.4057      1.0457648e+10  0.5            721700         1.5368041      10162.502      20325.03       3.0644102    
   1438600   124806.12      7.3971736     -3212434.1      0.057479478    371651.3      -2840782.8      2186.8114      2186.8114      2186.8114      1406.5943      3593.4057      1406.5943      3593.4057      1406.5943      3593.4057      1.0457648e+10  0.5            721800         1.5460732      10788.618      21577.145      3.0553394    
   1438800   125579.35      7.3735494     -3210988.1      0.057479478    373953.86     -2837034.2      2186.8114      2186.8114      2186.8114      1406.5943      3593.4057      1406.5943      3593.4057      1406.5943      3593.4057      1.0457648e+10  0.5            721900         1.5558829      10194.007      20387.89       3.0473256    
   1439000   125370.79      7.2798644     -3210178.7      0.057479478    373332.81     -2836845.9      2186.8114      2186.8114      2186.8114      1406.5943      3593.4057      1406.5943      3593.4057      1406.5943      3593.4057      1.0457648e+10  0.5            722000         1.5653452      10568.118      21136.231      3.0386243    
   1439200   126399.53      7.202245      -3209616.4      0.057479478    376396.22     -2833220.2      2186.8114      2186.8114      2186.8114      1406.5943      3593.4057      1406.5943      3593.4057      1406.5943      3593.4057      1.0457648e+10  0.5            722100         1.5750024      10354.999      20710.005      3.0302722    
   1439400   129919.97      7.1373384     -3209277.7      0.057479478    386879.5      -2822398.2      2186.8114      2186.8114      2186.8114      1406.5943      3593.4057      1406.5943      3593.4057      1406.5943      3593.4057      1.0457648e+10  0.5            722200         1.584346       10702.538      21397.091      3.021322     
   1439600   133719.18      7.0638417     -3209119.7      0.057479478    398192.88     -2810926.9      2186.8114      2186.8114      2186.8114      1406.5943      3593.4057      1406.5943      3593.4057      1406.5943      3593.4057      1.0457648e+10  0.5            722300         1.5939576      10404.109      20815.874      3.0128606    
   1439800   128140.73      6.8750188     -3216151        0.057479478    381581.21     -2834569.8      2186.8114      2186.8114      2186.8114      1406.5943      3593.4057      1406.5943      3593.4057      1406.5943      3593.4057      1.0457648e+10  0.5            722400         1.6030873      10953.23       21906.554      3.0034896    
   1440000   124133.63      6.6514782     -3216346        0.057479478    369648.76     -2846697.2      2186.8114      2186.8114      2186.8114      1406.5943      3593.4057      1406.5943      3593.4057      1406.5943      3593.4057      1.0457648e+10  0.5            722500         1.6129407      10148.769      20297.315      2.9954657    
   1440200   129412.38      6.5716922     -3216715.3      0.057479478    385367.98     -2831347.3      2186.8114      2186.8114      2186.8114      1406.5943      3593.4057      1406.5943      3593.4057      1406.5943      3593.4057      1.0457648e+10  0.5            722600         1.6220448      10984.155      21968.585      2.9860409    
   1440400   132774.26      6.465149      -3217236.3      0.057479478    395379.06     -2821857.3      2186.8114      2186.8114      2186.8114      1406.5943      3593.4057      1406.5943      3593.4057      1406.5943      3593.4057      1.0457648e+10  0.5            722700         1.6319153      10131.143      20262.162      2.9780191    
   1440600   132225.54      6.2754931     -3217832.3      0.057479478    393745.08     -2824087.2      2186.8114      2186.8114      2186.8114      1406.5943      3593.4057      1406.5943      3593.4057      1406.5943      3593.4057      1.0457648e+10  0.5            722800         1.6410568      10939.221      21878.583      2.9686571    
   1440800   131283.06      6.1048984     -3218453.7      0.057479478    390938.54     -2827515.2      2186.8114      2186.8114      2186.8114      1406.5943      3593.4057      1406.5943      3593.4057      1406.5943      3593.4057      1.0457648e+10  0.5            722900         1.6509214      10137.266      20274.542      2.9605946    
   1441000   133340.48      5.9704806     -3211736.2      0.057479478    397065.19     -2814671        2186.8114      2186.8114      2186.8114      1406.5943      3593.4057      1406.5943      3593.4057      1406.5943      3593.4057      1.0457648e+10  0.5            723000         1.6603961      10554.357      21108.565      2.9518193    
   1441200   139868.89      5.8585417     -3212411.6      0.057479478    416505.68     -2795905.9      2186.8114      2186.8114      2186.8114      1406.5943      3593.4057      1406.5943      3593.4057      1406.5943      3593.4057      1.0457648e+10  0.5            723100         1.6695475      10927.326      21854.821      2.9424659    
   1441400   136918.02      5.6314596     -3213010.9      0.057479478    407718.48     -2805292.5      2186.8114      2186.8114      2186.8114      1406.5943      3593.4057      1406.5943      3593.4057      1406.5943      3593.4057      1.0457648e+10  0.5            723200         1.6788195      10785.25       21570.436      2.9333256    
   1441600   131203.89      5.3872832     -3213881.9      0.057479478    390702.77     -2823179.1      2186.8114      2186.8114      2186.8114      1406.5943      3593.4057      1406.5943      3593.4057      1406.5943      3593.4057      1.0457648e+10  0.5            723300         1.6878768      11040.728      22081.514      2.923812     
   1441800   133935.49      5.258988      -3214345.5      0.057479478    398837.03     -2815508.5      2186.8114      2186.8114      2186.8114      1406.5943      3593.4057      1406.5943      3593.4057      1406.5943      3593.4057      1.0457648e+10  0.5            723400         1.6971557      10777.121      21554.249      2.9146841    
   1442000   138492.33      5.15486       -3214748.3      0.057479478    412406.52     -2802341.7      2186.8114      2186.8114      2186.8114      1406.5943      3593.4057      1406.5943      3593.4057      1406.5943      3593.4057      1.0457648e+10  0.5            723500         1.7062871      10951.192      21902.226      2.9053036    
   1442200   138599.63      4.9674923     -3215057.7      0.057479478    412726.04     -2802331.6      2186.8114      2186.8114      2186.8114      1406.5943      3593.4057      1406.5943      3593.4057      1406.5943      3593.4057      1.0457648e+10  0.5            723600         1.7156317      10701.38       21402.953      2.896285     
   1442400   137815.69      4.8294991     -3215276.5      0.057479478    410391.6      -2804884.9      2186.8114      2186.8114      2186.8114      1406.5943      3593.4057      1406.5943      3593.4057      1406.5943      3593.4057      1.0457648e+10  0.5            723700         1.7247235      10998.998      21997.888      2.8868402    
   1442600   138547.83      4.6901518     -3214693.4      0.057479478    412571.77     -2802121.6      2186.8114      2186.8114      2186.8114      1406.5943      3593.4057      1406.5943      3593.4057      1406.5943      3593.4057      1.0457648e+10  0.5            723800         1.7339794      10803.903      21607.97       2.8776713    
   1442800   144866.91      4.6074022     -3214780.5      0.057479478    431388.92     -2783391.6      2186.8114      2186.8114      2186.8114      1406.5943      3593.4057      1406.5943      3593.4057      1406.5943      3593.4057      1.0457648e+10  0.5            723900         1.7430505      11023.963      22047.797      2.8681978    
   1443000   147704.69      4.5177502     -3214778.1      0.057479478    439839.33     -2774938.7      2186.8114      2186.8114      2186.8114      1406.5943      3593.4057      1406.5943      3593.4057      1406.5943      3593.4057      1.0457648e+10  0.5            724000         1.752613       10457.41       20914.606      2.8595304    
   1443200   138972.56      4.3133165     -3214652.8      0.057479478    413836.57     -2800816.3      2186.8114      2186.8114      2186.8114      1406.5943      3593.4057      1406.5943      3593.4057      1406.5943      3593.4057      1.0457648e+10  0.5            724100         1.7619003      10767.579      21535.345      2.8504076    
   1443400   138497.67      4.2501246     -3214422.9      0.057479478    412422.4      -2802000.5      2186.8114      2186.8114      2186.8114      1406.5943      3593.4057      1406.5943      3593.4057      1406.5943      3593.4057      1.0457648e+10  0.5            724200         1.7711555      10804.724      21609.427      2.841232     
   1443600   143122.09      4.2254033     -3214063.9      0.057479478    426193.14     -2787870.8      2186.8114      2186.8114      2186.8114      1406.5943      3593.4057      1406.5943      3593.4057      1406.5943      3593.4057      1.0457648e+10  0.5            724300         1.7802028      11052.965      22105.928      2.831725     
   1443800   145695.97      4.2035914     -3213876.8      0.057479478    433857.73     -2780019.1      2186.8114      2186.8114      2186.8114      1406.5943      3593.4057      1406.5943      3593.4057      1406.5943      3593.4057      1.0457648e+10  0.5            724400         1.7894708      10789.824      21579.64       2.8225707    
   1444000   144362.35      4.1077145     -3213096.3      0.057479478    429886.41     -2783209.9      2186.8114      2186.8114      2186.8114      1406.5943      3593.4057      1406.5943      3593.4057      1406.5943      3593.4057      1.0457648e+10  0.5            724500         1.7985929      10962.354      21924.56       2.8131875    
   1444200   138941.4       4.0323409     -3212075.8      0.057479478    413743.77     -2798332        2186.8114      2186.8114      2186.8114      1406.5943      3593.4057      1406.5943      3593.4057      1406.5943      3593.4057      1.0457648e+10  0.5            724600         1.8079033      10740.69       21481.414      2.8040984    
   1444400   136881.34      3.9864666     -3210858.9      0.057479478    407609.24     -2803249.6      2186.8114      2186.8114      2186.8114      1406.5943      3593.4057      1406.5943      3593.4057      1406.5943      3593.4057      1.0457648e+10  0.5            724700         1.8169943      11000.005      22000.358      2.7946694    
   1444600   146500.14      4.0821403     -3209362.5      0.057479478    436252.41     -2773110.1      2186.8114      2186.8114      2186.8114      1406.5943      3593.4057      1406.5943      3593.4057      1406.5943      3593.4057      1.0457648e+10  0.5            724800         1.8260593      11031.385      22062.607      2.7852048    
   1444800   149570.93      4.1492089     -3207520.6      0.057479478    445396.68     -2762123.9      2186.8114      2186.8114      2186.8114      1406.5943      3593.4057      1406.5943      3593.4057      1406.5943      3593.4057      1.0457648e+10  0.5            724900         1.8353209      10797.302      21594.685      2.7760412    
   1445000   148237.2       4.1747344     -3197963.8      0.057479478    441425.07     -2756538.7      2186.8114      2186.8114      2186.8114      1406.5943      3593.4057      1406.5943      3593.4057      1406.5943      3593.4057      1.0457648e+10  0.5            725000         1.844439       10967.08       21933.865      2.7666621    
   1445200   145684.11      4.1766215     -3195125.3      0.057479478    433822.41     -2761302.9      2186.8114      2186.8114      2186.8114      1406.5943      3593.4057      1406.5943      3593.4057      1406.5943      3593.4057      1.0457648e+10  0.5            725100         1.8541074      10342.931      20685.899      2.7581036    
   1445400   149240.88      4.2809314     -3190502.1      0.057479478    444413.86     -2746088.2      2186.8114      2186.8114      2186.8114      1406.5943      3593.4057      1406.5943      3593.4057      1406.5943      3593.4057      1.0457648e+10  0.5            725200         1.863407       10753.013      21506.156      2.74899      
   1445600   155376.7       4.4139539     -3187466.4      0.057479478    462685.27     -2724781.1      2186.8114      2186.8114      2186.8114      1406.5943      3593.4057      1406.5943      3593.4057      1406.5943      3593.4057      1.0457648e+10  0.5            725300         1.8727107      10748.634      21497.274      2.7398804    
   1445800   151823.39      4.4464129     -3182649.5      0.057479478    452104.14     -2730545.3      2186.8114      2186.8114      2186.8114      1406.5943      3593.4057      1406.5943      3593.4057      1406.5943      3593.4057      1.0457648e+10  0.5            725400         1.8818237      10973.358      21946.689      2.7304924    
   1446000   145691.85      4.4162996     -3179614.8      0.057479478    433845.46     -2745769.3      2186.8114      2186.8114      2186.8114      1406.5943      3593.4057      1406.5943      3593.4057      1406.5943      3593.4057      1.0457648e+10  0.5            725500         1.8911296      10745.839      21491.55       2.721385     
   1446200   151056.44      4.5609172     -3173882.9      0.057479478    449820.28     -2724062.6      2186.8114      2186.8114      2186.8114      1406.5943      3593.4057      1406.5943      3593.4057      1406.5943      3593.4057      1.0457648e+10  0.5            725600         1.9011979      9932.2156      19864.469      2.7133632    
   1446400   157896.03      4.7190171     -3170214.9      0.057479478    470187.41     -2700027.5      2186.8114      2186.8114      2186.8114      1406.5943      3593.4057      1406.5943      3593.4057      1406.5943      3593.4057      1.0457648e+10  0.5            725700         1.910338       10940.75       21881.558      2.7040081    
   1446600   153718.88      4.7498682     -3162669.8      0.057479478    457748.59     -2704921.2      2186.8114      2186.8114      2186.8114      1406.5943      3593.4057      1406.5943      3593.4057      1406.5943      3593.4057      1.0457648e+10  0.5            725800         1.9196892      10693.784      21387.703      2.6949513    
   1446800   149502.46      4.7822545     -3158944.8      0.057479478    445192.8      -2713752        2186.8114      2186.8114      2186.8114      1406.5943      3593.4057      1406.5943      3593.4057      1406.5943      3593.4057      1.0457648e+10  0.5            725900         1.9295059      10186.717      20373.07       2.6865403    
   1447000   155545.45      4.9290329     -3155283.4      0.057479478    463187.79     -2692095.6      2186.8114      2186.8114      2186.8114      1406.5943      3593.4057      1406.5943      3593.4057      1406.5943      3593.4057      1.0457648e+10  0.5            726000         1.9392302      10283.456      20566.65       2.6779881    
   1447200   159998.07      5.0723585     -3151590.7      0.057479478    476446.94     -2675143.8      2186.8114      2186.8114      2186.8114      1406.5943      3593.4057      1406.5943      3593.4057      1406.5943      3593.4057      1.0457648e+10  0.5            726100         1.9487352      10520.859      21042.301      2.6691237    
   1447400   156664.39      5.1383525     -3140242.4      0.057479478    466519.8      -2673722.6      2186.8114      2186.8114      2186.8114      1406.5943      3593.4057      1406.5943      3593.4057      1406.5943      3593.4057      1.0457648e+10  0.5            726200         1.9591033      9644.5771      19289.078      2.661427     
   1447600   154628.41      5.173069      -3136835.2      0.057479478    460457        -2676378.2      2186.8114      2186.8114      2186.8114      1406.5943      3593.4057      1406.5943      3593.4057      1406.5943      3593.4057      1.0457648e+10  0.5            726300         1.9688477      10262.754      20525.58       2.6528635    
   1447800   162180.54      5.3158946     -3131673.7      0.057479478    482945.96     -2648727.7      2186.8114      2186.8114      2186.8114      1406.5943      3593.4057      1406.5943      3593.4057      1406.5943      3593.4057      1.0457648e+10  0.5            726400         1.9782773      10604.836      21209.634      2.6438691    
   1448000   166492.23      5.481854      -3128480.1      0.057479478    495785.44     -2632694.7      2186.8114      2186.8114      2186.8114      1406.5943      3593.4057      1406.5943      3593.4057      1406.5943      3593.4057      1.0457648e+10  0.5            726500         1.9877169      10593.622      21187.06       2.6348838    
   1448200   159658.53      5.4377981     -3118101.7      0.057479478    475435.83     -2642665.9      2186.8114      2186.8114      2186.8114      1406.5943      3593.4057      1406.5943      3593.4057      1406.5943      3593.4057      1.0457648e+10  0.5            726600         1.9970842      10675.556      21351.407      2.6257987    
   1448400   157151.76      5.5121225     -3113452.9      0.057479478    467971.11     -2645481.8      2186.8114      2186.8114      2186.8114      1406.5943      3593.4057      1406.5943      3593.4057      1406.5943      3593.4057      1.0457648e+10  0.5            726700         2.0068147      10276.887      20553.504      2.6171855    
   1448600   160853.03      5.6356849     -3109065        0.057479478    478992.87     -2630072.1      2186.8114      2186.8114      2186.8114      1406.5943      3593.4057      1406.5943      3593.4057      1406.5943      3593.4057      1.0457648e+10  0.5            726800         2.0161987      10656.489      21313.159      2.6081131    
   1448800   165168.52      5.7304818     -3106845.3      0.057479478    491843.64     -2615001.7      2186.8114      2186.8114      2186.8114      1406.5943      3593.4057      1406.5943      3593.4057      1406.5943      3593.4057      1.0457648e+10  0.5            726900         2.025617       10617.548      21234.919      2.5990825    
   1449000   164024.2       5.7682121     -3097503        0.057479478    488436.07     -2609067        2186.8114      2186.8114      2186.8114      1406.5943      3593.4057      1406.5943      3593.4057      1406.5943      3593.4057      1.0457648e+10  0.5            727000         2.0349426      10723.237      21446.445      2.58993      
   1449200   162509.65      5.7887036     -3088458.8      0.057479478    483925.98     -2604532.9      2186.8114      2186.8114      2186.8114      1406.5943      3593.4057      1406.5943      3593.4057      1406.5943      3593.4057      1.0457648e+10  0.5            727100         2.0446395      10312.522      20625.11       2.5812448    
   1449400   163397.99      5.8084074     -3094099.8      0.057479478    486571.3      -2607528.5      2186.8114      2186.8114      2186.8114      1406.5943      3593.4057      1406.5943      3593.4057      1406.5943      3593.4057      1.0457648e+10  0.5            727200         2.0543086      10342.276      20684.572      2.5725155    
   1449600   166462.39      5.8176583     -3092669.3      0.057479478    495696.56     -2596972.7      2186.8114      2186.8114      2186.8114      1406.5943      3593.4057      1406.5943      3593.4057      1406.5943      3593.4057      1.0457648e+10  0.5            727300         2.0641373      10174.277      20348.55       2.5639762    
   1449800   168748.92      5.8580653     -3091903        0.057479478    502505.48     -2589397.5      2186.8114      2186.8114      2186.8114      1406.5943      3593.4057      1406.5943      3593.4057      1406.5943      3593.4057      1.0457648e+10  0.5            727400         2.0734772      10706.762      21413.627      2.554823     
[...]
   2094400   313.76837      1.0254427     -4449993.2      0.082918618    934.34862     -4449058.8      1935.3741      1935.3741      1935.3741      1532.3129      3467.6871      1532.3129      3467.6871      1532.3129      3467.6871      7.2492784e+09  0.5            1049700        18.78193       7394.4551      14788.932      0.68793534   
   2094600   313.89419      1.0228375     -4450145.2      0.082934001    934.72328     -4449210.5      1935.2544      1935.2544      1935.2544      1532.3728      3467.6272      1532.3728      3467.6272      1532.3728      3467.6272      7.2479337e+09  0.5            1049800        18.795366      7443.1306      14886.21       0.67497178   
   2094800   313.882        1.0178943     -4450297.9      0.082949002    934.68701     -4449363.2      1935.1378      1935.1378      1935.1378      1532.4311      3467.5689      1532.4311      3467.5689      1532.4311      3467.5689      7.246623e+09   0.5            1049900        18.808564      7576.4802      15152.934      0.66199925   
   2095000   313.8428       1.0076258     -4450451.5      0.082963317    934.57026     -4449516.9      1935.0265      1935.0265      1935.0265      1532.4868      3467.5132      1532.4868      3467.5132      1532.4868      3467.5132      7.2453726e+09  0.5            1050000        18.821694      7616.38        15232.642      0.64902402   
   2095200   313.87821      0.99391423    -4450605.9      0.082977229    934.67571     -4449671.2      1934.9183      1934.9183      1934.9183      1532.5408      3467.4592      1532.5408      3467.4592      1532.5408      3467.4592      7.2441579e+09  0.5            1050100        18.834866      7592.0886      15184.343      0.63604999   
   2095400   313.91778      0.98691236    -4450759.2      0.08299227     934.79355     -4449824.4      1934.8014      1934.8014      1934.8014      1532.5993      3467.4007      1532.5993      3467.4007      1532.5993      3467.4007      7.242845e+09   0.5            1050200        18.847969      7631.6327      15263.235      0.62307343   
   2095600   313.90783      0.98595952    -4450911.6      0.083008142    934.76392     -4449976.8      1934.6781      1934.6781      1934.6781      1532.661       3467.339       1532.661       3467.339       1532.661       3467.339       7.2414601e+09  0.5            1050300        18.861441      7422.4805      14844.991      0.61010865   
   2095800   313.86377      0.98759195    -4451063.7      0.083024276    934.63271     -4450129.1      1934.5528      1934.5528      1934.5528      1532.7236      3467.2764      1532.7236      3467.2764      1532.7236      3467.2764      7.2400528e+09  0.5            1050400        18.874693      7546.0359      15091.978      0.59713619   
   2096000   313.8271       0.99208771    -4451215.1      0.083040999    934.52352     -4450280.6      1934.4229      1934.4229      1934.4229      1532.7886      3467.2114      1532.7886      3467.2114      1532.7886      3467.2114      7.2385948e+09  0.5            1050500        18.88896       7009.212       14018.408      0.58419473   
   2096200   313.85983      1.0018795     -4451365.3      0.083058775    934.62098     -4450430.7      1934.2849      1934.2849      1934.2849      1532.8576      3467.1424      1532.8576      3467.1424      1532.8576      3467.1424      7.2370456e+09  0.5            1050600        18.902228      7536.9912      15074.126      0.57122126   
   2096400   313.91578      1.0126134     -4451515.7      0.083076585    934.78759     -4450580.9      1934.1466      1934.1466      1934.1466      1532.9267      3467.0733      1532.9267      3467.0733      1532.9267      3467.0733      7.2354941e+09  0.5            1050700        18.91537       7609.3755      15218.652      0.55824366   
   2096600   313.92987      1.0054738     -4451671.1      0.083090451    934.82955     -4450736.3      1934.039       1934.039       1934.039       1532.9805      3467.0195      1532.9805      3467.0195      1532.9805      3467.0195      7.2342867e+09  0.5            1050800        18.928744      7477.0436      14954.165      0.54527254   
   2096800   313.88472      0.98670278    -4451829.5      0.083101793    934.6951      -4450894.8      1933.9511      1933.9511      1933.9511      1533.0245      3466.9755      1533.0245      3466.9755      1533.0245      3466.9755      7.2332994e+09  0.5            1050900        18.941844      7633.9712      15267.944      0.53229314   
   2097000   313.83541      0.99798461    -4451980.3      0.083119082    934.54827     -4451045.7      1933.817       1933.817       1933.817       1533.0915      3466.9085      1533.0915      3466.9085      1533.0915      3466.9085      7.2317948e+09  0.5            1051000        18.954957      7625.6757      15251.184      0.51931397   
   2097200   313.83738      1.0153616     -4452129.2      0.083137726    934.55411     -4451194.6      1933.6724      1933.6724      1933.6724      1533.1638      3466.8362      1533.1638      3466.8362      1533.1638      3466.8362      7.230173e+09   0.5            1051100        18.968157      7575.8804      15151.932      0.5063369    
   2097400   313.84257      1.0065484     -4452284.4      0.08315141     934.56959     -4451349.8      1933.5663      1933.5663      1933.5663      1533.2168      3466.7832      1533.2168      3466.7832      1533.2168      3466.7832      7.2289832e+09  0.5            1051200        18.981645      7414.0004      14828.005      0.49336703   
   2097600   313.85656      0.98530234    -4452442.5      0.083162858    934.61124     -4451507.9      1933.4776      1933.4776      1933.4776      1533.2612      3466.7388      1533.2612      3466.7388      1533.2612      3466.7388      7.227988e+09   0.5            1051300        18.99515       7404.6392      14809.241      0.48039688   
   2097800   313.87459      0.9743564     -4452598.1      0.083176407    934.66493     -4451663.4      1933.3726      1933.3726      1933.3726      1533.3137      3466.6863      1533.3137      3466.6863      1533.3137      3466.6863      7.2268107e+09  0.5            1051400        19.008248      7634.522       15268.989      0.46741601   
   2098000   313.86538      0.98741202    -4452747.9      0.083194632    934.6375      -4451813.3      1933.2314      1933.2314      1933.2314      1533.3843      3466.6157      1533.3843      3466.6157      1533.3843      3466.6157      7.2252275e+09  0.5            1051500        19.021388      7610.7648      15221.466      0.45443595   
   2098200   313.87821      1.0216245     -4452892.4      0.083217089    934.67571     -4451957.7      1933.0575      1933.0575      1933.0575      1533.4713      3466.5287      1533.4713      3466.5287      1533.4713      3466.5287      7.2232778e+09  0.5            1051600        19.034581      7579.5393      15159.227      0.44145692   
   2098400   313.89973      1.0457291     -4453039.5      0.083237295    934.7398      -4452104.8      1932.9011      1932.9011      1932.9011      1533.5495      3466.4505      1533.5495      3466.4505      1533.5495      3466.4505      7.2215243e+09  0.5            1051700        19.047881      7518.6302      15037.306      0.42848      
   2098600   313.85034      0.98136668    -4453209.7      0.08323955     934.59272     -4452275.2      1932.8836      1932.8836      1932.8836      1533.5582      3466.4418      1533.5582      3466.4418      1533.5582      3466.4418      7.2213286e+09  0.5            1051800        19.061008      7618.2634      15236.404      0.41549886   
   2098800   313.76967      0.96627639    -4453367.8      0.083250964    934.35249     -4452433.4      1932.7953      1932.7953      1932.7953      1533.6024      3466.3976      1533.6024      3466.3976      1533.6024      3466.3976      7.2203385e+09  0.5            1051900        19.074255      7548.5143      15097.108      0.40252008   
   2099000   313.71585      1.063731      -4453497.8      0.083283881    934.19224     -4452563.6      1932.5406      1932.5406      1932.5406      1533.7297      3466.2703      1533.7297      3466.2703      1533.7297      3466.2703      7.2174848e+09  0.5            1052000        19.087833      7365.1885      14730.252      0.38954766   
   2099200   313.60647      0.9617392     -4453676.2      0.08327851     933.8665      -4452742.3      1932.5821      1932.5821      1932.5821      1533.7089      3466.2911      1533.7089      3466.2911      1533.7089      3466.2911      7.2179503e+09  0.5            1052100        19.10101       7588.8011      15177.782      0.37656653   
   2099400   313.59313      0.93040984    -4453835.3      0.083287528    933.82679     -4452901.5      1932.5124      1932.5124      1932.5124      1533.7438      3466.2562      1533.7438      3466.2562      1533.7438      3466.2562      7.2171688e+09  0.5            1052200        19.114421      7456.7056      14913.347      0.36358957   
   2099600   313.70315      0.9398137     -4453983.8      0.083305656    934.15441     -4453049.7      1932.3722      1932.3722      1932.3722      1533.8139      3466.1861      1533.8139      3466.1861      1533.8139      3466.1861      7.2155982e+09  0.5            1052300        19.127515      7637.1446      15274.295      0.35060622   
   2099800   313.88032      0.9219575     -4454138.3      0.083319338    934.68198     -4453203.6      1932.2664      1932.2664      1932.2664      1533.8668      3466.1332      1533.8668      3466.1332      1533.8668      3466.1332      7.2144134e+09  0.5            1052400        19.140579      7654.4634      15308.937      0.3376222    
   2100000   314.05723      0.92430675    -4454288.5      0.083337451    935.20879     -4453353.3      1932.1264      1932.1264      1932.1264      1533.9368      3466.0632      1533.9368      3466.0632      1533.9368      3466.0632      7.2128453e+09  0.5            1052500        19.153692      7626.252       15252.373      0.32463889   
   2100200   314.14875      0.93201262    -4454439.3      0.083355969    935.48133     -4453503.8      1931.9833      1931.9833      1931.9833      1534.0083      3465.9917      1534.0083      3465.9917      1534.0083      3465.9917      7.211243e+09   0.5            1052600        19.1679        7038.1015      14076.268      0.31167321   
   2100400   314.07333      0.91129736    -4454598.1      0.083367755    935.25674     -4453662.9      1931.8923      1931.8923      1931.8923      1534.0539      3465.9461      1534.0539      3465.9461      1534.0539      3465.9461      7.2102235e+09  0.5            1052700        19.182252      6967.8123      13935.55       0.29870809   
   2100600   313.92527      0.93824369    -4454746.8      0.083388091    934.81583     -4453812        1931.7352      1931.7352      1931.7352      1534.1324      3465.8676      1534.1324      3465.8676      1534.1324      3465.8676      7.2084651e+09  0.5            1052800        19.196406      7064.908       14129.771      0.28573816   
   2100800   313.81807      1.0663244     -4454870.1      0.083427622    934.49663     -4453935.6      1931.4301      1931.4301      1931.4301      1534.285       3465.715       1534.285       3465.715       1534.285       3465.715       7.2050495e+09  0.5            1052900        19.210443      7124.2156      14248.442      0.27276495   
   2101000   313.73068      0.98967494    -4456936.3      0.083429185    934.2364      -4456002.1      1931.418       1931.418       1931.418       1534.291       3465.709       1534.291       3465.709       1534.291       3465.709       7.2049145e+09  0.5            1053000        19.22445       7139.0179      14277.997      0.25978991   
   2101200   313.90725      1.0651497     -4457070.1      0.083460132    934.76218     -4456135.3      1931.1793      1931.1793      1931.1793      1534.4104      3465.5896      1534.4104      3465.5896      1534.4104      3465.5896      7.2022429e+09  0.5            1053100        19.237858      7458.6211      14917.461      0.24680577   
   2101400   314.07842      1.0839985     -4457218.7      0.083479928    935.27191     -4456283.4      1931.0266      1931.0266      1931.0266      1534.4867      3465.5133      1534.4867      3465.5133      1534.4867      3465.5133      7.200535e+09   0.5            1053200        19.250986      7616.9108      15233.827      0.23381768   
   2101600   314.10498      1.0072116     -4457393.2      0.083480429    935.35099     -4456457.8      1931.0227      1931.0227      1931.0227      1534.4886      3465.5114      1534.4886      3465.5114      1534.4886      3465.5114      7.2004918e+09  0.5            1053300        19.2641        7625.5001      15250.968      0.22082923   
   2101800   314.03218      0.93040311    -4457566.3      0.083480845    935.13422     -4456631.2      1931.0195      1931.0195      1931.0195      1534.4902      3465.5098      1534.4902      3465.5098      1534.4902      3465.5098      7.200456e+09   0.5            1053400        19.278256      7064.0002      14128.084      0.20785185   
   2102000   313.98041      0.99642274    -4457705.9      0.083508917    934.98006     -4456770.9      1930.8031      1930.8031      1930.8031      1534.5984      3465.4016      1534.5984      3465.4016      1534.5984      3465.4016      7.1980354e+09  0.5            1053500        19.291581      7504.9478      15009.679      0.19486448   
   2102200   313.99913      1.0280378     -4465226.6      0.083533683    935.03578     -4464291.5      1930.6123      1930.6123      1930.6123      1534.6939      3465.3061      1534.6939      3465.3061      1534.6939      3465.3061      7.1959014e+09  0.5            1053600        19.305893      6987.024       13974.071      0.18188596   
   2102400   314.00246      0.97257318    -4465395.8      0.08353775     935.0457      -4464460.8      1930.581       1930.581       1930.581       1534.7095      3465.2905      1534.7095      3465.2905      1534.7095      3465.2905      7.1955511e+09  0.5            1053700        19.319905      7136.6885      14273.285      0.16890303   
   2102600   314.04227      0.97813412    -4472924.2      0.083556879    935.16427     -4471989        1930.4336      1930.4336      1930.4336      1534.7832      3465.2168      1534.7832      3465.2168      1534.7832      3465.2168      7.1939037e+09  0.5            1053800        19.333867      7162.5321      14325.186      0.1559183    
   2102800   314.04717      1.0232006     -4473069.7      0.083580009    935.17884     -4472134.5      1930.2555      1930.2555      1930.2555      1534.8722      3465.1278      1534.8722      3465.1278      1534.8722      3465.1278      7.1919129e+09  0.5            1053900        19.347878      7137.3853      14274.739      0.14293263   
   2103000   313.96163      1.0009504     -4473230.8      0.083590517    934.92412     -4472295.8      1930.1746      1930.1746      1930.1746      1534.9127      3465.0873      1534.9127      3465.0873      1534.9127      3465.0873      7.1910088e+09  0.5            1054000        19.361888      7137.7221      14275.462      0.12994557   
   2103200   313.97381      0.98708241    -4473388.4      0.083603686    934.9604      -4472453.5      1930.0733      1930.0733      1930.0733      1534.9634      3465.0366      1534.9634      3465.0366      1534.9634      3465.0366      7.1898761e+09  0.5            1054100        19.375508      7341.8986      14683.891      0.11695479   
   2103400   314.12891      0.99152431    -4473540.9      0.083621664    935.42227     -4472605.5      1929.935       1929.935       1929.935       1535.0325      3464.9675      1535.0325      3464.9675      1535.0325      3464.9675      7.1883304e+09  0.5            1054200        19.389016      7403.2155      14801.17       0.10396259   
   2103600   314.32156      1.0165614     -4475581.7      0.083645747    935.99592     -4474645.7      1929.7497      1929.7497      1929.7497      1535.1251      3464.8749      1535.1251      3464.8749      1535.1251      3464.8749      7.1862607e+09  0.5            1054300        19.402175      7599.4564      15204.458      0.090968011  
   2103800   314.41665      1.0015932     -4476108.6      0.08366057     936.27909     -4475172.4      1929.6358      1929.6358      1929.6358      1535.1821      3464.8179      1535.1821      3464.8179      1535.1821      3464.8179      7.1849875e+09  0.5            1054400        19.415325      7604.4292      15208.834      0.077973202  
   2104000   314.38278      1.0175005     -4476261.1      0.083680389    936.17823     -4475324.9      1929.4834      1929.4834      1929.4834      1535.2583      3464.7417      1535.2583      3464.7417      1535.2583      3464.7417      7.1832858e+09  0.5            1054500        19.42849       7595.9132      15191.699      0.064978236  
   2104200   314.33988      1.0148295     -4476418.1      0.083696645    936.05047     -4475482.1      1929.3585      1929.3585      1929.3585      1535.3208      3464.6792      1535.3208      3464.6792      1535.3208      3464.6792      7.1818905e+09  0.5            1054600        19.441935      7437.7186      14875.593      0.051983789  
   2104400   314.35667      0.98831268    -4476581.3      0.083708334    936.1005      -4475645.2      1929.2687      1929.2687      1929.2687      1535.3657      3464.6343      1535.3657      3464.6343      1535.3657      3464.6343      7.1808877e+09  0.5            1054700        19.455092      7600.6722      15201.342      0.038988164  
   2104600   314.44412      0.9789104     -4476740.3      0.083723812    936.36089     -4475804        1929.1498      1929.1498      1929.1498      1535.4251      3464.5749      1535.4251      3464.5749      1535.4251      3464.5749      7.1795602e+09  0.5            1054800        19.468263      7592.1722      15184.274      0.025992344  
   2104800   314.53779      0.99475492    -4476894.2      0.083744168    936.63983     -4475957.6      1928.9934      1928.9934      1928.9934      1535.5033      3464.4967      1535.5033      3464.4967      1535.5033      3464.4967      7.177815e+09   0.5            1054900        19.481748      7415.8021      14831.649      0.012996498  
   2105000   314.56615      1.0019701     -4477051.6      0.083762116    936.72427     -4476114.9      1928.8557      1928.8557      1928.8557      1535.5722      3464.4278      1535.5722      3464.4278      1535.5722      3464.4278      7.176277e+09   0.5            1055000        19.495288      7385.1927      14770.324      0            
Loop time of 19.4954 on 4 procs for 300000 steps with 1000 atoms

Performance: 664.774 ns/day, 0.036 hours/ns, 15388.278 timesteps/s
99.6% CPU use with 4 MPI tasks x no OpenMP threads

MPI task timing breakdown:
Section |  min time  |  avg time  |  max time  |%varavg| %total
---------------------------------------------------------------
Pair    | 0.52968    | 1.9429     | 4.2815     | 101.0 |  9.97
Neigh   | 0.018283   | 0.046998   | 0.093178   |  12.9 |  0.24
Comm    | 6.0402     | 7.4923     | 8.2276     |  31.9 | 38.43
Output  | 0.054508   | 0.073093   | 0.12543    |  11.2 |  0.37
Modify  | 6.8152     | 7.3648     | 8.1944     |  20.2 | 37.78
Other   |            | 2.575      |            |       | 13.21

Nlocal:            250 ave         504 max          81 min
Histogram: 1 0 1 1 0 0 0 0 0 1
Nghost:         238.75 ave         327 max         169 min
Histogram: 1 0 0 1 1 0 0 0 0 1
Neighs:          192.5 ave         502 max          27 min
Histogram: 1 1 1 0 0 0 0 0 0 1

Total # of neighbors = 770
Ave neighs/atom = 0.77
Neighbor list builds = 709
Dangerous builds = 56

# run_style
run_style verlet

# write restart
write_restart ${write_res}
write_restart ./pgnpmf/37/equpmf3.res
System init for write_restart ...
Generated 0 of 1 mixed pair_coeff terms from geometric mixing rule

Total wall time: 0:00:37
