LAMMPS (23 Jun 2022 - Update 1)
OMP_NUM_THREADS environment is not set. Defaulting to 1 thread. (src/comm.cpp:98)
  using 1 OpenMP thread(s) per MPI task
# Read restart
read_restart ${read_res}
read_restart ./pgnpmf/37/equpmf40.res
Reading restart file ...
  restart file = 23 Jun 2022, LAMMPS = 23 Jun 2022
  restoring atom style atomic from restart
  orthogonal box = (2024.8597 2024.8597 2024.8597) to (2975.1403 2975.1403 2975.1403)
  1 by 1 by 1 MPI processor grid
  restoring pair style table from restart
  1000 atoms
  read_restart CPU = 0.003 seconds

# Settings

pair_style table spline 9941

pair_coeff 1 1 ./pgnpmf/N20.txt DE_GNP 75.6
pair_coeff 2 2 ./pgnpmf/N100.txt DE_GNP 115.92
WARNING: 3 of 9941 force values in table DE_GNP are inconsistent with -dE/dr.
WARNING:  Should only be flagged at inflection points (src/pair_table.cpp:463)
pair_coeff 1 2 ./pgnpmf/mixed_potential.txt DE_GNP 95.66
WARNING: 1562 of 9941 force values in table DE_GNP are inconsistent with -dE/dr.
WARNING:  Should only be flagged at inflection points (src/pair_table.cpp:463)

#Neigh_list Calc Frequency

neigh_modify delay 0 every 1 check yes

# Saving Frequency (50 frames)

variable ts_save equal ${steps_equ}
variable ts_save equal 5000

# Dump
#dump 1 all custom ${ts_save} ./pgnpmf/${folder}/equilibration/trajectory/trajectory_${usic}_${trial}.equ.custom type x y z ix iy iz
#dump_modify 1 first no sort id
#dump 2 all cfg 50000 ./equilibration/trajectory/ovito/dumpgen.tens_*.cfg mass type xs ys zs fx fy fz

# thermo_style
thermo_style custom step temp press pe density ke etotal lx ly lz xlo xhi ylo yhi zlo zhi vol dt time cpu tpcpu spcpu cpuremain

# run info
timestep ${ts}
timestep 0.1
thermo 200

# fix

fix 1 all momentum 1000 linear 1 1 1 angular
variable T equal ${temp}
variable T equal 300
fix 2 all nvt temp ${T} 370000 100.0
fix 2 all nvt temp 300 370000 100.0

run 100000
Generated 0 of 1 mixed pair_coeff terms from geometric mixing rule
Unused restart file global fix info:
  fix style: npt, fix ID: 5
Neighbor list info ...
  update every 1 steps, delay 0 steps, check yes
  max neighbors/atom: 2000, page size: 100000
  master list distance cutoff = 117.92
  ghost atom cutoff = 117.92
  binsize = 58.96, bins = 17 17 17
  1 neighbor lists, perpetual/occasional/extra = 1 0 0
  (1) pair table, perpetual
      attributes: half, newton on
      pair build: half/bin/atomonly/newton
      stencil: half/bin/3d
      bin: standard
Per MPI rank memory allocation (min/avg/max) = 3.137 | 3.137 | 3.137 Mbytes
   Step          Temp          Press          PotEng        Density         KinEng         TotEng           Lx             Ly             Lz            Xlo            Xhi            Ylo            Yhi            Zlo            Zhi           Volume           Dt            Time           CPU           T/CPU          S/CPU         CPULeft    
  28005000   307.70967      1.2090111     -36162292       0.70047286     916.30686     -36161376       950.28055      950.28055      950.28055      2024.8597      2975.1403      2024.8597      2975.1403      2024.8597      2975.1403      8.5813481e+08  0.1            13725000       0              0              0              0            
  28005200   345.86969      1.0717866     -36162391       0.70047286     1029.9409     -36161362       950.28055      950.28055      950.28055      2024.8597      2975.1403      2024.8597      2975.1403      2024.8597      2975.1403      8.5813481e+08  0.1            13725020       0.031689052    631.11439      6310.9567      15.814166    
  28005400   399.3766       0.92679044    -36162498       0.70047286     1189.2753     -36161308       950.28055      950.28055      950.28055      2024.8597      2975.1403      2024.8597      2975.1403      2024.8597      2975.1403      8.5813481e+08  0.1            13725040       0.06335929     631.5109       6315.1221      15.777068    
  28005600   458.07315      0.77100343    -36162611       0.70047286     1364.0636     -36161247       950.28055      950.28055      950.28055      2024.8597      2975.1403      2024.8597      2975.1403      2024.8597      2975.1403      8.5813481e+08  0.1            13725060       0.095036572    631.36451      6313.6497      15.744813    
  28005800   528.65891      0.60466251    -36162733       0.70047286     1574.256      -36161159       950.28055      950.28055      950.28055      2024.8597      2975.1403      2024.8597      2975.1403      2024.8597      2975.1403      8.5813481e+08  0.1            13725080       0.12671885     631.27336      6312.733       15.713419    
  28006000   610.98294      0.42625678    -36162864       0.70047286     1819.4029     -36161045       950.28055      950.28055      950.28055      2024.8597      2975.1403      2024.8597      2975.1403      2024.8597      2975.1403      8.5813481e+08  0.1            13725100       0.15845769     630.1443       6301.4577      15.687517    
  28006200   705.91133      0.23531398    -36163005       0.70047286     2102.0834     -36160903       950.28055      950.28055      950.28055      2024.8597      2975.1403      2024.8597      2975.1403      2024.8597      2975.1403      8.5813481e+08  0.1            13725120       0.19017973     630.47483      6304.7361      15.658314    
  28006400   814.76838      0.030402119   -36163156       0.70047286     2426.2411     -36160730       950.28055      950.28055      950.28055      2024.8597      2975.1403      2024.8597      2975.1403      2024.8597      2975.1403      8.5813481e+08  0.1            13725140       0.22186409     631.22582      6312.259       15.625729    
  28006600   939.13826     -0.34610718    -36170696       0.70047286     2796.5934     -36167899       950.28055      950.28055      950.28055      2024.8597      2975.1403      2024.8597      2975.1403      2024.8597      2975.1403      8.5813481e+08  0.1            13725160       0.25359591     630.28536      6302.8462      15.596278    
  28006800   1080.8746     -0.58183441    -36170870       0.70047286     3218.6601     -36167651       950.28055      950.28055      950.28055      2024.8597      2975.1403      2024.8597      2975.1403      2024.8597      2975.1403      8.5813481e+08  0.1            13725180       0.28527408     631.34657      6313.4785      15.563407    
  28007000   1241.6977     -0.83410245    -36171056       0.70047286     3697.5637     -36167359       950.28055      950.28055      950.28055      2024.8597      2975.1403      2024.8597      2975.1403      2024.8597      2975.1403      8.5813481e+08  0.1            13725200       0.31703341     629.73769      6297.3686      15.534742    
  28007200   1424.3541     -1.1028261     -36171256       0.70047286     4241.4834     -36167014       950.28055      950.28055      950.28055      2024.8597      2975.1403      2024.8597      2975.1403      2024.8597      2975.1403      8.5813481e+08  0.1            13725220       0.34875575     630.46936      6304.7119      15.503873    
  28007400   1631.2081     -1.3891873     -36171469       0.70047286     4857.4593     -36166611       950.28055      950.28055      950.28055      2024.8597      2975.1403      2024.8597      2975.1403      2024.8597      2975.1403      8.5813481e+08  0.1            13725240       0.38048043     630.42496      6304.2351      15.472957    
  28007600   1865.0632     -1.6940005     -36171697       0.70047286     5553.8398     -36166143       950.28055      950.28055      950.28055      2024.8597      2975.1403      2024.8597      2975.1403      2024.8597      2975.1403      8.5813481e+08  0.1            13725260       0.41224417     629.64891      6296.4701      15.443385    
  28007800   2129.0025     -2.0180285     -36171940       0.70047286     6339.8059     -36165600       950.28055      950.28055      950.28055      2024.8597      2975.1403      2024.8597      2975.1403      2024.8597      2975.1403      8.5813481e+08  0.1            13725280       0.44397282     630.34541      6303.4817      15.412272    
  28008000   2426.0971     -2.3620424     -36172200       0.70047286     7224.503      -36164975       950.28055      950.28055      950.28055      2024.8597      2975.1403      2024.8597      2975.1403      2024.8597      2975.1403      8.5813481e+08  0.1            13725300       0.47670837     610.95597      6109.5551      15.41364     
  28008200   2760.5248     -2.8834389     -36179854       0.70047286     8220.3713     -36171634       950.28055      950.28055      950.28055      2024.8597      2975.1403      2024.8597      2975.1403      2024.8597      2975.1403      8.5813481e+08  0.1            13725320       0.50860803     626.96457      6269.6453      15.385461    
  28008400   3136.0719     -3.2712829     -36180149       0.70047286     9338.6867     -36170810       950.28055      950.28055      950.28055      2024.8597      2975.1403      2024.8597      2975.1403      2024.8597      2975.1403      8.5813481e+08  0.1            13725340       0.54034348     630.20919      6302.0804      15.352178    
  28008600   3556.9893     -3.6839355     -36180462       0.70047286     10592.107     -36169870       950.28055      950.28055      950.28055      2024.8597      2975.1403      2024.8597      2975.1403      2024.8597      2975.1403      8.5813481e+08  0.1            13725360       0.57203461     631.09084      6310.9183      15.317877    
  28008800   4027.8307     -4.1224032     -36180796       0.70047286     11994.192     -36168802       950.28055      950.28055      950.28055      2024.8597      2975.1403      2024.8597      2975.1403      2024.8597      2975.1403      8.5813481e+08  0.1            13725380       0.60376493     630.31321      6303.1291      15.284843    
  28009000   4553.1358     -4.4299275     -36173772       0.70047286     13558.461     -36160214       950.28055      950.28055      950.28055      2024.8597      2975.1403      2024.8597      2975.1403      2024.8597      2975.1403      8.5813481e+08  0.1            13725400       0.63551928     629.83757      6298.3638      15.252516    
  28009200   5138.3571     -4.9184393     -36174148       0.70047286     15301.15      -36158847       950.28055      950.28055      950.28055      2024.8597      2975.1403      2024.8597      2975.1403      2024.8597      2975.1403      8.5813481e+08  0.1            13725420       0.66722537     630.79124      6307.9309      15.219143    
  28009400   5788.4727     -5.4316244     -36174547       0.70047286     17237.083     -36157310       950.28055      950.28055      950.28055      2024.8597      2975.1403      2024.8597      2975.1403      2024.8597      2975.1403      8.5813481e+08  0.1            13725440       0.69889324     631.55549      6315.5389      15.185094    
  28009600   6508.6973     -5.9703244     -36174969       0.70047286     19381.789     -36155588       950.28055      950.28055      950.28055      2024.8597      2975.1403      2024.8597      2975.1403      2024.8597      2975.1403      8.5813481e+08  0.1            13725460       0.73055262     631.72511      6317.2637      15.151072    
  28009800   7304.1955     -6.5362383     -36175416       0.70047286     21750.647     -36153665       950.28055      950.28055      950.28055      2024.8597      2975.1403      2024.8597      2975.1403      2024.8597      2975.1403      8.5813481e+08  0.1            13725480       0.76229739     630.02734      6300.2883      15.118937    
  28010000   8179.6767     -7.0852639     -36175519       0.70047286     24357.68      -36151162       950.28055      950.28055      950.28055      2024.8597      2975.1403      2024.8597      2975.1403      2024.8597      2975.1403      8.5813481e+08  0.1            13725500       0.79405304     629.80567      6298.0419      15.087051    
  28010200   9140.26       -7.5544737     -36168639       0.70047286     27218.133     -36141421       950.28055      950.28055      950.28055      2024.8597      2975.1403      2024.8597      2975.1403      2024.8597      2975.1403      8.5813481e+08  0.1            13725520       0.82571275     631.71888      6317.1705      15.053419    
  28010400   10189.801     -8.2073859     -36169164       0.70047286     30343.489     -36138820       950.28055      950.28055      950.28055      2024.8597      2975.1403      2024.8597      2975.1403      2024.8597      2975.1403      8.5813481e+08  0.1            13725540       0.85775073     624.25725      6242.5932      15.026562    
  28010600   11331.449     -8.879814      -36169715       0.70047286     33743.119     -36135972       950.28055      950.28055      950.28055      2024.8597      2975.1403      2024.8597      2975.1403      2024.8597      2975.1403      8.5813481e+08  0.1            13725560       0.88938046     632.31805      6323.1765      14.99245     
  28010800   12567.232     -9.5772502     -36170295       0.70047286     37423.07      -36132872       950.28055      950.28055      950.28055      2024.8597      2975.1403      2024.8597      2975.1403      2024.8597      2975.1403      8.5813481e+08  0.1            13725580       0.92107315     631.05953      6310.5953      14.959535    
  28011000   13897.356     -10.313983     -36170904       0.70047286     41383.953     -36129520       950.28055      950.28055      950.28055      2024.8597      2975.1403      2024.8597      2975.1403      2024.8597      2975.1403      8.5813481e+08  0.1            13725600       0.95279651     630.45022      6304.5126      14.92718     
  28011200   15320.807     -11.105755     -36171541       0.70047286     45622.748     -36125918       950.28055      950.28055      950.28055      2024.8597      2975.1403      2024.8597      2975.1403      2024.8597      2975.1403      8.5813481e+08  0.1            13725620       0.98448727     631.10101      6311.0137      14.894371    
  28011400   16833.583     -11.956817     -36172206       0.70047286     50127.536     -36122079       950.28055      950.28055      950.28055      2024.8597      2975.1403      2024.8597      2975.1403      2024.8597      2975.1403      8.5813481e+08  0.1            13725640       1.0162256      630.15077      6301.5054      14.862331    
  28011600   18428.976     -12.846037     -36172900       0.70047286     54878.344     -36118022       950.28055      950.28055      950.28055      2024.8597      2975.1403      2024.8597      2975.1403      2024.8597      2975.1403      8.5813481e+08  0.1            13725660       1.0479044      631.33649      6313.342       14.829468    
  28011800   20096.933     -13.74671      -36173623       0.70047286     59845.235     -36113777       950.28055      950.28055      950.28055      2024.8597      2975.1403      2024.8597      2975.1403      2024.8597      2975.1403      8.5813481e+08  0.1            13725680       1.0795573      631.85589      6318.5629      14.796315    
  28012000   21823.446     -14.635461     -36174372       0.70047286     64986.496     -36109386       950.28055      950.28055      950.28055      2024.8597      2975.1403      2024.8597      2975.1403      2024.8597      2975.1403      8.5813481e+08  0.1            13725700       1.1112727      630.60941      6306.0979      14.76408     
  28012200   23591.189     -15.501164     -36175149       0.70047286     70250.531     -36104898       950.28055      950.28055      950.28055      2024.8597      2975.1403      2024.8597      2975.1403      2024.8597      2975.1403      8.5813481e+08  0.1            13725720       1.1429489      631.38478      6313.8428      14.731371    
  28012400   25377.842     -16.352708     -36175951       0.70047286     75570.881     -36100381       950.28055      950.28055      950.28055      2024.8597      2975.1403      2024.8597      2975.1403      2024.8597      2975.1403      8.5813481e+08  0.1            13725740       1.1745619      632.65301      6326.5325      14.697924    
  28012600   27156.552     -17.209387     -36176779       0.70047286     80867.576     -36095911       950.28055      950.28055      950.28055      2024.8597      2975.1403      2024.8597      2975.1403      2024.8597      2975.1403      8.5813481e+08  0.1            13725760       1.2061898      632.35418      6323.549       14.664755    
  28012800   28895.955     -18.115098     -36177630       0.70047286     86047.22      -36091582       950.28055      950.28055      950.28055      2024.8597      2975.1403      2024.8597      2975.1403      2024.8597      2975.1403      8.5813481e+08  0.1            13725780       1.2378086      632.53679      6325.3591      14.631557    
  28013000   30560.57      -19.100979     -36178501       0.70047286     91004.159     -36087497       950.28055      950.28055      950.28055      2024.8597      2975.1403      2024.8597      2975.1403      2024.8597      2975.1403      8.5813481e+08  0.1            13725800       1.2695145      630.79631      6307.9637      14.599442    
  28013200   32112.927     -20.146212     -36179390       0.70047286     95626.813     -36083763       950.28055      950.28055      950.28055      2024.8597      2975.1403      2024.8597      2975.1403      2024.8597      2975.1403      8.5813481e+08  0.1            13725820       1.3011909      631.38342      6313.8372      14.567016    
  28013400   33514.111     -21.248247     -36180296       0.70047286     99799.3       -36080497       950.28055      950.28055      950.28055      2024.8597      2975.1403      2024.8597      2975.1403      2024.8597      2975.1403      8.5813481e+08  0.1            13725840       1.333443       620.10929      6201.0974      14.540906    
  28013600   34726.815     -22.389076     -36181215       0.70047286     103410.52     -36077804       950.28055      950.28055      950.28055      2024.8597      2975.1403      2024.8597      2975.1403      2024.8597      2975.1403      8.5813481e+08  0.1            13725860       1.3652247      629.29666      6292.9725      14.509505    
  28013800   35719.65      -23.533011     -36182143       0.70047286     106367.02     -36075776       950.28055      950.28055      950.28055      2024.8597      2975.1403      2024.8597      2975.1403      2024.8597      2975.1403      8.5813481e+08  0.1            13725880       1.3968686      632.03409      6320.3279      14.476662    
  28014000   36471.782     -24.661697     -36183076       0.70047286     108606.74     -36074470       950.28055      950.28055      950.28055      2024.8597      2975.1403      2024.8597      2975.1403      2024.8597      2975.1403      8.5813481e+08  0.1            13725900       1.428554       631.20737      6312.0823      14.44429     
  28014200   36979.615     -25.974871     -36191389       0.70047286     110118.98     -36081270       950.28055      950.28055      950.28055      2024.8597      2975.1403      2024.8597      2975.1403      2024.8597      2975.1403      8.5813481e+08  0.1            13725920       1.4601618      632.75525      6327.5507      14.411183    
  28014400   37260.158     -27.207918     -36192324       0.70047286     110954.39     -36081369       950.28055      950.28055      950.28055      2024.8597      2975.1403      2024.8597      2975.1403      2024.8597      2975.1403      8.5813481e+08  0.1            13725940       1.4927321      614.04911      6140.4929      14.387421    
  28014600   37352.574     -28.504526     -36193255       0.70047286     111229.59     -36082025       950.28055      950.28055      950.28055      2024.8597      2975.1403      2024.8597      2975.1403      2024.8597      2975.1403      8.5813481e+08  0.1            13725960       1.5243834      631.89167      6318.9065      14.354632    
  28014800   37313.971     -29.803951     -36194182       0.70047286     111114.63     -36083067       950.28055      950.28055      950.28055      2024.8597      2975.1403      2024.8597      2975.1403      2024.8597      2975.1403      8.5813481e+08  0.1            13725980       1.5563088      626.46316      6264.6181      14.324414    
  28015000   37211.459     -31.098547     -36196997       0.70047286     110809.37     -36086188       950.28055      950.28055      950.28055      2024.8597      2975.1403      2024.8597      2975.1403      2024.8597      2975.1403      8.5813481e+08  0.1            13726000       1.5880278      630.53702      6305.3971      14.292269    
  28015200   37113.74      -32.25319      -36197910       0.70047286     110518.38     -36087392       950.28055      950.28055      950.28055      2024.8597      2975.1403      2024.8597      2975.1403      2024.8597      2975.1403      8.5813481e+08  0.1            13726020       1.6196684      632.09743      6320.9765      14.259452    
  28015400   37084.402     -33.246575     -36191436       0.70047286     110431.02     -36081005       950.28055      950.28055      950.28055      2024.8597      2975.1403      2024.8597      2975.1403      2024.8597      2975.1403      8.5813481e+08  0.1            13726040       1.6513291      631.69783      6316.9636      14.226855    
  28015600   37179.624     -34.598217     -36199711       0.70047286     110714.57     -36088996       950.28055      950.28055      950.28055      2024.8597      2975.1403      2024.8597      2975.1403      2024.8597      2975.1403      8.5813481e+08  0.1            13726060       1.6830086      631.32212      6313.2286      14.19445     
  28015800   37445.689     -35.836841     -36200603       0.70047286     111506.87     -36089097       950.28055      950.28055      950.28055      2024.8597      2975.1403      2024.8597      2975.1403      2024.8597      2975.1403      8.5813481e+08  0.1            13726080       1.7146579      631.92862      6319.2653      14.161822    
  28016000   37918.276     -37.101057     -36201495       0.70047286     112914.15     -36088581       950.28055      950.28055      950.28055      2024.8597      2975.1403      2024.8597      2975.1403      2024.8597      2975.1403      8.5813481e+08  0.1            13726100       1.7464006      630.06581      6300.7006      14.129984    
  28016200   38620.563     -38.319028     -36202389       0.70047286     115005.44     -36087384       950.28055      950.28055      950.28055      2024.8597      2975.1403      2024.8597      2975.1403      2024.8597      2975.1403      8.5813481e+08  0.1            13726120       1.7780018      632.87995      6328.7714      14.097034    
  28016400   39558.673     -39.461177     -36203287       0.70047286     117798.97     -36085488       950.28055      950.28055      950.28055      2024.8597      2975.1403      2024.8597      2975.1403      2024.8597      2975.1403      8.5813481e+08  0.1            13726140       1.8096109      632.73525      6327.3655      14.064186    
  28016600   40719.551     -40.587377     -36204189       0.70047286     121255.87     -36082933       950.28055      950.28055      950.28055      2024.8597      2975.1403      2024.8597      2975.1403      2024.8597      2975.1403      8.5813481e+08  0.1            13726160       1.8412884      631.36421      6313.6228      14.031904    
  28016800   42070.436     -41.740233     -36205098       0.70047286     125278.57     -36079819       950.28055      950.28055      950.28055      2024.8597      2975.1403      2024.8597      2975.1403      2024.8597      2975.1403      8.5813481e+08  0.1            13726180       1.8736258      618.47312      6184.7195      14.004578    
  28017000   43561.575     -42.895862     -36206015       0.70047286     129718.93     -36076296       950.28055      950.28055      950.28055      2024.8597      2975.1403      2024.8597      2975.1403      2024.8597      2975.1403      8.5813481e+08  0.1            13726200       1.9052587      632.25964      6322.6252      13.971912    
  28017200   45132.911     -44.150951     -36214320       0.70047286     134398.1      -36079922       950.28055      950.28055      950.28055      2024.8597      2975.1403      2024.8597      2975.1403      2024.8597      2975.1403      8.5813481e+08  0.1            13726220       1.9368494      633.09713      6330.9625      13.938981    
  28017400   46719.089     -45.182973     -36215257       0.70047286     139121.47     -36076136       950.28055      950.28055      950.28055      2024.8597      2975.1403      2024.8597      2975.1403      2024.8597      2975.1403      8.5813481e+08  0.1            13726240       1.9692172      617.89498      6178.9341      13.911584    
  28017600   48254.852     -46.205874     -36216202       0.70047286     143694.71     -36072508       950.28055      950.28055      950.28055      2024.8597      2975.1403      2024.8597      2975.1403      2024.8597      2975.1403      8.5813481e+08  0.1            13726260       2.0008767      631.72186      6317.2345      13.879113    
  28017800   49679.568     -47.277273     -36217154       0.70047286     147937.27     -36069217       950.28055      950.28055      950.28055      2024.8597      2975.1403      2024.8597      2975.1403      2024.8597      2975.1403      8.5813481e+08  0.1            13726280       2.0325636      631.17518      6310.5336      13.846897    
  28018000   50939.875     -48.317207     -36216216       0.70047286     151690.25     -36064526       950.28055      950.28055      950.28055      2024.8597      2975.1403      2024.8597      2975.1403      2024.8597      2975.1403      8.5813481e+08  0.1            13726300       2.0641867      632.44858      6325.7056      13.814189    
  28018200   51993.292     -49.401816     -36217176       0.70047286     154827.15     -36062349       950.28055      950.28055      950.28055      2024.8597      2975.1403      2024.8597      2975.1403      2024.8597      2975.1403      8.5813481e+08  0.1            13726320       2.0958375      631.89971      6318.9971      13.781734    
  28018400   52810.22      -50.499013     -36218133       0.70047286     157259.82     -36060874       950.28055      950.28055      950.28055      2024.8597      2975.1403      2024.8597      2975.1403      2024.8597      2975.1403      8.5813481e+08  0.1            13726340       2.1274544      632.57145      6325.7127      13.749086    
  28018600   53380.334     -51.731711     -36219085       0.70047286     158957.52     -36060128       950.28055      950.28055      950.28055      2024.8597      2975.1403      2024.8597      2975.1403      2024.8597      2975.1403      8.5813481e+08  0.1            13726360       2.1590582      632.83453      6328.3491      13.716384    
  28018800   53715.469     -53.095339     -36220031       0.70047286     159955.5      -36060076       950.28055      950.28055      950.28055      2024.8597      2975.1403      2024.8597      2975.1403      2024.8597      2975.1403      8.5813481e+08  0.1            13726380       2.1906405      633.2657       6332.6514      13.683581    
  28019000   53848.6       -54.495351     -36220972       0.70047286     160351.93     -36060620       950.28055      950.28055      950.28055      2024.8597      2975.1403      2024.8597      2975.1403      2024.8597      2975.1403      8.5813481e+08  0.1            13726400       2.2222116      633.49525      6334.9617      13.650741    
  28019200   53831.262     -55.69887      -36214525       0.70047286     160300.31     -36054225       950.28055      950.28055      950.28055      2024.8597      2975.1403      2024.8597      2975.1403      2024.8597      2975.1403      8.5813481e+08  0.1            13726420       2.25378        633.53972      6335.3974      13.617924    
  28019400   53727.244     -57.075191     -36217341       0.70047286     159990.56     -36057350       950.28055      950.28055      950.28055      2024.8597      2975.1403      2024.8597      2975.1403      2024.8597      2975.1403      8.5813481e+08  0.1            13726440       2.2852596      635.33263      6353.3183      13.584613    
  28019600   53605.772     -58.439093     -36218252       0.70047286     159628.84     -36058623       950.28055      950.28055      950.28055      2024.8597      2975.1403      2024.8597      2975.1403      2024.8597      2975.1403      8.5813481e+08  0.1            13726460       2.3168423      633.26069      6332.6037      13.551953    
  28019800   53534.732     -59.719315     -36211777       0.70047286     159417.29     -36052359       950.28055      950.28055      950.28055      2024.8597      2975.1403      2024.8597      2975.1403      2024.8597      2975.1403      8.5813481e+08  0.1            13726480       2.3484625      632.50737      6325.0871      13.51954     
  28020000   53575.184     -61.153876     -36212671       0.70047286     159537.75     -36053133       950.28055      950.28055      950.28055      2024.8597      2975.1403      2024.8597      2975.1403      2024.8597      2975.1403      8.5813481e+08  0.1            13726500       2.3801411      631.34103      6313.4105      13.487478    
  28020200   53778.923     -62.662125     -36220934       0.70047286     160144.45     -36060790       950.28055      950.28055      950.28055      2024.8597      2975.1403      2024.8597      2975.1403      2024.8597      2975.1403      8.5813481e+08  0.1            13726520       2.4117432      632.86935      6328.6881      13.455       
  28020400   54186.441     -63.767817     -36214436       0.70047286     161357.97     -36053078       950.28055      950.28055      950.28055      2024.8597      2975.1403      2024.8597      2975.1403      2024.8597      2975.1403      8.5813481e+08  0.1            13726540       2.4433423      632.92493      6329.2495      13.42253     
  28020600   54824.568     -64.941237     -36215310       0.70047286     163258.2      -36052052       950.28055      950.28055      950.28055      2024.8597      2975.1403      2024.8597      2975.1403      2024.8597      2975.1403      8.5813481e+08  0.1            13726560       2.4759513      613.32968      6133.3045      13.395543    
  28020800   55704.143     -65.863242     -36208802       0.70047286     165877.43     -36042924       950.28055      950.28055      950.28055      2024.8597      2975.1403      2024.8597      2975.1403      2024.8597      2975.1403      8.5813481e+08  0.1            13726580       2.5075416      633.10515      6331.0597      13.362987    
  28021000   56817.73      -67.050725     -36217046       0.70047286     169193.5      -36047852       950.28055      950.28055      950.28055      2024.8597      2975.1403      2024.8597      2975.1403      2024.8597      2975.1403      8.5813481e+08  0.1            13726600       2.5392073      631.59498      6315.937       13.330851    
  28021200   58139.121     -68.159851     -36218648       0.70047286     173128.37     -36045519       950.28055      950.28055      950.28055      2024.8597      2975.1403      2024.8597      2975.1403      2024.8597      2975.1403      8.5813481e+08  0.1            13726620       2.5707965      633.13233      6331.3199      13.298329    
  28021400   59623.911     -69.181609     -36219513       0.70047286     177549.83     -36041963       950.28055      950.28055      950.28055      2024.8597      2975.1403      2024.8597      2975.1403      2024.8597      2975.1403      8.5813481e+08  0.1            13726640       2.6024044      632.75292      6327.516       13.265927    
  28021600   61213.241     -70.206967     -36220378       0.70047286     182282.58     -36038096       950.28055      950.28055      950.28055      2024.8597      2975.1403      2024.8597      2975.1403      2024.8597      2975.1403      8.5813481e+08  0.1            13726660       2.6339782      633.43805      6334.3919      13.233371    
  28021800   62839.582     -71.273289     -36221243       0.70047286     187125.54     -36034118       950.28055      950.28055      950.28055      2024.8597      2975.1403      2024.8597      2975.1403      2024.8597      2975.1403      8.5813481e+08  0.1            13726680       2.6655958      632.55824      6325.5882      13.201057    
  28022000   64432.835     -72.237604     -36214730       0.70047286     191869.98     -36022860       950.28055      950.28055      950.28055      2024.8597      2975.1403      2024.8597      2975.1403      2024.8597      2975.1403      8.5813481e+08  0.1            13726700       2.697187       633.08633      6330.8633      13.16863     
  28022200   65926.177     -73.22576      -36208217       0.70047286     196316.9      -36011900       950.28055      950.28055      950.28055      2024.8597      2975.1403      2024.8597      2975.1403      2024.8597      2975.1403      8.5813481e+08  0.1            13726720       2.728765       633.35544      6333.5496      13.136158    
  28022400   67258.974     -74.301761     -36209081       0.70047286     200285.74     -36008795       950.28055      950.28055      950.28055      2024.8597      2975.1403      2024.8597      2975.1403      2024.8597      2975.1403      8.5813481e+08  0.1            13726740       2.7610914      618.68638      6186.8587      13.107261    
  28022600   68381.23      -75.304141     -36209941       0.70047286     203627.63     -36006314       950.28055      950.28055      950.28055      2024.8597      2975.1403      2024.8597      2975.1403      2024.8597      2975.1403      8.5813481e+08  0.1            13726760       2.7927208      632.32263      6323.2273      13.075022    
  28022800   69258.694     -76.273061     -36208901       0.70047286     206240.57     -36002661       950.28055      950.28055      950.28055      2024.8597      2975.1403      2024.8597      2975.1403      2024.8597      2975.1403      8.5813481e+08  0.1            13726780       2.824364       632.04885      6320.4946      13.04286     
  28023000   69876.414     -77.34096      -36209748       0.70047286     208080.03     -36001668       950.28055      950.28055      950.28055      2024.8597      2975.1403      2024.8597      2975.1403      2024.8597      2975.1403      8.5813481e+08  0.1            13726800       2.8559835      632.51869      6325.1987      13.010602    
  28023200   70241.649     -78.519768     -36210586       0.70047286     209167.64     -36001419       950.28055      950.28055      950.28055      2024.8597      2975.1403      2024.8597      2975.1403      2024.8597      2975.1403      8.5813481e+08  0.1            13726820       2.8879958      624.76238      6247.5886      12.980124    
  28023400   70384.289     -79.759796     -36211414       0.70047286     209592.39     -36001822       950.28055      950.28055      950.28055      2024.8597      2975.1403      2024.8597      2975.1403      2024.8597      2975.1403      8.5813481e+08  0.1            13726840       2.9195814      633.19771      6331.9952      12.947719    
  28023600   70353.813     -81.03537      -36212230       0.70047286     209501.64     -36002728       950.28055      950.28055      950.28055      2024.8597      2975.1403      2024.8597      2975.1403      2024.8597      2975.1403      8.5813481e+08  0.1            13726860       2.9511662      633.21941      6332.2045      12.915328    
  28023800   70214.415     -82.31338      -36213032       0.70047286     209086.54     -36003946       950.28055      950.28055      950.28055      2024.8597      2975.1403      2024.8597      2975.1403      2024.8597      2975.1403      8.5813481e+08  0.1            13726880       2.9827998      632.23808      6322.3824      12.883166    
  28024000   70037.519     -83.457492     -36213819       0.70047286     208559.77     -36005259       950.28055      950.28055      950.28055      2024.8597      2975.1403      2024.8597      2975.1403      2024.8597      2975.1403      8.5813481e+08  0.1            13726900       3.0144092      632.72346      6327.2242      12.850912    
  28024200   69895.794     -84.530265     -36214589       0.70047286     208137.74     -36006452       950.28055      950.28055      950.28055      2024.8597      2975.1403      2024.8597      2975.1403      2024.8597      2975.1403      8.5813481e+08  0.1            13726920       3.0459958      633.17785      6331.7939      12.818575    
  28024400   69857.16      -85.675911     -36215345       0.70047286     208022.7      -36007322       950.28055      950.28055      950.28055      2024.8597      2975.1403      2024.8597      2975.1403      2024.8597      2975.1403      8.5813481e+08  0.1            13726940       3.0775105      634.62655      6346.2571      12.785955    
  28024600   69980.706     -86.887323     -36216088       0.70047286     208390.59     -36007697       950.28055      950.28055      950.28055      2024.8597      2975.1403      2024.8597      2975.1403      2024.8597      2975.1403      8.5813481e+08  0.1            13726960       3.109079       633.53532      6335.3446      12.75358     
  28024800   70313.161     -88.023588     -36216819       0.70047286     209380.59     -36007439       950.28055      950.28055      950.28055      2024.8597      2975.1403      2024.8597      2975.1403      2024.8597      2975.1403      8.5813481e+08  0.1            13726980       3.1406144      634.21384      6342.143       12.721084    
  28025000   70886.773     -89.013513     -36210163       0.70047286     211088.7      -35999075       950.28055      950.28055      950.28055      2024.8597      2975.1403      2024.8597      2975.1403      2024.8597      2975.1403      8.5813481e+08  0.1            13727000       3.1721964      633.27266      6332.718       12.688795    
  28025200   71717.93      -90.191445     -36210880       0.70047286     213563.75     -35997316       950.28055      950.28055      950.28055      2024.8597      2975.1403      2024.8597      2975.1403      2024.8597      2975.1403      8.5813481e+08  0.1            13727020       3.2036843      635.16599      6351.6867      12.656147    
  28025400   72803.385     -91.425138     -36218970       0.70047286     216796.05     -36002174       950.28055      950.28055      950.28055      2024.8597      2975.1403      2024.8597      2975.1403      2024.8597      2975.1403      8.5813481e+08  0.1            13727040       3.2351517      635.57966      6355.7887      12.623443    
  28025600   74118.548     -92.341178     -36219677       0.70047286     220712.38     -35998964       950.28055      950.28055      950.28055      2024.8597      2975.1403      2024.8597      2975.1403      2024.8597      2975.1403      8.5813481e+08  0.1            13727060       3.2666849      634.24934      6342.4865      12.591017    
  28025800   75619.237     -93.082546     -36220378       0.70047286     225181.18     -35995196       950.28055      950.28055      950.28055      2024.8597      2975.1403      2024.8597      2975.1403      2024.8597      2975.1403      8.5813481e+08  0.1            13727080       3.2981585      635.45341      6354.5468      12.558381    
  28026000   77244.876     -93.700999     -36221069       0.70047286     230022.05     -35991047       950.28055      950.28055      950.28055      2024.8597      2975.1403      2024.8597      2975.1403      2024.8597      2975.1403      8.5813481e+08  0.1            13727100       3.32968        634.4883       6344.8475      12.525948    
  28026200   78925.289     -94.352066     -36221751       0.70047286     235026.03     -35986725       950.28055      950.28055      950.28055      2024.8597      2975.1403      2024.8597      2975.1403      2024.8597      2975.1403      8.5813481e+08  0.1            13727120       3.3613064      632.38283      6323.8531      12.493921    
  28026400   80585.966     -95.105064     -36222424       0.70047286     239971.24     -35982453       950.28055      950.28055      950.28055      2024.8597      2975.1403      2024.8597      2975.1403      2024.8597      2975.1403      8.5813481e+08  0.1            13727140       3.3928569      633.90466      6339.0518      12.461623    
  28026600   82153.903     -95.997222     -36224984       0.70047286     244640.29     -35980343       950.28055      950.28055      950.28055      2024.8597      2975.1403      2024.8597      2975.1403      2024.8597      2975.1403      8.5813481e+08  0.1            13727160       3.4243811      634.43142      6344.3069      12.429243    
  28026800   83563.449     -97.13054      -36234914       0.70047286     248837.68     -35986077       950.28055      950.28055      950.28055      2024.8597      2975.1403      2024.8597      2975.1403      2024.8597      2975.1403      8.5813481e+08  0.1            13727180       3.4568846      615.31812      6153.1606      12.400393    
  28027000   84759.459     -97.925394     -36228188       0.70047286     252399.2      -35975788       950.28055      950.28055      950.28055      2024.8597      2975.1403      2024.8597      2975.1403      2024.8597      2975.1403      8.5813481e+08  0.1            13727200       3.4894644      613.87786      6138.7844      12.371746    
  28027200   85702.475     -98.888606     -36228829       0.70047286     255207.33     -35973622       950.28055      950.28055      950.28055      2024.8597      2975.1403      2024.8597      2975.1403      2024.8597      2975.1403      8.5813481e+08  0.1            13727220       3.5216887      620.64944      6206.5081      12.341782    
  28027400   86371.957     -99.827844     -36229459       0.70047286     257200.94     -35972258       950.28055      950.28055      950.28055      2024.8597      2975.1403      2024.8597      2975.1403      2024.8597      2975.1403      8.5813481e+08  0.1            13727240       3.5533393      631.90255      6319.0333      12.30979     
  28027600   86770.695     -100.79827     -36230074       0.70047286     258388.31     -35971686       950.28055      950.28055      950.28055      2024.8597      2975.1403      2024.8597      2975.1403      2024.8597      2975.1403      8.5813481e+08  0.1            13727260       3.5849109      633.47667      6334.7525      12.277535    
  28027800   86925.248     -101.79853     -36230674       0.70047286     258848.54     -35971826       950.28055      950.28055      950.28055      2024.8597      2975.1403      2024.8597      2975.1403      2024.8597      2975.1403      8.5813481e+08  0.1            13727280       3.6164581      633.97123      6339.7038      12.245208    
  28028000   86883.711     -103.01175     -36238638       0.70047286     258724.85     -35979913       950.28055      950.28055      950.28055      2024.8597      2975.1403      2024.8597      2975.1403      2024.8597      2975.1403      8.5813481e+08  0.1            13727300       3.6481664      630.75278      6307.5555      12.213434    
  28028200   86711.493     -104.09853     -36237314       0.70047286     258212.02     -35979102       950.28055      950.28055      950.28055      2024.8597      2975.1403      2024.8597      2975.1403      2024.8597      2975.1403      8.5813481e+08  0.1            13727320       3.6797175      633.89023      6338.8949      12.181141    
  28028400   86483.619     -105.21862     -36237873       0.70047286     257533.45     -35980339       950.28055      950.28055      950.28055      2024.8597      2975.1403      2024.8597      2975.1403      2024.8597      2975.1403      8.5813481e+08  0.1            13727340       3.711202       635.23085      6352.3083      12.148643    
  28028600   86276.46      -106.03545     -36231037       0.70047286     256916.57     -35974121       950.28055      950.28055      950.28055      2024.8597      2975.1403      2024.8597      2975.1403      2024.8597      2975.1403      8.5813481e+08  0.1            13727360       3.7427761      633.42742      6334.2689      12.116453    
  28028800   86163.349     -106.90825     -36229668       0.70047286     256579.74     -35973088       950.28055      950.28055      950.28055      2024.8597      2975.1403      2024.8597      2975.1403      2024.8597      2975.1403      8.5813481e+08  0.1            13727380       3.7755946      609.41932      6094.1776      12.088256    
  28029000   86209.539     -107.78862     -36230179       0.70047286     256717.29     -35973462       950.28055      950.28055      950.28055      2024.8597      2975.1403      2024.8597      2975.1403      2024.8597      2975.1403      8.5813481e+08  0.1            13727400       3.8071587      633.63088      6336.3183      12.05601     
  28029200   86467.904     -108.58119     -36230675       0.70047286     257486.65     -35973188       950.28055      950.28055      950.28055      2024.8597      2975.1403      2024.8597      2975.1403      2024.8597      2975.1403      8.5813481e+08  0.1            13727420       3.8387374      633.33942      6333.4026      12.023821    
  28029400   86976.582     -109.51257     -36231526       0.70047286     259001.41     -35972525       950.28055      950.28055      950.28055      2024.8597      2975.1403      2024.8597      2975.1403      2024.8597      2975.1403      8.5813481e+08  0.1            13727440       3.8702077      635.51709      6355.1703      11.991306    
  28029600   87756.289     -110.54418     -36239378       0.70047286     261323.24     -35978055       950.28055      950.28055      950.28055      2024.8597      2975.1403      2024.8597      2975.1403      2024.8597      2975.1403      8.5813481e+08  0.1            13727460       3.9017149      634.77794      6347.7605      11.958922    
  28029800   88805.774     -111.22562     -36239839       0.70047286     264448.43     -35975390       950.28055      950.28055      950.28055      2024.8597      2975.1403      2024.8597      2975.1403      2024.8597      2975.1403      8.5813481e+08  0.1            13727480       3.9332077      635.06519      6350.6735      11.926507    
  28030000   90102.538     -111.67347     -36239917       0.70047286     268309.97     -35971607       950.28055      950.28055      950.28055      2024.8597      2975.1403      2024.8597      2975.1403      2024.8597      2975.1403      8.5813481e+08  0.1            13727500       3.9647867      633.33342      6333.3356      11.894366    
  28030200   91604.821     -112.22991     -36242245       0.70047286     272783.51     -35969462       950.28055      950.28055      950.28055      2024.8597      2975.1403      2024.8597      2975.1403      2024.8597      2975.1403      8.5813481e+08  0.1            13727520       3.9962532      635.59497      6355.9608      11.861901    
  28030400   93253.279     -112.7593      -36242667       0.70047286     277692.34     -35964975       950.28055      950.28055      950.28055      2024.8597      2975.1403      2024.8597      2975.1403      2024.8597      2975.1403      8.5813481e+08  0.1            13727540       4.0277803      634.37242      6343.7089      11.829629    
  28030600   94975.656     -113.33262     -36243077       0.70047286     282821.28     -35960256       950.28055      950.28055      950.28055      2024.8597      2975.1403      2024.8597      2975.1403      2024.8597      2975.1403      8.5813481e+08  0.1            13727560       4.059323       634.06425      6340.6234      11.797414    
  28030800   96693.879     -114.14189     -36250852       0.70047286     287937.86     -35962914       950.28055      950.28055      950.28055      2024.8597      2975.1403      2024.8597      2975.1403      2024.8597      2975.1403      8.5813481e+08  0.1            13727580       4.0907835      635.71578      6357.1776      11.764973    
  28031000   98330.246     -114.96227     -36258615       0.70047286     292810.68     -35965804       950.28055      950.28055      950.28055      2024.8597      2975.1403      2024.8597      2975.1403      2024.8597      2975.1403      8.5813481e+08  0.1            13727600       4.1223422      633.7425       6337.4258      11.732826    
  28031200   99813.269     -115.8587      -36273743       0.70047286     297226.87     -35976516       950.28055      950.28055      950.28055      2024.8597      2975.1403      2024.8597      2975.1403      2024.8597      2975.1403      8.5813481e+08  0.1            13727620       4.1538681      634.39833      6343.9886      11.700596    
  28031400   101082.77     -116.39239     -36275629       0.70047286     301007.21     -35974621       950.28055      950.28055      950.28055      2024.8597      2975.1403      2024.8597      2975.1403      2024.8597      2975.1403      8.5813481e+08  0.1            13727640       4.1854136      634.00125      6339.996       11.668432    
  28031600   102094        -116.84589     -36275974       0.70047286     304018.51     -35971956       950.28055      950.28055      950.28055      2024.8597      2975.1403      2024.8597      2975.1403      2024.8597      2975.1403      8.5813481e+08  0.1            13727660       4.2177642      618.22701      6182.287       11.638499    
  28031800   102822.04     -117.30549     -36276304       0.70047286     306186.48     -35970117       950.28055      950.28055      950.28055      2024.8597      2975.1403      2024.8597      2975.1403      2024.8597      2975.1403      8.5813481e+08  0.1            13727680       4.2495204      629.79891      6297.9806      11.606905    
  28032000   103266.07     -117.80624     -36276619       0.70047286     307508.72     -35969110       950.28055      950.28055      950.28055      2024.8597      2975.1403      2024.8597      2975.1403      2024.8597      2975.1403      8.5813481e+08  0.1            13727700       4.2812957      629.42333      6294.2286      11.575361    
  28032200   103449.2      -118.42776     -36276920       0.70047286     308054.05     -35968866       950.28055      950.28055      950.28055      2024.8597      2975.1403      2024.8597      2975.1403      2024.8597      2975.1403      8.5813481e+08  0.1            13727720       4.3132289      626.30481      6263.0345      11.544237    
  28032400   103415.67     -119.19888     -36277573       0.70047286     307954.21     -35969618       950.28055      950.28055      950.28055      2024.8597      2975.1403      2024.8597      2975.1403      2024.8597      2975.1403      8.5813481e+08  0.1            13727740       4.3450773      627.97462      6279.772       11.512875    
  28032600   103228.93     -119.92437     -36279735       0.70047286     307398.13     -35972336       950.28055      950.28055      950.28055      2024.8597      2975.1403      2024.8597      2975.1403      2024.8597      2975.1403      8.5813481e+08  0.1            13727760       4.3767594      631.27322      6312.734       11.48107     
  28032800   102964.13     -120.49407     -36279983       0.70047286     306609.6      -35973373       950.28055      950.28055      950.28055      2024.8597      2975.1403      2024.8597      2975.1403      2024.8597      2975.1403      8.5813481e+08  0.1            13727780       4.4085213      629.67948      6296.7976      11.449475    
  28033000   102702.05     -121.06614     -36280213       0.70047286     305829.18     -35974384       950.28055      950.28055      950.28055      2024.8597      2975.1403      2024.8597      2975.1403      2024.8597      2975.1403      8.5813481e+08  0.1            13727800       4.4403295      628.77457      6287.7311      11.417996    
  28033200   102521.88     -121.40856     -36273049       0.70047286     305292.65     -35967756       950.28055      950.28055      950.28055      2024.8597      2975.1403      2024.8597      2975.1403      2024.8597      2975.1403      8.5813481e+08  0.1            13727820       4.4729927      612.30789      6123.0727      11.388689    
  28033400   102493.68     -121.87447     -36271349       0.70047286     305208.67     -35966140       950.28055      950.28055      950.28055      2024.8597      2975.1403      2024.8597      2975.1403      2024.8597      2975.1403      8.5813481e+08  0.1            13727840       4.504671       631.34659      6313.4843      11.356852    
  28033600   102677.14     -122.52185     -36271528       0.70047286     305754.99     -35965773       950.28055      950.28055      950.28055      2024.8597      2975.1403      2024.8597      2975.1403      2024.8597      2975.1403      8.5813481e+08  0.1            13727860       4.5448758      497.4521       4974.5023      11.346305    
  28033800   103116.04     -123.05315     -36271692       0.70047286     307061.95     -35964631       950.28055      950.28055      950.28055      2024.8597      2975.1403      2024.8597      2975.1403      2024.8597      2975.1403      8.5813481e+08  0.1            13727880       4.5764674      633.0806       6330.8375      11.31405     
  28034000   103835.35     -123.44228     -36269949       0.70047286     309203.95     -35960745       950.28055      950.28055      950.28055      2024.8597      2975.1403      2024.8597      2975.1403      2024.8597      2975.1403      8.5813481e+08  0.1            13727900       4.608142       631.42048      6314.1763      11.282009    
  28034200   104839.75     -123.87146     -36270089       0.70047286     312194.86     -35957894       950.28055      950.28055      950.28055      2024.8597      2975.1403      2024.8597      2975.1403      2024.8597      2975.1403      8.5813481e+08  0.1            13727920       4.6413768      601.77632      6017.7833      11.253755    
  28034400   106109.4      -124.13552     -36270213       0.70047286     315975.66     -35954238       950.28055      950.28055      950.28055      2024.8597      2975.1403      2024.8597      2975.1403      2024.8597      2975.1403      8.5813481e+08  0.1            13727940       4.6736153      620.3797       6203.809       11.223041    
  28034600   107603.56     -124.46406     -36277700       0.70047286     320425.02     -35957275       950.28055      950.28055      950.28055      2024.8597      2975.1403      2024.8597      2975.1403      2024.8597      2975.1403      8.5813481e+08  0.1            13727960       4.7052782      631.6545       6316.5163      11.190937    
  28034800   109263.11     -124.56564     -36277794       0.70047286     325366.88     -35952427       950.28055      950.28055      950.28055      2024.8597      2975.1403      2024.8597      2975.1403      2024.8597      2975.1403      8.5813481e+08  0.1            13727980       4.7369768      630.94377      6309.4578      11.158924    
  28035000   111014.58     -124.57463     -36277873       0.70047286     330582.46     -35947291       950.28055      950.28055      950.28055      2024.8597      2975.1403      2024.8597      2975.1403      2024.8597      2975.1403      8.5813481e+08  0.1            13728000       4.7687622      629.22085      6292.2046      11.127117    
  28035200   112778.03     -124.52378     -36276044       0.70047286     335833.71     -35940210       950.28055      950.28055      950.28055      2024.8597      2975.1403      2024.8597      2975.1403      2024.8597      2975.1403      8.5813481e+08  0.1            13728020       4.8004981      630.19761      6301.9638      11.095196    
  28035400   114472.25     -124.62522     -36277990       0.70047286     340878.81     -35937111       950.28055      950.28055      950.28055      2024.8597      2975.1403      2024.8597      2975.1403      2024.8597      2975.1403      8.5813481e+08  0.1            13728040       4.8321919      631.04125      6310.4328      11.063181    
  28035600   116020.27     -124.75264     -36278023       0.70047286     345488.54     -35932534       950.28055      950.28055      950.28055      2024.8597      2975.1403      2024.8597      2975.1403      2024.8597      2975.1403      8.5813481e+08  0.1            13728060       4.8638954      630.84782      6308.475       11.031192    
  28035800   117357.15     -124.96584     -36278037       0.70047286     349469.56     -35928568       950.28055      950.28055      950.28055      2024.8597      2975.1403      2024.8597      2975.1403      2024.8597      2975.1403      8.5813481e+08  0.1            13728080       4.8962132      618.84732      6188.4589      11.000588    
  28036000   118434.14     -125.00878     -36270655       0.70047286     352676.65     -35917978       950.28055      950.28055      950.28055      2024.8597      2975.1403      2024.8597      2975.1403      2024.8597      2975.1403      8.5813481e+08  0.1            13728100       4.9280054      629.08835      6290.8815      10.968791    
  28036200   119222.65     -125.32379     -36270632       0.70047286     355024.69     -35915607       950.28055      950.28055      950.28055      2024.8597      2975.1403      2024.8597      2975.1403      2024.8597      2975.1403      8.5813481e+08  0.1            13728120       4.9597855      629.32434      6293.2474      10.936968    
  28036400   119717.7      -125.77394     -36270594       0.70047286     356498.88     -35914095       950.28055      950.28055      950.28055      2024.8597      2975.1403      2024.8597      2975.1403      2024.8597      2975.1403      8.5813481e+08  0.1            13728140       4.9921226      618.48555      6184.8574      10.906362    
  28036600   119937.9      -126.14614     -36270541       0.70047286     357154.6      -35913386       950.28055      950.28055      950.28055      2024.8597      2975.1403      2024.8597      2975.1403      2024.8597      2975.1403      8.5813481e+08  0.1            13728160       5.0237491      632.37849      6323.7887      10.874196    
  28036800   119925.06     -126.53133     -36272368       0.70047286     357116.35     -35915251       950.28055      950.28055      950.28055      2024.8597      2975.1403      2024.8597      2975.1403      2024.8597      2975.1403      8.5813481e+08  0.1            13728180       5.0554316      631.26385      6312.6483      10.842157    
  28037000   119740.34     -126.98889     -36279662       0.70047286     356566.27     -35923096       950.28055      950.28055      950.28055      2024.8597      2975.1403      2024.8597      2975.1403      2024.8597      2975.1403      8.5813481e+08  0.1            13728200       5.0873323      626.94887      6269.4653      10.810586    
  28037200   119459.01     -127.28863     -36279563       0.70047286     355728.52     -35923834       950.28055      950.28055      950.28055      2024.8597      2975.1403      2024.8597      2975.1403      2024.8597      2975.1403      8.5813481e+08  0.1            13728220       5.1190002      631.55102      6315.5399      10.778521    
  28037400   119163.34     -127.52709     -36279449       0.70047286     354848.08     -35924601       950.28055      950.28055      950.28055      2024.8597      2975.1403      2024.8597      2975.1403      2024.8597      2975.1403      8.5813481e+08  0.1            13728240       5.1507773      629.38336      6293.813       10.746688    
  28037600   118935.22     -127.60198     -36271945       0.70047286     354168.77     -35917776       950.28055      950.28055      950.28055      2024.8597      2975.1403      2024.8597      2975.1403      2024.8597      2975.1403      8.5813481e+08  0.1            13728260       5.1825057      630.35031      6303.5335      10.714756    
  28037800   118849.91     -128.05455     -36279182       0.70047286     353914.75     -35925267       950.28055      950.28055      950.28055      2024.8597      2975.1403      2024.8597      2975.1403      2024.8597      2975.1403      8.5813481e+08  0.1            13728280       5.2141829      631.37049      6313.682       10.682721    
  28038000   118970.39     -128.33181     -36279026       0.70047286     354273.5      -35924752       950.28055      950.28055      950.28055      2024.8597      2975.1403      2024.8597      2975.1403      2024.8597      2975.1403      8.5813481e+08  0.1            13728300       5.2459537      629.50773      6295.0551      10.650881    
  28038200   119345.76     -128.63465     -36278855       0.70047286     355391.29     -35923464       950.28055      950.28055      950.28055      2024.8597      2975.1403      2024.8597      2975.1403      2024.8597      2975.1403      8.5813481e+08  0.1            13728320       5.2776607      630.77765      6307.8019      10.618912    
  28038400   120005.94     -128.88058     -36278672       0.70047286     357357.2      -35921315       950.28055      950.28055      950.28055      2024.8597      2975.1403      2024.8597      2975.1403      2024.8597      2975.1403      8.5813481e+08  0.1            13728340       5.3093606      630.91469      6309.1495      10.586933    
  28038600   120958.51     -128.98289     -36278475       0.70047286     360193.77     -35918281       950.28055      950.28055      950.28055      2024.8597      2975.1403      2024.8597      2975.1403      2024.8597      2975.1403      8.5813481e+08  0.1            13728360       5.3411207      629.72042      6297.1965      10.555076    
  28038800   122188.22     -129.01932     -36278263       0.70047286     363855.66     -35914407       950.28055      950.28055      950.28055      2024.8597      2975.1403      2024.8597      2975.1403      2024.8597      2975.1403      8.5813481e+08  0.1            13728380       5.3728042      631.24642      6312.4548      10.52307     
  28039000   123657.52     -129.07907     -36278038       0.70047286     368230.97     -35909807       950.28055      950.28055      950.28055      2024.8597      2975.1403      2024.8597      2975.1403      2024.8597      2975.1403      8.5813481e+08  0.1            13728400       5.404591       629.18877      6291.8964      10.491269    
  28039200   125309.04     -128.9221      -36270421       0.70047286     373148.94     -35897273       950.28055      950.28055      950.28055      2024.8597      2975.1403      2024.8597      2975.1403      2024.8597      2975.1403      8.5813481e+08  0.1            13728420       5.4362908      630.92028      6309.2219      10.4593      
  28039400   127068.78     -128.71894     -36264684       0.70047286     378389.14     -35886295       950.28055      950.28055      950.28055      2024.8597      2975.1403      2024.8597      2975.1403      2024.8597      2975.1403      8.5813481e+08  0.1            13728440       5.46975        597.74042      5977.376       10.430691    
  28039600   128854.99     -128.48505     -36264414       0.70047286     383708.16     -35880706       950.28055      950.28055      950.28055      2024.8597      2975.1403      2024.8597      2975.1403      2024.8597      2975.1403      8.5813481e+08  0.1            13728460       5.5015791      628.35818      6283.5794      10.398943    
  28039800   130585.32     -128.39963     -36276990       0.70047286     388860.79     -35888129       950.28055      950.28055      950.28055      2024.8597      2975.1403      2024.8597      2975.1403      2024.8597      2975.1403      8.5813481e+08  0.1            13728480       5.5333247      630.00494      6300.0674      10.367038    
  28040000   132180.56     -127.98849     -36276688       0.70047286     393611.15     -35883077       950.28055      950.28055      950.28055      2024.8597      2975.1403      2024.8597      2975.1403      2024.8597      2975.1403      8.5813481e+08  0.1            13728500       5.5651803      627.83729      6278.3793      10.335339    
  28040200   133572.57     -127.93956     -36283746       0.70047286     397756.3      -35885989       950.28055      950.28055      950.28055      2024.8597      2975.1403      2024.8597      2975.1403      2024.8597      2975.1403      8.5813481e+08  0.1            13728520       5.5969439      629.65324      6296.5175      10.303469    
  28040400   134710.26     -128.0091      -36283411       0.70047286     401144.16     -35882267       950.28055      950.28055      950.28055      2024.8597      2975.1403      2024.8597      2975.1403      2024.8597      2975.1403      8.5813481e+08  0.1            13728540       5.6287238      629.32292      6293.2415      10.27163     
  28040600   135561.69     -127.99016     -36275687       0.70047286     403679.56     -35872007       950.28055      950.28055      950.28055      2024.8597      2975.1403      2024.8597      2975.1403      2024.8597      2975.1403      8.5813481e+08  0.1            13728560       5.66061        627.22616      6272.2416      10.239985    
  28040800   136115.36     -128.03451     -36275324       0.70047286     405328.3      -35869995       950.28055      950.28055      950.28055      2024.8597      2975.1403      2024.8597      2975.1403      2024.8597      2975.1403      8.5813481e+08  0.1            13728580       5.6923686      629.76072      6297.6161      10.208106    
  28041000   136385.26     -127.9841      -36274946       0.70047286     406132.01     -35868814       950.28055      950.28055      950.28055      2024.8597      2975.1403      2024.8597      2975.1403      2024.8597      2975.1403      8.5813481e+08  0.1            13728600       5.7241487      629.32593      6293.2686      10.176268    
  28041200   136410.2      -128.03727     -36274557       0.70047286     406206.29     -35868351       950.28055      950.28055      950.28055      2024.8597      2975.1403      2024.8597      2975.1403      2024.8597      2975.1403      8.5813481e+08  0.1            13728620       5.7559243      629.4099       6294.1105      10.144423    
  28041400   136248.6      -128.21337     -36274160       0.70047286     405725.07     -35868435       950.28055      950.28055      950.28055      2024.8597      2975.1403      2024.8597      2975.1403      2024.8597      2975.1403      8.5813481e+08  0.1            13728640       5.787691       629.59153      6295.8965      10.112563    
  28041600   135972.72     -128.22396     -36266376       0.70047286     404903.55     -35861473       950.28055      950.28055      950.28055      2024.8597      2975.1403      2024.8597      2975.1403      2024.8597      2975.1403      8.5813481e+08  0.1            13728660       5.8194408      629.92305      6299.2261      10.080675    
  28041800   135662.97     -128.31687     -36265956       0.70047286     403981.16     -35861975       950.28055      950.28055      950.28055      2024.8597      2975.1403      2024.8597      2975.1403      2024.8597      2975.1403      8.5813481e+08  0.1            13728680       5.8512898      627.96484      6279.6486      10.048958    
  28042000   135402.15     -128.17338     -36258143       0.70047286     403204.48     -35854939       950.28055      950.28055      950.28055      2024.8597      2975.1403      2024.8597      2975.1403      2024.8597      2975.1403      8.5813481e+08  0.1            13728700       5.883134       628.05809      6280.5918      10.017232    
  28042200   135269.52     -128.1865      -36265073       0.70047286     402809.54     -35862263       950.28055      950.28055      950.28055      2024.8597      2975.1403      2024.8597      2975.1403      2024.8597      2975.1403      8.5813481e+08  0.1            13728720       5.9149552      628.5106       6285.1102      9.9854657    
  28042400   135333.2      -127.98507     -36264613       0.70047286     402999.17     -35861614       950.28055      950.28055      950.28055      2024.8597      2975.1403      2024.8597      2975.1403      2024.8597      2975.1403      8.5813481e+08  0.1            13728740       5.9468954      626.17198      6261.6967      9.9538983    
  28042600   135646.81     -128.16891     -36278899       0.70047286     403933.04     -35874966       950.28055      950.28055      950.28055      2024.8597      2975.1403      2024.8597      2975.1403      2024.8597      2975.1403      8.5813481e+08  0.1            13728760       5.9786891      629.05422      6290.5034      9.9220839    
  28042800   136245.03     -127.87294     -36271043       0.70047286     405714.43     -35865328       950.28055      950.28055      950.28055      2024.8597      2975.1403      2024.8597      2975.1403      2024.8597      2975.1403      8.5813481e+08  0.1            13728780       6.0111265      616.5713       6165.7563      9.8913285    
  28043000   137139.96     -127.74516     -36277932       0.70047286     408379.39     -35869552       950.28055      950.28055      950.28055      2024.8597      2975.1403      2024.8597      2975.1403      2024.8597      2975.1403      8.5813481e+08  0.1            13728800       6.0429491      628.48637      6284.8645      9.8595522    
  28043200   138320.09     -127.45524     -36277431       0.70047286     411893.59     -35865537       950.28055      950.28055      950.28055      2024.8597      2975.1403      2024.8597      2975.1403      2024.8597      2975.1403      8.5813481e+08  0.1            13728820       6.0746684      630.52641      6305.2754      9.8276088    
  28043400   139751.07     -127.26567     -36275022       0.70047286     416154.82     -35858868       950.28055      950.28055      950.28055      2024.8597      2975.1403      2024.8597      2975.1403      2024.8597      2975.1403      8.5813481e+08  0.1            13728840       6.1064035      630.2188       6302.1872      9.7956927    
  28043600   141378.42     -127.26023     -36274499       0.70047286     421000.79     -35853498       950.28055      950.28055      950.28055      2024.8597      2975.1403      2024.8597      2975.1403      2024.8597      2975.1403      8.5813481e+08  0.1            13728860       6.1382343      628.32214      6283.2095      9.7639309    
  28043800   143131.32     -127.15463     -36273967       0.70047286     426220.62     -35847746       950.28055      950.28055      950.28055      2024.8597      2975.1403      2024.8597      2975.1403      2024.8597      2975.1403      8.5813481e+08  0.1            13728880       6.1699951      629.70855      6297.1047      9.7320576    
  28044000   144927.52     -126.85474     -36275318       0.70047286     431569.42     -35843749       950.28055      950.28055      950.28055      2024.8597      2975.1403      2024.8597      2975.1403      2024.8597      2975.1403      8.5813481e+08  0.1            13728900       6.201776       629.30902      6293.0878      9.7002172    
  28044200   146681.8      -126.40552     -36274758       0.70047286     436793.36     -35837965       950.28055      950.28055      950.28055      2024.8597      2975.1403      2024.8597      2975.1403      2024.8597      2975.1403      8.5813481e+08  0.1            13728920       6.2335553      629.34112      6293.4096      9.6683749    
  28044400   148314.64     -126.05315     -36274185       0.70047286     441655.66     -35832529       950.28055      950.28055      950.28055      2024.8597      2975.1403      2024.8597      2975.1403      2024.8597      2975.1403      8.5813481e+08  0.1            13728940       6.2653669      628.7015       6287.0083      9.6365829    
  28044600   149757.27     -125.981       -36288357       0.70047286     445951.57     -35842406       950.28055      950.28055      950.28055      2024.8597      2975.1403      2024.8597      2975.1403      2024.8597      2975.1403      8.5813481e+08  0.1            13728960       6.2975378      621.67315      6216.7287      9.6053394    
  28044800   150953.72     -125.60877     -36287763       0.70047286     449514.4      -35838249       950.28055      950.28055      950.28055      2024.8597      2975.1403      2024.8597      2975.1403      2024.8597      2975.1403      8.5813481e+08  0.1            13728980       6.3298888      618.22589      6182.2594      9.5743578    
  28045000   151867.28     -125.26346     -36287160       0.70047286     452234.84     -35834925       950.28055      950.28055      950.28055      2024.8597      2975.1403      2024.8597      2975.1403      2024.8597      2975.1403      8.5813481e+08  0.1            13729000       6.3617294      628.12508      6281.2567      9.5425977    
  28045200   152483.5      -124.72152     -36279169       0.70047286     454069.83     -35825099       950.28055      950.28055      950.28055      2024.8597      2975.1403      2024.8597      2975.1403      2024.8597      2975.1403      8.5813481e+08  0.1            13729020       6.3935132      629.25742      6292.553       9.5107518    
  28045400   152810.58     -124.27183     -36276651       0.70047286     455043.82     -35821607       950.28055      950.28055      950.28055      2024.8597      2975.1403      2024.8597      2975.1403      2024.8597      2975.1403      8.5813481e+08  0.1            13729040       6.4253683      627.84076      6278.421       9.479012     
  28045600   152880.74     -123.82703     -36263155       0.70047286     455252.75     -35807902       950.28055      950.28055      950.28055      2024.8597      2975.1403      2024.8597      2975.1403      2024.8597      2975.1403      8.5813481e+08  0.1            13729060       6.4572164      627.9814       6279.8178      9.4472607    
  28045800   152748.91     -123.83349     -36262512       0.70047286     454860.17     -35807652       950.28055      950.28055      950.28055      2024.8597      2975.1403      2024.8597      2975.1403      2024.8597      2975.1403      8.5813481e+08  0.1            13729080       6.4898971      611.98055      6119.8123      9.4167167    
  28046000   152486.36     -123.90114     -36261866       0.70047286     454078.34     -35807788       950.28055      950.28055      950.28055      2024.8597      2975.1403      2024.8597      2975.1403      2024.8597      2975.1403      8.5813481e+08  0.1            13729100       6.5216789      629.28928      6292.8625      9.3848586    
  28046200   152172.89     -123.87356     -36261214       0.70047286     453144.89     -35808069       950.28055      950.28055      950.28055      2024.8597      2975.1403      2024.8597      2975.1403      2024.8597      2975.1403      8.5813481e+08  0.1            13729120       6.5543476      612.20651      6122.0936      9.3542664    
  28046400   151891.7      -123.70109     -36260553       0.70047286     452307.54     -35808245       950.28055      950.28055      950.28055      2024.8597      2975.1403      2024.8597      2975.1403      2024.8597      2975.1403      8.5813481e+08  0.1            13729140       6.586106       629.75721      6297.5715      9.3223658    
  28046600   151724.03     -123.68368     -36267265       0.70047286     451808.26     -35815457       950.28055      950.28055      950.28055      2024.8597      2975.1403      2024.8597      2975.1403      2024.8597      2975.1403      8.5813481e+08  0.1            13729160       6.6179012      629.02689      6290.2608      9.2905182    
  28046800   151741.76     -123.54257     -36266596       0.70047286     451861.04     -35814735       950.28055      950.28055      950.28055      2024.8597      2975.1403      2024.8597      2975.1403      2024.8597      2975.1403      8.5813481e+08  0.1            13729180       6.6496481      629.98156      6299.8152      9.2586041    
  28047000   152001.28     -123.304       -36265924       0.70047286     452633.84     -35813290       950.28055      950.28055      950.28055      2024.8597      2975.1403      2024.8597      2975.1403      2024.8597      2975.1403      8.5813481e+08  0.1            13729200       6.6813879      630.12395      6301.2602      9.2266814    
  28047200   152540.77     -122.83002     -36265246       0.70047286     454240.38     -35811006       950.28055      950.28055      950.28055      2024.8597      2975.1403      2024.8597      2975.1403      2024.8597      2975.1403      8.5813481e+08  0.1            13729220       6.713215       628.39396      6283.9131      9.1948806    
  28047400   153375.91     -122.17553     -36264558       0.70047286     456727.27     -35807831       950.28055      950.28055      950.28055      2024.8597      2975.1403      2024.8597      2975.1403      2024.8597      2975.1403      8.5813481e+08  0.1            13729240       6.7449748      629.72352      6297.2449      9.162988     
  28047600   154500.96     -121.54408     -36256853       0.70047286     460077.48     -35796776       950.28055      950.28055      950.28055      2024.8597      2975.1403      2024.8597      2975.1403      2024.8597      2975.1403      8.5813481e+08  0.1            13729260       6.776704       630.33933      6303.4018      9.1310547    
  28047800   155886.32     -121.1464      -36256151       0.70047286     464202.84     -35791948       950.28055      950.28055      950.28055      2024.8597      2975.1403      2024.8597      2975.1403      2024.8597      2975.1403      8.5813481e+08  0.1            13729280       6.8084687      629.62763      6296.2461      9.0991716    
  28048000   157479.8      -120.75643     -36257335       0.70047286     468947.95     -35788387       950.28055      950.28055      950.28055      2024.8597      2975.1403      2024.8597      2975.1403      2024.8597      2975.1403      8.5813481e+08  0.1            13729300       6.8403251      627.81966      6278.2222      9.0674106    
  28048200   159212.34     -120.13843     -36256616       0.70047286     474107.17     -35782509       950.28055      950.28055      950.28055      2024.8597      2975.1403      2024.8597      2975.1403      2024.8597      2975.1403      8.5813481e+08  0.1            13729320       6.872073       629.96132      6299.609       9.0355064    
  28048400   161003.77     -119.63315     -36263264       0.70047286     479441.75     -35783822       950.28055      950.28055      950.28055      2024.8597      2975.1403      2024.8597      2975.1403      2024.8597      2975.1403      8.5813481e+08  0.1            13729340       6.90382        629.98108      6299.814       9.0036023    
  28048600   162771.06     -119.07121     -36269904       0.70047286     484704.41     -35785200       950.28055      950.28055      950.28055      2024.8597      2975.1403      2024.8597      2975.1403      2024.8597      2975.1403      8.5813481e+08  0.1            13729360       6.9356114      629.10119      6291.0162      8.971757     
  28048800   164432.32     -118.30181     -36269158       0.70047286     489651.36     -35779506       950.28055      950.28055      950.28055      2024.8597      2975.1403      2024.8597      2975.1403      2024.8597      2975.1403      8.5813481e+08  0.1            13729380       6.9674525      628.11806      6281.1743      8.9399763    
  28049000   165915.62     -117.33324     -36253647       0.70047286     494068.39     -35759579       950.28055      950.28055      950.28055      2024.8597      2975.1403      2024.8597      2975.1403      2024.8597      2975.1403      8.5813481e+08  0.1            13729400       6.99938        626.41982      6264.1931      8.9083047    
  28049200   167163.29     -116.77328     -36252887       0.70047286     497783.72     -35755103       950.28055      950.28055      950.28055      2024.8597      2975.1403      2024.8597      2975.1403      2024.8597      2975.1403      8.5813481e+08  0.1            13729420       7.0318028      616.84852      6168.4803      8.8772563    
  28049400   168134.24     -116.14789     -36252118       0.70047286     500675.05     -35751443       950.28055      950.28055      950.28055      2024.8597      2975.1403      2024.8597      2975.1403      2024.8597      2975.1403      8.5813481e+08  0.1            13729440       7.0635137      630.70005      6307.0264      8.8453037    
  28049600   168809.41     -115.60526     -36251340       0.70047286     502685.58     -35748655       950.28055      950.28055      950.28055      2024.8597      2975.1403      2024.8597      2975.1403      2024.8597      2975.1403      8.5813481e+08  0.1            13729460       7.0952507      630.17424      6301.7186      8.8133863    
  28049800   169194.41     -115.30886     -36250560       0.70047286     503832.07     -35746728       950.28055      950.28055      950.28055      2024.8597      2975.1403      2024.8597      2975.1403      2024.8597      2975.1403      8.5813481e+08  0.1            13729480       7.1269908      630.12302      6301.2479      8.7814735    
[...]
  28694400   309.63206      1.9019826     -36240456       0.73434604     922.0314      -36239534       935.43875      935.43875      935.43875      2032.2806      2967.7194      2032.2806      2967.7194      2032.2806      2967.7194      8.1855162e+08  0.1            13793940       54.79748       531.26707      5312.6707      2.0070951    
  28694600   309.63798      1.9474772     -36240574       0.73435418     922.04904     -36239652       935.4353       935.4353       935.4353       2032.2824      2967.7176      2032.2824      2967.7176      2032.2824      2967.7176      8.1854256e+08  0.1            13793960       54.835113      531.44987      5314.4965      1.9692169    
  28694800   309.61696      1.9328615     -36240692       0.73436        921.98645     -36239770       935.43283      935.43283      935.43283      2032.2836      2967.7164      2032.2836      2967.7164      2032.2836      2967.7164      8.1853606e+08  0.1            13793980       54.872731      531.65732      5316.564       1.9313385    
  28695000   309.46612      1.8316553     -36240810       0.73436251     921.53726     -36239889       935.43176      935.43176      935.43176      2032.2841      2967.7159      2032.2841      2967.7159      2032.2841      2967.7159      8.1853327e+08  0.1            13794000       54.910394      531.02712      5310.284       1.8934619    
  28695200   309.54933      1.6357055     -36240928       0.73436135     921.78504     -36240006       935.43225      935.43225      935.43225      2032.2839      2967.7161      2032.2839      2967.7161      2032.2839      2967.7161      8.1853456e+08  0.1            13794020       54.948031      531.3925       5313.9246      1.8555849    
  28695400   309.61087      1.3613276     -36241046       0.73435718     921.96829     -36240124       935.43402      935.43402      935.43402      2032.283       2967.717       2032.283       2967.717       2032.283       2967.717       8.1853921e+08  0.1            13794040       54.985643      531.7443       5317.4442      1.8177073    
  28695600   309.6126       1.041697      -36241164       0.73435127     921.97346     -36240242       935.43653      935.43653      935.43653      2032.2817      2967.7183      2032.2817      2967.7183      2032.2817      2967.7183      8.1854579e+08  0.1            13794060       55.023275      531.4676       5314.6521      1.7798307    
  28695800   309.58789      0.71213587    -36241282       0.73434498     921.89986     -36240360       935.4392       935.4392       935.4392       2032.2804      2967.7196      2032.2804      2967.7196      2032.2804      2967.7196      8.1855281e+08  0.1            13794080       55.060933      531.09734      5311.0043      1.7419553    
  28696000   309.43451      0.40439362    -36241400       0.73433952     921.44312     -36240479       935.44152      935.44152      935.44152      2032.2792      2967.7208      2032.2792      2967.7208      2032.2792      2967.7208      8.185589e+08   0.1            13794100       55.098626      530.60077      5306.0013      1.7040813    
  28696200   309.51694      0.1480859     -36241518       0.73433599     921.6886      -36240596       935.44302      935.44302      935.44302      2032.2785      2967.7215      2032.2785      2967.7215      2032.2785      2967.7215      8.1856283e+08  0.1            13794120       55.136237      531.74893      5317.4835      1.6662051    
  28696400   309.57946     -0.024567756   -36241635       0.73433566     921.87477     -36240713       935.44316      935.44316      935.44316      2032.2784      2967.7216      2032.2784      2967.7216      2032.2784      2967.7216      8.185632e+08   0.1            13794140       55.173848      531.76579      5317.6583      1.6283291    
  28696600   309.58368     -0.078000012   -36241753       0.73433987     921.88734     -36240831       935.44137      935.44137      935.44137      2032.2793      2967.7207      2032.2793      2967.7207      2032.2793      2967.7207      8.185585e+08   0.1            13794160       55.211552      530.44104      5304.4197      1.5904563    
  28696800   309.56312      0.020448042   -36241870       0.73434987     921.82611     -36240949       935.43713      935.43713      935.43713      2032.2814      2967.7186      2032.2814      2967.7186      2032.2814      2967.7186      8.1854736e+08  0.1            13794180       55.249144      532.0396       5320.3975      1.5525805    
  28697000   309.41531      0.28705334    -36241988       0.73436626     921.38596     -36241067       935.43017      935.43017      935.43017      2032.2849      2967.7151      2032.2849      2967.7151      2032.2849      2967.7151      8.1852908e+08  0.1            13794200       55.286784      531.3397       5313.3891      1.5147065    
  28697200   309.50489      0.69884042    -36242105       0.73438815     921.6527      -36241184       935.42088      935.42088      935.42088      2032.2896      2967.7104      2032.2896      2967.7104      2032.2896      2967.7104      8.1850469e+08  0.1            13794220       55.324451      530.96977      5309.6865      1.4768335    
  28697400   309.5743       1.1675524     -36242222       0.73441216     921.8594      -36241300       935.41068      935.41068      935.41068      2032.2947      2967.7053      2032.2947      2967.7053      2032.2947      2967.7053      8.1847793e+08  0.1            13794240       55.362074      531.60074      5316.0188      1.4389596    
  28697600   309.5827       1.5327765     -36242339       0.73443218     921.88443     -36241418       935.40218      935.40218      935.40218      2032.2989      2967.7011      2032.2989      2967.7011      2032.2989      2967.7011      8.1845562e+08  0.1            13794260       55.399687      531.73024      5317.2996      1.4010858    
  28697800   309.5615       1.608842      -36242457       0.73444113     921.82128     -36241535       935.39838      935.39838      935.39838      2032.3008      2967.6992      2032.3008      2967.6992      2032.3008      2967.6992      8.1844564e+08  0.1            13794280       55.437307      531.6308       5316.3075      1.3632125    
  28698000   309.40692      1.3070427     -36242574       0.73443565     921.36098     -36241653       935.40071      935.40071      935.40071      2032.2996      2967.7004      2032.2996      2967.7004      2032.2996      2967.7004      8.1845175e+08  0.1            13794300       55.474955      531.22536      5312.2615      1.3253403    
  28698200   309.48647      0.78134009    -36242692       0.73442161     921.59786     -36241770       935.40667      935.40667      935.40667      2032.2967      2967.7033      2032.2967      2967.7033      2032.2967      2967.7033      8.184674e+08   0.1            13794320       55.513361      520.7545       5207.5454      1.2874859    
  28698400   309.54713      0.43906715    -36242809       0.73441454     921.7785      -36241887       935.40967      935.40967      935.40967      2032.2952      2967.7048      2032.2952      2967.7048      2032.2952      2967.7048      8.1847527e+08  0.1            13794340       55.550972      531.75541      5317.5462      1.2496129    
  28698600   309.5534       0.65235107    -36242926       0.7344286      921.79717     -36242004       935.4037       935.4037       935.4037       2032.2981      2967.7019      2032.2981      2967.7019      2032.2981      2967.7019      8.1845961e+08  0.1            13794360       55.588571      531.93978      5319.3984      1.21174      
  28698800   309.53759      1.2860569     -36243043       0.7344586      921.7501      -36242121       935.39096      935.39096      935.39096      2032.3045      2967.6955      2032.3045      2967.6955      2032.3045      2967.6955      8.1842617e+08  0.1            13794380       55.626189      531.65527      5316.5424      1.1738679    
  28699000   309.38899      1.6054692     -36243160       0.73447661     921.30758     -36242238       935.38332      935.38332      935.38332      2032.3083      2967.6917      2032.3083      2967.6917      2032.3083      2967.6917      8.184061e+08   0.1            13794400       55.664857      517.22127      5172.2246      1.1360175    
  28699200   309.46858      1.0668562     -36243277       0.73446198     921.54457     -36242355       935.38953      935.38953      935.38953      2032.3052      2967.6948      2032.3052      2967.6948      2032.3052      2967.6948      8.1842241e+08  0.1            13794420       55.702453      531.96847      5319.6829      1.098145     
  28699400   309.52512      0.32780309    -36243394       0.73443975     921.71296     -36242472       935.39897      935.39897      935.39897      2032.3005      2967.6995      2032.3005      2967.6995      2032.3005      2967.6995      8.1844719e+08  0.1            13794440       55.740038      532.13365      5321.3376      1.0602725    
  28699600   309.53238      0.66926633    -36243511       0.73445851     921.73458     -36242589       935.391        935.391        935.391        2032.3045      2967.6955      2032.3045      2967.6955      2032.3045      2967.6955      8.1842628e+08  0.1            13794460       55.777637      531.92187      5319.2034      1.0224007    
  28699800   309.52093      1.7511623     -36243627       0.73450531     921.70048     -36242705       935.37114      935.37114      935.37114      2032.3144      2967.6856      2032.3144      2967.6856      2032.3144      2967.6856      8.1837413e+08  0.1            13794480       55.815246      531.80085      5318.028       0.98452948   
  28700000   309.36563      1.4902685     -36243744       0.73450117     921.23802     -36242823       935.37289      935.37289      935.37289      2032.3136      2967.6864      2032.3136      2967.6864      2032.3136      2967.6864      8.1837875e+08  0.1            13794500       55.852978      530.05096      5300.5109      0.94666068   
  28700200   309.4352       0.0066008501  -36243861       0.73445068     921.44519     -36242940       935.39433      935.39433      935.39433      2032.3028      2967.6972      2032.3028      2967.6972      2032.3028      2967.6972      8.18435e+08    0.1            13794520       55.890573      531.98862      5319.8721      0.90878984   
  28700400   309.50518      0.52471274    -36243978       0.73447602     921.65356     -36243056       935.38357      935.38357      935.38357      2032.3082      2967.6918      2032.3082      2967.6918      2032.3082      2967.6918      8.1840677e+08  0.1            13794540       55.928141      532.36674      5323.6797      0.87091895   
  28700600   309.52953      2.4761848     -36244093       0.7345556      921.72608     -36243171       935.34979      935.34979      935.34979      2032.3251      2967.6749      2032.3251      2967.6749      2032.3251      2967.6749      8.1831811e+08  0.1            13794560       55.965722      532.18471      5321.8433      0.83304867   
  28700800   309.4909       1.0212996     -36244211       0.7345062      921.61105     -36243289       935.37076      935.37076      935.37076      2032.3146      2967.6854      2032.3146      2967.6854      2032.3146      2967.6854      8.1837314e+08  0.1            13794580       56.003344      531.60078      5316.0135      0.79517936   
  28701000   309.31607     -1.0041421     -36244327       0.7344353      921.09044     -36243406       935.40086      935.40086      935.40086      2032.2996      2967.7004      2032.2996      2967.7004      2032.2996      2967.7004      8.1845214e+08  0.1            13794600       56.040971      531.53903      5315.3849      0.75731045   
  28701200   309.43579      2.221062      -36244442       0.73456291     921.44694     -36243521       935.34669      935.34669      935.34669      2032.3267      2967.6733      2032.3267      2967.6733      2032.3267      2967.6733      8.1830996e+08  0.1            13794620       56.078526      532.54318      5325.4314      0.71944095   
  28701400   309.50654      2.7230207     -36244558       0.73458753     921.65763     -36243636       935.33624      935.33624      935.33624      2032.3319      2967.6681      2032.3319      2967.6681      2032.3319      2967.6681      8.1828253e+08  0.1            13794640       56.116155      531.50805      5315.0845      0.68157276   
  28701600   309.46192     -1.7777487     -36244675       0.73442313     921.52475     -36243754       935.40602      935.40602      935.40602      2032.297       2967.703       2032.297       2967.703       2032.297       2967.703       8.1846571e+08  0.1            13794660       56.153733      532.22038      5322.2         0.64370432   
  28701800   309.46988      1.2375615     -36244792       0.73454267     921.54845     -36243870       935.35528      935.35528      935.35528      2032.3224      2967.6776      2032.3224      2967.6776      2032.3224      2967.6776      8.1833251e+08  0.1            13794680       56.191271      532.80256      5328.0185      0.60583583   
  28702000   309.3432       3.6721582     -36244905       0.73464035     921.17122     -36243984       935.31382      935.31382      935.31382      2032.3431      2967.6569      2032.3431      2967.6569      2032.3431      2967.6569      8.182237e+08   0.1            13794700       56.228915      531.29248      5312.9325      0.56796886   
  28702200   309.37586     -1.3486248     -36245024       0.73445636     921.26847     -36244103       935.39192      935.39192      935.39192      2032.304       2967.696       2032.304       2967.696       2032.304       2967.696       8.1842868e+08  0.1            13794720       56.26651       531.97672      5319.7715      0.53010174   
  28702400   309.44365     -1.1232923     -36245140       0.73447053     921.47036     -36244219       935.3859       935.3859       935.3859       2032.307       2967.693       2032.307       2967.693       2032.307       2967.693       8.1841289e+08  0.1            13794740       56.304098      532.09058      5320.8997      0.49223491   
  28702600   309.46946      0.97663082    -36245256       0.73455544     921.54719     -36244335       935.34986      935.34986      935.34986      2032.3251      2967.6749      2032.3251      2967.6749      2032.3251      2967.6749      8.1831828e+08  0.1            13794760       56.341815      530.25848      5302.5733      0.4543695    
  28702800   309.45326      1.6711863     -36245372       0.73458735     921.49897     -36244450       935.33631      935.33631      935.33631      2032.3318      2967.6682      2032.3318      2967.6682      2032.3318      2967.6682      8.1828274e+08  0.1            13794780       56.379397      532.16749      5321.6883      0.41650329   
  28703000   309.29309      0.98646044    -36245488       0.73456719     921.02202     -36244567       935.34487      935.34487      935.34487      2032.3276      2967.6724      2032.3276      2967.6724      2032.3276      2967.6724      8.1830519e+08  0.1            13794800       56.417039      531.3246       5313.2597      0.37863786   
  28703200   309.36499     -0.32931758    -36243709       0.73452063     921.23612     -36242788       935.36463      935.36463      935.36463      2032.3177      2967.6823      2032.3177      2967.6823      2032.3177      2967.6823      8.1835707e+08  0.1            13794820       56.454588      532.64696      5326.4554      0.34077217   
  28703400   309.43641      0.1608564     -36243825       0.73454483     921.44878     -36242904       935.35436      935.35436      935.35436      2032.3228      2967.6772      2032.3228      2967.6772      2032.3228      2967.6772      8.1833011e+08  0.1            13794840       56.492122      532.84865      5328.4782      0.30290683   
  28703600   309.46071      2.0306103     -36245834       0.73462374     921.52115     -36244913       935.32087      935.32087      935.32087      2032.3396      2967.6604      2032.3396      2967.6604      2032.3396      2967.6604      8.182422e+08   0.1            13794860       56.530342      523.28462      5232.851       0.26504515   
  28703800   309.4393       2.1849686     -36245950       0.73463532     921.45738     -36245028       935.31596      935.31596      935.31596      2032.342       2967.658       2032.342       2967.658       2032.342       2967.658       8.1822931e+08  0.1            13794880       56.567905      532.43729      5324.3777      0.22718035   
  28704000   309.26815      0.43572947    -36244172       0.73457242     920.94775     -36243251       935.34265      935.34265      935.34265      2032.3287      2967.6713      2032.3287      2967.6713      2032.3287      2967.6713      8.1829936e+08  0.1            13794900       56.605543      531.37466      5313.7447      0.18931621   
  28704200   309.35528      0.54727338    -36244287       0.73458239     921.20721     -36243366       935.33842      935.33842      935.33842      2032.3308      2967.6692      2032.3308      2967.6692      2032.3308      2967.6692      8.1828826e+08  0.1            13794920       56.643108      532.4128       5324.126       0.15145217   
  28704400   309.43479      1.8497812     -36244402       0.73463734     921.44398     -36243481       935.3151       935.3151       935.3151       2032.3425      2967.6575      2032.3425      2967.6575      2032.3425      2967.6575      8.1822705e+08  0.1            13794940       56.681607      519.48852      5194.8899      0.1135904    
  28704600   309.42492      0.5908276     -36244518       0.73459561     921.41456     -36243597       935.33281      935.33281      935.33281      2032.3336      2967.6664      2032.3336      2967.6664      2032.3336      2967.6664      8.1827353e+08  0.1            13794960       56.71927       531.02878      5310.2829      0.075726666  
  28704800   309.40212      0.66788849    -36244634       0.73460434     921.34669     -36243712       935.3291       935.3291       935.3291       2032.3354      2967.6646      2032.3354      2967.6646      2032.3354      2967.6646      8.1826381e+08  0.1            13794980       56.757027      529.70269      5297.0278      0.037863262  
  28705000   309.26015      1.6563813     -36244748       0.73464751     920.92391     -36243828       935.31078      935.31078      935.31078      2032.3446      2967.6554      2032.3446      2967.6554      2032.3446      2967.6554      8.1821572e+08  0.1            13795000       56.794646      531.65151      5316.5209      0            
Loop time of 56.7947 on 1 procs for 300000 steps with 1000 atoms

Performance: 45.638 ns/day, 0.526 hours/ns, 5282.187 timesteps/s
99.6% CPU use with 1 MPI tasks x 1 OpenMP threads

MPI task timing breakdown:
Section |  min time  |  avg time  |  max time  |%varavg| %total
---------------------------------------------------------------
Pair    | 41.872     | 41.872     | 41.872     |   0.0 | 73.72
Neigh   | 0.026776   | 0.026776   | 0.026776   |   0.0 |  0.05
Comm    | 1.7804     | 1.7804     | 1.7804     |   0.0 |  3.13
Output  | 0.051648   | 0.051648   | 0.051648   |   0.0 |  0.09
Modify  | 11.605     | 11.605     | 11.605     |   0.0 | 20.43
Other   |            | 1.459      |            |       |  2.57

Nlocal:           1000 ave        1000 max        1000 min
Histogram: 1 0 0 0 0 0 0 0 0 0
Nghost:           1174 ave        1174 max        1174 min
Histogram: 1 0 0 0 0 0 0 0 0 0
Neighs:           4896 ave        4896 max        4896 min
Histogram: 1 0 0 0 0 0 0 0 0 0

Total # of neighbors = 4896
Ave neighs/atom = 4.896
Neighbor list builds = 43
Dangerous builds = 23

# run_style
run_style verlet

# write restart
write_restart ${write_res}
write_restart ./pgnpmf/37/equpmf41.res
System init for write_restart ...
Generated 0 of 1 mixed pair_coeff terms from geometric mixing rule

Total wall time: 0:02:01
