LAMMPS (23 Jun 2022 - Update 1)
OMP_NUM_THREADS environment is not set. Defaulting to 1 thread. (src/comm.cpp:98)
  using 1 OpenMP thread(s) per MPI task
# Read restart
read_restart ${read_res}
read_restart ./pgnpmf/37/equpmf68.res
Reading restart file ...
  restart file = 23 Jun 2022, LAMMPS = 23 Jun 2022
  restoring atom style atomic from restart
  orthogonal box = (2143.1021 2143.1021 2143.1021) to (2856.8979 2856.8979 2856.8979)
  1 by 1 by 1 MPI processor grid
  restoring pair style table from restart
  1000 atoms
  read_restart CPU = 0.004 seconds

# Settings

pair_style table spline 9941

pair_coeff 1 1 ./pgnpmf/N20.txt DE_GNP 75.6
pair_coeff 2 2 ./pgnpmf/N100.txt DE_GNP 115.92
WARNING: 3 of 9941 force values in table DE_GNP are inconsistent with -dE/dr.
WARNING:  Should only be flagged at inflection points (src/pair_table.cpp:463)
pair_coeff 1 2 ./pgnpmf/mixed_potential.txt DE_GNP 95.66
WARNING: 1562 of 9941 force values in table DE_GNP are inconsistent with -dE/dr.
WARNING:  Should only be flagged at inflection points (src/pair_table.cpp:463)

#Neigh_list Calc Frequency

neigh_modify delay 0 every 1 check yes

# Saving Frequency (50 frames)

variable ts_save equal ${steps_equ}
variable ts_save equal 5000

# Dump
#dump 1 all custom ${ts_save} ./pgnpmf/${folder}/equilibration/trajectory/trajectory_${usic}_${trial}.equ.custom type x y z ix iy iz
#dump_modify 1 first no sort id
#dump 2 all cfg 50000 ./equilibration/trajectory/ovito/dumpgen.tens_*.cfg mass type xs ys zs fx fy fz

# thermo_style
thermo_style custom step temp press pe density ke etotal lx ly lz xlo xhi ylo yhi zlo zhi vol dt time cpu tpcpu spcpu cpuremain

# run info
timestep ${ts}
timestep 0.1
thermo 200

# fix

fix 1 all momentum 1000 linear 1 1 1 angular
variable T equal ${temp}
variable T equal 300
fix 2 all nvt temp ${T} 370000 100.0
fix 2 all nvt temp 300 370000 100.0

run 100000
Generated 0 of 1 mixed pair_coeff terms from geometric mixing rule
Unused restart file global fix info:
  fix style: npt, fix ID: 5
Neighbor list info ...
  update every 1 steps, delay 0 steps, check yes
  max neighbors/atom: 2000, page size: 100000
  master list distance cutoff = 117.92
  ghost atom cutoff = 117.92
  binsize = 58.96, bins = 13 13 13
  1 neighbor lists, perpetual/occasional/extra = 1 0 0
  (1) pair table, perpetual
      attributes: half, newton on
      pair build: half/bin/atomonly/newton
      stencil: half/bin/3d
      bin: standard
Per MPI rank memory allocation (min/avg/max) = 3.114 | 3.114 | 3.114 Mbytes
   Step          Temp          Press          PotEng        Density         KinEng         TotEng           Lx             Ly             Lz            Xlo            Xhi            Ylo            Yhi            Zlo            Zhi           Volume           Dt            Time           CPU           T/CPU          S/CPU         CPULeft    
  47605000   305.52131     -1.2655569     -42977650       1.6528179      909.79029     -42976740       713.79573      713.79573      713.79573      2143.1021      2856.8979      2143.1021      2856.8979      2143.1021      2856.8979      3.6368202e+08  0.1            15685000       0              0              0              0            
  47605200   333.57434     -1.3246839     -42977720       1.6528179      993.32744     -42976726       713.79573      713.79573      713.79573      2143.1021      2856.8979      2143.1021      2856.8979      2143.1021      2856.8979      3.6368202e+08  0.1            15685020       0.040398273    495.06034      4950.4953      20.159997    
  47605400   375.23878     -1.3790471     -42977792       1.6528179      1117.397      -42976675       713.79573      713.79573      713.79573      2143.1021      2856.8979      2143.1021      2856.8979      2143.1021      2856.8979      3.6368202e+08  0.1            15685040       0.080841979    494.51516      4945.155       20.130263    
  47605600   420.4015      -1.4327428     -42977870       1.6528179      1251.8839     -42976618       713.79573      713.79573      713.79573      2143.1021      2856.8979      2143.1021      2856.8979      2143.1021      2856.8979      3.6368202e+08  0.1            15685060       0.12122646     495.24141      4952.4171      20.083562    
  47605800   475.17342     -1.483594      -42977952       1.6528179      1414.9853     -42976537       713.79573      713.79573      713.79573      2143.1021      2856.8979      2143.1021      2856.8979      2143.1021      2856.8979      3.6368202e+08  0.1            15685080       0.16162748     495.03759      4950.3714      20.042085    
  47606000   539.08919     -1.5322532     -42978039       1.6528179      1605.3155     -42976433       713.79573      713.79573      713.79573      2143.1021      2856.8979      2143.1021      2856.8979      2143.1021      2856.8979      3.6368202e+08  0.1            15685100       0.202006       495.31229      4953.1214      19.998823    
  47606200   612.49498     -1.5793384     -42978131       1.6528179      1823.9055     -42976308       713.79573      713.79573      713.79573      2143.1021      2856.8979      2143.1021      2856.8979      2143.1021      2856.8979      3.6368202e+08  0.1            15685120       0.24240638     495.04519      4950.4335      19.958324    
  47606400   696.40069     -1.62505       -42978230       1.6528179      2073.7623     -42976156       713.79573      713.79573      713.79573      2143.1021      2856.8979      2143.1021      2856.8979      2143.1021      2856.8979      3.6368202e+08  0.1            15685140       0.28278555     495.30379      4953.0562      19.916346    
  47606600   791.95837     -1.6700068     -42978335       1.6528179      2358.3168     -42975977       713.79573      713.79573      713.79573      2143.1021      2856.8979      2143.1021      2856.8979      2143.1021      2856.8979      3.6368202e+08  0.1            15685160       0.32316368     495.31929      4953.1899      19.874703    
  47606800   900.51752     -1.714506      -42978447       1.6528179      2681.5874     -42975766       713.79573      713.79573      713.79573      2143.1021      2856.8979      2143.1021      2856.8979      2143.1021      2856.8979      3.6368202e+08  0.1            15685180       0.36355067     495.20854      4952.0871      19.833832    
  47607000   1023.5122     -1.603105      -42976672       1.6528179      3047.8446     -42973624       713.79573      713.79573      713.79573      2143.1021      2856.8979      2143.1021      2856.8979      2143.1021      2856.8979      3.6368202e+08  0.1            15685200       0.40399383     494.52215      4945.2187      19.795805    
  47607200   1162.8439     -1.6475774     -42976799       1.6528179      3462.7505     -42973336       713.79573      713.79573      713.79573      2143.1021      2856.8979      2143.1021      2856.8979      2143.1021      2856.8979      3.6368202e+08  0.1            15685220       0.44437886     495.23324      4952.3346      19.754756    
  47607400   1320.3891     -1.6929158     -42976934       1.6528179      3931.8933     -42973002       713.79573      713.79573      713.79573      2143.1021      2856.8979      2143.1021      2856.8979      2143.1021      2856.8979      3.6368202e+08  0.1            15685240       0.48478485     494.97501      4949.7496      19.714675    
  47607600   1498.3158     -1.7390125     -42977078       1.6528179      4461.7287     -42972616       713.79573      713.79573      713.79573      2143.1021      2856.8979      2143.1021      2856.8979      2143.1021      2856.8979      3.6368202e+08  0.1            15685260       0.52541782     492.21141      4922.1282      19.68304     
  47607800   1699.033      -1.7864887     -42977231       1.6528179      5059.4301     -42972172       713.79573      713.79573      713.79573      2143.1021      2856.8979      2143.1021      2856.8979      2143.1021      2856.8979      3.6368202e+08  0.1            15685280       0.56592626     493.7242       4937.2217      19.645806    
  47608000   1925.0961     -1.8374531     -42977394       1.6528179      5732.6074     -42971662       713.79573      713.79573      713.79573      2143.1021      2856.8979      2143.1021      2856.8979      2143.1021      2856.8979      3.6368202e+08  0.1            15685300       0.60634254     494.85087      4948.5152      19.605146    
  47608200   2179.6183     -1.8934319     -42977567       1.6528179      6490.5312     -42971077       713.79573      713.79573      713.79573      2143.1021      2856.8979      2143.1021      2856.8979      2143.1021      2856.8979      3.6368202e+08  0.1            15685320       0.64881528     470.8861       4708.8616      19.626743    
  47608400   2465.7675     -1.9561127     -42977751       1.6528179      7342.6347     -42970409       713.79573      713.79573      713.79573      2143.1021      2856.8979      2143.1021      2856.8979      2143.1021      2856.8979      3.6368202e+08  0.1            15685340       0.68915656     495.77219      4957.7128      19.580225    
  47608600   2787.0795     -2.0274906     -42977947       1.6528179      8299.4467     -42969647       713.79573      713.79573      713.79573      2143.1021      2856.8979      2143.1021      2856.8979      2143.1021      2856.8979      3.6368202e+08  0.1            15685360       0.72949591     495.79525      4957.9574      19.534341    
  47608800   3147.4033     -2.109843      -42978154       1.6528179      9372.4294     -42968782       713.79573      713.79573      713.79573      2143.1021      2856.8979      2143.1021      2856.8979      2143.1021      2856.8979      3.6368202e+08  0.1            15685380       0.76994218     494.48337      4944.8358      19.491751    
  47609000   3550.7917     -2.2043866     -42978374       1.6528179      10573.651     -42967801       713.79573      713.79573      713.79573      2143.1021      2856.8979      2143.1021      2856.8979      2143.1021      2856.8979      3.6368202e+08  0.1            15685400       0.81046317     493.57127      4935.7148      19.45117     
  47609200   4001.8989     -2.3100208     -42978607       1.6528179      11916.972     -42966690       713.79573      713.79573      713.79573      2143.1021      2856.8979      2143.1021      2856.8979      2143.1021      2856.8979      3.6368202e+08  0.1            15685420       0.85092082     494.34437      4943.4395      19.409151    
  47609400   4505.4705     -2.7999504     -42986232       1.6528179      13416.522     -42972816       713.79573      713.79573      713.79573      2143.1021      2856.8979      2143.1021      2856.8979      2143.1021      2856.8979      3.6368202e+08  0.1            15685440       0.89176012     489.72447      4897.2533      19.375563    
  47609600   5066.5867     -2.9425874     -42986494       1.6528179      15087.43      -42971407       713.79573      713.79573      713.79573      2143.1021      2856.8979      2143.1021      2856.8979      2143.1021      2856.8979      3.6368202e+08  0.1            15685460       0.93222888     494.20884      4942.0923      19.333661    
  47609800   5690.518      -3.1202599     -42986771       1.6528179      16945.391     -42969826       713.79573      713.79573      713.79573      2143.1021      2856.8979      2143.1021      2856.8979      2143.1021      2856.8979      3.6368202e+08  0.1            15685480       0.97271265     494.02511      4940.2414      19.292178    
  47610000   6382.6989     -2.9861944     -42979686       1.6528179      19006.587     -42960680       713.79573      713.79573      713.79573      2143.1021      2856.8979      2143.1021      2856.8979      2143.1021      2856.8979      3.6368202e+08  0.1            15685500       1.0131984      494.00143      4940.0129      19.250811    
  47610200   7148.9709     -2.928626      -42972618       1.6528179      21288.414     -42951330       713.79573      713.79573      713.79573      2143.1021      2856.8979      2143.1021      2856.8979      2143.1021      2856.8979      3.6368202e+08  0.1            15685520       1.053671       494.16076      4941.6208      19.209271    
  47610400   7994.925      -3.4335874     -42973315       1.6528179      23807.521     -42949507       713.79573      713.79573      713.79573      2143.1021      2856.8979      2143.1021      2856.8979      2143.1021      2856.8979      3.6368202e+08  0.1            15685540       1.0940551      495.24421      4952.4407      19.166262    
  47610600   8925.8607     -3.8811469     -42973661       1.6528179      26579.689     -42947082       713.79573      713.79573      713.79573      2143.1021      2856.8979      2143.1021      2856.8979      2143.1021      2856.8979      3.6368202e+08  0.1            15685560       1.1344129      495.56822      4955.6708      19.122997    
  47610800   9946.7185     -4.3537411     -42974027       1.6528179      29619.629     -42944407       713.79573      713.79573      713.79573      2143.1021      2856.8979      2143.1021      2856.8979      2143.1021      2856.8979      3.6368202e+08  0.1            15685580       1.1748031      495.16697      4951.6745      19.080461    
  47611000   11061.688     -4.824138      -42974411       1.6528179      32939.819     -42941471       713.79573      713.79573      713.79573      2143.1021      2856.8979      2143.1021      2856.8979      2143.1021      2856.8979      3.6368202e+08  0.1            15685600       1.215184       495.28669      4952.8717      19.037915    
  47611200   12274.308     -5.2707874     -42974815       1.6528179      36550.794     -42938264       713.79573      713.79573      713.79573      2143.1021      2856.8979      2143.1021      2856.8979      2143.1021      2856.8979      3.6368202e+08  0.1            15685620       1.2555861      495.02374      4950.2295      18.995834    
  47611400   13586.601     -5.6903958     -42975238       1.6528179      40458.579     -42934780       713.79573      713.79573      713.79573      2143.1021      2856.8979      2143.1021      2856.8979      2143.1021      2856.8979      3.6368202e+08  0.1            15685640       1.2958805      496.34361      4963.4378      18.952287    
  47611600   14999.103     -6.1297385     -42975681       1.6528179      44664.768     -42931016       713.79573      713.79573      713.79573      2143.1021      2856.8979      2143.1021      2856.8979      2143.1021      2856.8979      3.6368202e+08  0.1            15685660       1.3362221      495.76934      4957.6983      18.909596    
  47611800   16510.459     -6.9888175     -42983522       1.6528179      49165.327     -42934356       713.79573      713.79573      713.79573      2143.1021      2856.8979      2143.1021      2856.8979      2143.1021      2856.8979      3.6368202e+08  0.1            15685680       1.376589       495.4539       4954.5388      18.867397    
  47612000   18116.65      -7.4792771     -42984004       1.6528179      53948.29      -42930056       713.79573      713.79573      713.79573      2143.1021      2856.8979      2143.1021      2856.8979      2143.1021      2856.8979      3.6368202e+08  0.1            15685700       1.4169858      495.09029      4950.9031      18.825696    
  47612200   19810.828     -7.9613581     -42984507       1.6528179      58993.262     -42925514       713.79573      713.79573      713.79573      2143.1021      2856.8979      2143.1021      2856.8979      2143.1021      2856.8979      3.6368202e+08  0.1            15685720       1.4573395      495.61798      4956.1728      18.783514    
  47612400   21582.425     -8.8055932     -42992409       1.6528179      64268.776     -42928140       713.79573      713.79573      713.79573      2143.1021      2856.8979      2143.1021      2856.8979      2143.1021      2856.8979      3.6368202e+08  0.1            15685740       1.497734       495.11584      4951.1641      18.741941    
  47612600   23416.694     -9.2533079     -42992952       1.6528179      69730.916     -42923221       713.79573      713.79573      713.79573      2143.1021      2856.8979      2143.1021      2856.8979      2143.1021      2856.8979      3.6368202e+08  0.1            15685760       1.5380521      496.05485      4960.5538      18.699501    
  47612800   25294.495     -9.6439224     -42993515       1.6528179      75322.686     -42918192       713.79573      713.79573      713.79573      2143.1021      2856.8979      2143.1021      2856.8979      2143.1021      2856.8979      3.6368202e+08  0.1            15685780       1.5783764      495.9797       4959.7878      18.657243    
  47613000   27191.669     -9.8971155     -42994095       1.6528179      80972.148     -42913123       713.79573      713.79573      713.79573      2143.1021      2856.8979      2143.1021      2856.8979      2143.1021      2856.8979      3.6368202e+08  0.1            15685800       1.6188369      494.30989      4943.0941      18.616649    
  47613200   29079.337     -10.125149     -42994691       1.6528179      86593.301     -42908098       713.79573      713.79573      713.79573      2143.1021      2856.8979      2143.1021      2856.8979      2143.1021      2856.8979      3.6368202e+08  0.1            15685820       1.6600931      484.775        4847.7422      18.58497     
  47613400   30924.148     -10.49932      -42995303       1.6528179      92086.832     -42903216       713.79573      713.79573      713.79573      2143.1021      2856.8979      2143.1021      2856.8979      2143.1021      2856.8979      3.6368202e+08  0.1            15685840       1.7003933      496.27538      4962.7651      18.542407    
  47613600   32688.934     -10.603644     -42988553       1.6528179      97342.064     -42891210       713.79573      713.79573      713.79573      2143.1021      2856.8979      2143.1021      2856.8979      2143.1021      2856.8979      3.6368202e+08  0.1            15685860       1.7407921      495.06311      4950.6346      18.501       
  47613800   34333.47      -10.941071     -42989196       1.6528179      102239.21     -42886957       713.79573      713.79573      713.79573      2143.1021      2856.8979      2143.1021      2856.8979      2143.1021      2856.8979      3.6368202e+08  0.1            15685880       1.7811549      495.5063       4955.0574      18.459264    
  47614000   35815.544     -10.597358     -42982475       1.6528179      106652.57     -42875823       713.79573      713.79573      713.79573      2143.1021      2856.8979      2143.1021      2856.8979      2143.1021      2856.8979      3.6368202e+08  0.1            15685900       1.82159        494.6193       4946.1914      18.418321    
  47614200   37094.596     -10.49899      -42983141       1.6528179      110461.37     -42872679       713.79573      713.79573      713.79573      2143.1021      2856.8979      2143.1021      2856.8979      2143.1021      2856.8979      3.6368202e+08  0.1            15685920       1.8619368      495.70284      4957.0326      18.376528    
  47614400   38136.086     -9.8954673     -42974537       1.6528179      113562.75     -42860974       713.79573      713.79573      713.79573      2143.1021      2856.8979      2143.1021      2856.8979      2143.1021      2856.8979      3.6368202e+08  0.1            15685940       1.9022324      496.33163      4963.3158      18.334304    
  47614600   38917.653     -10.186573     -42975207       1.6528179      115890.12     -42859317       713.79573      713.79573      713.79573      2143.1021      2856.8979      2143.1021      2856.8979      2143.1021      2856.8979      3.6368202e+08  0.1            15685960       1.9425482      496.08431      4960.8464      18.292349    
  47614800   39434.845     -10.800371     -42975878       1.6528179      117430.23     -42858448       713.79573      713.79573      713.79573      2143.1021      2856.8979      2143.1021      2856.8979      2143.1021      2856.8979      3.6368202e+08  0.1            15685980       1.9828906      495.75604      4957.5591      18.250707    
  47615000   39705.07      -11.569687     -42976549       1.6528179      118234.92     -42858314       713.79573      713.79573      713.79573      2143.1021      2856.8979      2143.1021      2856.8979      2143.1021      2856.8979      3.6368202e+08  0.1            15686000       2.0232227      495.88352      4958.8305      18.209024    
  47615200   39768.347     -12.46269      -42977217       1.6528179      118423.35     -42858794       713.79573      713.79573      713.79573      2143.1021      2856.8979      2143.1021      2856.8979      2143.1021      2856.8979      3.6368202e+08  0.1            15686020       2.0636253      495.01688      4950.168       18.168015    
  47615400   39683.994     -13.274057     -42970503       1.6528179      118172.16     -42852331       713.79573      713.79573      713.79573      2143.1021      2856.8979      2143.1021      2856.8979      2143.1021      2856.8979      3.6368202e+08  0.1            15686040       2.1039485      495.99249      4959.9292      18.126344    
  47615600   39523.222     -14.825599     -42973056       1.6528179      117693.41     -42855363       713.79573      713.79573      713.79573      2143.1021      2856.8979      2143.1021      2856.8979      2143.1021      2856.8979      3.6368202e+08  0.1            15686060       2.1450361      486.76324      4867.6234      18.091173    
  47615800   39359.913     -16.055409     -42971813       1.6528179      117207.1      -42854606       713.79573      713.79573      713.79573      2143.1021      2856.8979      2143.1021      2856.8979      2143.1021      2856.8979      3.6368202e+08  0.1            15686080       2.1853358      496.28278      4962.8325      18.049273    
  47616000   39263.619     -16.891166     -42965081       1.6528179      116920.35     -42848161       713.79573      713.79573      713.79573      2143.1021      2856.8979      2143.1021      2856.8979      2143.1021      2856.8979      3.6368202e+08  0.1            15686100       2.2257029      495.45341      4954.5351      18.007978    
  47616200   39295.988     -18.122411     -42972733       1.6528179      117016.74     -42855716       713.79573      713.79573      713.79573      2143.1021      2856.8979      2143.1021      2856.8979      2143.1021      2856.8979      3.6368202e+08  0.1            15686120       2.2659876      496.46572      4964.6548      17.966063    
  47616400   39507.819     -19.25273      -42980750       1.6528179      117647.54     -42863103       713.79573      713.79573      713.79573      2143.1021      2856.8979      2143.1021      2856.8979      2143.1021      2856.8979      3.6368202e+08  0.1            15686140       2.3063052      496.06285      4960.6327      17.924459    
  47616600   39937.077     -19.999938     -42981385       1.6528179      118925.8      -42862459       713.79573      713.79573      713.79573      2143.1021      2856.8979      2143.1021      2856.8979      2143.1021      2856.8979      3.6368202e+08  0.1            15686160       2.3465622      496.80776      4968.0796      17.882438    
  47616800   40608.897     -20.90129      -42982018       1.6528179      120926.36     -42861091       713.79573      713.79573      713.79573      2143.1021      2856.8979      2143.1021      2856.8979      2143.1021      2856.8979      3.6368202e+08  0.1            15686180       2.3868811      496.04155      4960.4022      17.840943    
  47617000   41532.023     -21.431345     -42975274       1.6528179      123675.27     -42851598       713.79573      713.79573      713.79573      2143.1021      2856.8979      2143.1021      2856.8979      2143.1021      2856.8979      3.6368202e+08  0.1            15686200       2.4272169      495.83966      4958.4074      17.799607    
  47617200   42694.201     -22.050419     -42975911       1.6528179      127136.04     -42848775       713.79573      713.79573      713.79573      2143.1021      2856.8979      2143.1021      2856.8979      2143.1021      2856.8979      3.6368202e+08  0.1            15686220       2.4675964      495.30102      4953.0181      17.758619    
  47617400   44060.943     -22.434919     -42976551       1.6528179      131205.97     -42845345       713.79573      713.79573      713.79573      2143.1021      2856.8979      2143.1021      2856.8979      2143.1021      2856.8979      3.6368202e+08  0.1            15686240       2.5079702      495.36858      4953.678       17.717613    
  47617600   45580.904     -22.747064     -42977195       1.6528179      135732.15     -42841463       713.79573      713.79573      713.79573      2143.1021      2856.8979      2143.1021      2856.8979      2143.1021      2856.8979      3.6368202e+08  0.1            15686260       2.548376       494.98187      4949.816       17.676846    
  47617800   47191.241     -22.981208     -42975949       1.6528179      140527.46     -42835422       713.79573      713.79573      713.79573      2143.1021      2856.8979      2143.1021      2856.8979      2143.1021      2856.8979      3.6368202e+08  0.1            15686280       2.5888016      494.73572      4947.3627      17.636226    
  47618000   48823.28      -23.192961     -42974708       1.6528179      145387.39     -42829321       713.79573      713.79573      713.79573      2143.1021      2856.8979      2143.1021      2856.8979      2143.1021      2856.8979      3.6368202e+08  0.1            15686300       2.6294382      492.16647      4921.6665      17.597024    
  47618200   50408.669     -23.373213     -42975365       1.6528179      150108.41     -42825257       713.79573      713.79573      713.79573      2143.1021      2856.8979      2143.1021      2856.8979      2143.1021      2856.8979      3.6368202e+08  0.1            15686320       2.6707145      484.53959      4845.3928      17.561986    
  47618400   51883.365     -23.505734     -42976392       1.6528179      154499.8      -42821892       713.79573      713.79573      713.79573      2143.1021      2856.8979      2143.1021      2856.8979      2143.1021      2856.8979      3.6368202e+08  0.1            15686340       2.7111813      494.23319      4942.3321      17.521529    
  47618600   53191.381     -23.765268     -42978947       1.6528179      158394.85     -42820552       713.79573      713.79573      713.79573      2143.1021      2856.8979      2143.1021      2856.8979      2143.1021      2856.8979      3.6368202e+08  0.1            15686360       2.7515474      495.46633      4954.6631      17.480432    
  47618800   54287.501     -24.018033     -42979606       1.6528179      161658.91     -42817947       713.79573      713.79573      713.79573      2143.1021      2856.8979      2143.1021      2856.8979      2143.1021      2856.8979      3.6368202e+08  0.1            15686380       2.7918008      496.85086      4968.5123      17.438653    
  47619000   55141.594     -24.454609     -42980265       1.6528179      164202.25     -42816063       713.79573      713.79573      713.79573      2143.1021      2856.8979      2143.1021      2856.8979      2143.1021      2856.8979      3.6368202e+08  0.1            15686400       2.8322079      494.9629       4949.6213      17.397862    
  47619200   55741.93      -24.953703     -42980924       1.6528179      165989.95     -42814934       713.79573      713.79573      713.79573      2143.1021      2856.8979      2143.1021      2856.8979      2143.1021      2856.8979      3.6368202e+08  0.1            15686420       2.8729751      490.58963      4905.899       17.359258    
  47619400   56097.779     -25.451512     -42979688       1.6528179      167049.61     -42812638       713.79573      713.79573      713.79573      2143.1021      2856.8979      2143.1021      2856.8979      2143.1021      2856.8979      3.6368202e+08  0.1            15686440       2.9132968      496.01174      4960.1193      17.317944    
  47619600   56239.708     -26.458656     -42980343       1.6528179      167472.25     -42812870       713.79573      713.79573      713.79573      2143.1021      2856.8979      2143.1021      2856.8979      2143.1021      2856.8979      3.6368202e+08  0.1            15686460       2.9536224      495.96214      4959.6203      17.276681    
  47619800   56217.03      -27.259274     -42979095       1.6528179      167404.71     -42811690       713.79573      713.79573      713.79573      2143.1021      2856.8979      2143.1021      2856.8979      2143.1021      2856.8979      3.6368202e+08  0.1            15686480       2.9938689      496.93828      4969.3838      17.234988    
  47620000   56091.885     -27.769728     -42979727       1.6528179      167032.06     -42812695       713.79573      713.79573      713.79573      2143.1021      2856.8979      2143.1021      2856.8979      2143.1021      2856.8979      3.6368202e+08  0.1            15686500       3.0345524      491.59719      4915.9781      17.19581     
  47620200   55935.278     -27.887937     -42978449       1.6528179      166565.71     -42811883       713.79573      713.79573      713.79573      2143.1021      2856.8979      2143.1021      2856.8979      2143.1021      2856.8979      3.6368202e+08  0.1            15686520       3.0748131      496.76439      4967.6318      17.154233    
  47620400   55819.065     -28.297487     -42979053       1.6528179      166219.65     -42812833       713.79573      713.79573      713.79573      2143.1021      2856.8979      2143.1021      2856.8979      2143.1021      2856.8979      3.6368202e+08  0.1            15686540       3.1158837      486.96695      4869.6752      17.117139    
  47620600   55810.12      -29.158816     -42977755       1.6528179      166193.01     -42811562       713.79573      713.79573      713.79573      2143.1021      2856.8979      2143.1021      2856.8979      2143.1021      2856.8979      3.6368202e+08  0.1            15686560       3.1561354      496.87345      4968.7393      17.075514    
  47620800   55965.445     -30.039628     -42969076       1.6528179      166655.54     -42802421       713.79573      713.79573      713.79573      2143.1021      2856.8979      2143.1021      2856.8979      2143.1021      2856.8979      3.6368202e+08  0.1            15686580       3.196366       497.13323      4971.3226      17.033811    
  47621000   56327.921     -31.07197      -42969666       1.6528179      167734.93     -42801931       713.79573      713.79573      713.79573      2143.1021      2856.8979      2143.1021      2856.8979      2143.1021      2856.8979      3.6368202e+08  0.1            15686600       3.2366217      496.82477      4968.2499      16.992275    
  47621200   56925.849     -31.678171     -42970245       1.6528179      169515.46     -42800730       713.79573      713.79573      713.79573      2143.1021      2856.8979      2143.1021      2856.8979      2143.1021      2856.8979      3.6368202e+08  0.1            15686620       3.2769387      496.06918      4960.6933      16.951089    
  47621400   57772.838     -32.179443     -42972712       1.6528179      172037.65     -42800675       713.79573      713.79573      713.79573      2143.1021      2856.8979      2143.1021      2856.8979      2143.1021      2856.8979      3.6368202e+08  0.1            15686640       3.3172848      495.69354      4956.7213      16.910088    
  47621600   58864.123     -32.14145      -42973280       1.6528179      175287.31     -42797993       713.79573      713.79573      713.79573      2143.1021      2856.8979      2143.1021      2856.8979      2143.1021      2856.8979      3.6368202e+08  0.1            15686660       3.3576143      495.93215      4959.5436      16.868988    
  47621800   60174.15      -31.638033     -42973843       1.6528179      179188.34     -42794655       713.79573      713.79573      713.79573      2143.1021      2856.8979      2143.1021      2856.8979      2143.1021      2856.8979      3.6368202e+08  0.1            15686680       3.3978499      497.07187      4970.7129      16.827458    
  47622000   61659.032     -31.027138     -42972508       1.6528179      183610.07     -42788898       713.79573      713.79573      713.79573      2143.1021      2856.8979      2143.1021      2856.8979      2143.1021      2856.8979      3.6368202e+08  0.1            15686700       3.4381103      496.76557      4967.6519      16.786079    
  47622200   63260.503     -30.638035     -42972697       1.6528179      188378.98     -42784318       713.79573      713.79573      713.79573      2143.1021      2856.8979      2143.1021      2856.8979      2143.1021      2856.8979      3.6368202e+08  0.1            15686720       3.4784013      496.38888      4963.8999      16.744872    
  47622400   64909.537     -30.385312     -42973252       1.6528179      193289.52     -42779962       713.79573      713.79573      713.79573      2143.1021      2856.8979      2143.1021      2856.8979      2143.1021      2856.8979      3.6368202e+08  0.1            15686740       3.5187262      495.97248      4959.7236      16.703848    
  47622600   66533.882     -30.254882     -42973801       1.6528179      198126.54     -42775674       713.79573      713.79573      713.79573      2143.1021      2856.8979      2143.1021      2856.8979      2143.1021      2856.8979      3.6368202e+08  0.1            15686760       3.5591481      494.78005      4947.7962      16.663295    
  47622800   68064.009     -30.043484     -42974345       1.6528179      202683        -42771662       713.79573      713.79573      713.79573      2143.1021      2856.8979      2143.1021      2856.8979      2143.1021      2856.8979      3.6368202e+08  0.1            15686780       3.5993894      497.00229      4970.0233      16.621909    
  47623000   69436.619     -29.541627     -42967503       1.6528179      206770.39     -42760732       713.79573      713.79573      713.79573      2143.1021      2856.8979      2143.1021      2856.8979      2143.1021      2856.8979      3.6368202e+08  0.1            15686800       3.6406611      484.59329      4845.9277      16.585244    
  47623200   70600.796     -29.873347     -42973515       1.6528179      210237.11     -42763278       713.79573      713.79573      713.79573      2143.1021      2856.8979      2143.1021      2856.8979      2143.1021      2856.8979      3.6368202e+08  0.1            15686820       3.6809903      495.91836      4959.1838      16.544241    
  47623400   71520.625     -29.792948     -42972145       1.6528179      212976.21     -42759168       713.79573      713.79573      713.79573      2143.1021      2856.8979      2143.1021      2856.8979      2143.1021      2856.8979      3.6368202e+08  0.1            15686840       3.7211742      497.7121       4977.1198      16.502608    
  47623600   72177.736     -29.964185     -42980038       1.6528179      214932.97     -42765105       713.79573      713.79573      713.79573      2143.1021      2856.8979      2143.1021      2856.8979      2143.1021      2856.8979      3.6368202e+08  0.1            15686860       3.7613931      497.27861      4972.7896      16.46116     
  47623800   72575.408     -29.718058     -42980540       1.6528179      216117.17     -42764423       713.79573      713.79573      713.79573      2143.1021      2856.8979      2143.1021      2856.8979      2143.1021      2856.8979      3.6368202e+08  0.1            15686880       3.8016432      496.89288      4968.9247      16.419873    
  47624000   72740.713     -29.208745     -42971757       1.6528179      216609.42     -42755147       713.79573      713.79573      713.79573      2143.1021      2856.8979      2143.1021      2856.8979      2143.1021      2856.8979      3.6368202e+08  0.1            15686900       3.8419325      496.41084      4964.1128      16.378774    
  47624200   72722.313     -29.537693     -42972236       1.6528179      216554.63     -42755681       713.79573      713.79573      713.79573      2143.1021      2856.8979      2143.1021      2856.8979      2143.1021      2856.8979      3.6368202e+08  0.1            15686920       3.8821879      496.82671      4968.2767      16.33755     
  47624400   72582.989     -29.816092     -42970809       1.6528179      216139.75     -42754669       713.79573      713.79573      713.79573      2143.1021      2856.8979      2143.1021      2856.8979      2143.1021      2856.8979      3.6368202e+08  0.1            15686940       3.9223638      497.812        4978.1176      16.296015    
  47624600   72394.125     -30.320615     -42971262       1.6528179      215577.34     -42755685       713.79573      713.79573      713.79573      2143.1021      2856.8979      2143.1021      2856.8979      2143.1021      2856.8979      3.6368202e+08  0.1            15686960       3.9635999      485.00993      4850.0844      16.258858    
  47624800   72229.929     -31.103314     -42977184       1.6528179      215088.4      -42762096       713.79573      713.79573      713.79573      2143.1021      2856.8979      2143.1021      2856.8979      2143.1021      2856.8979      3.6368202e+08  0.1            15686980       4.0040529      494.40109      4944.0186      16.218446    
  47625000   72161.256     -31.362639     -42977613       1.6528179      214883.9      -42762729       713.79573      713.79573      713.79573      2143.1021      2856.8979      2143.1021      2856.8979      2143.1021      2856.8979      3.6368202e+08  0.1            15687000       4.0443878      495.85048      4958.5143      16.177559    
  47625200   72248.933     -31.116098     -42978030       1.6528179      215144.98     -42762885       713.79573      713.79573      713.79573      2143.1021      2856.8979      2143.1021      2856.8979      2143.1021      2856.8979      3.6368202e+08  0.1            15687020       4.084694       496.19921      4961.9809      16.136572    
  47625400   72541.95      -30.641279     -42978434       1.6528179      216017.54     -42762416       713.79573      713.79573      713.79573      2143.1021      2856.8979      2143.1021      2856.8979      2143.1021      2856.8979      3.6368202e+08  0.1            15687040       4.1249359      496.99476      4969.9453      16.095347    
  47625600   73074.929     -30.173335     -42978824       1.6528179      217604.66     -42761220       713.79573      713.79573      713.79573      2143.1021      2856.8979      2143.1021      2856.8979      2143.1021      2856.8979      3.6368202e+08  0.1            15687060       4.1653258      495.17547      4951.7542      16.05471     
  47625800   73865.465     -29.679966     -42979201       1.6528179      219958.74     -42759242       713.79573      713.79573      713.79573      2143.1021      2856.8979      2143.1021      2856.8979      2143.1021      2856.8979      3.6368202e+08  0.1            15687080       4.2055607      497.07947      4970.7999      16.013489    
  47626000   74912.557     -28.720855     -42972187       1.6528179      223076.8      -42749110       713.79573      713.79573      713.79573      2143.1021      2856.8979      2143.1021      2856.8979      2143.1021      2856.8979      3.6368202e+08  0.1            15687100       4.2458078      496.93058      4969.3037      15.972333    
  47626200   76195.101     -28.587276     -42979918       1.6528179      226896        -42753022       713.79573      713.79573      713.79573      2143.1021      2856.8979      2143.1021      2856.8979      2143.1021      2856.8979      3.6368202e+08  0.1            15687120       4.2860852      496.55639      4965.5649      15.931306    
  47626400   77672.748     -28.53644      -42982159       1.6528179      231296.18     -42750863       713.79573      713.79573      713.79573      2143.1021      2856.8979      2143.1021      2856.8979      2143.1021      2856.8979      3.6368202e+08  0.1            15687140       4.3263784      496.36102      4963.6094      15.890351    
  47626600   79287.457     -27.953323     -42982498       1.6528179      236104.51     -42746394       713.79573      713.79573      713.79573      2143.1021      2856.8979      2143.1021      2856.8979      2143.1021      2856.8979      3.6368202e+08  0.1            15687160       4.3667133      495.84895      4958.4588      15.849561    
  47626800   80968.494     -27.336208     -42990203       1.6528179      241110.35     -42749093       713.79573      713.79573      713.79573      2143.1021      2856.8979      2143.1021      2856.8979      2143.1021      2856.8979      3.6368202e+08  0.1            15687180       4.4069756      496.74271      4967.4534      15.808517    
  47627000   82641.157     -26.650347     -42990148       1.6528179      246091.25     -42744057       713.79573      713.79573      713.79573      2143.1021      2856.8979      2143.1021      2856.8979      2143.1021      2856.8979      3.6368202e+08  0.1            15687200       4.4473258      495.66048      4956.6119      15.767799    
  47627200   84232.058     -26.412459     -42990451       1.6528179      250828.68     -42739622       713.79573      713.79573      713.79573      2143.1021      2856.8979      2143.1021      2856.8979      2143.1021      2856.8979      3.6368202e+08  0.1            15687220       4.4876689      495.74443      4957.4422      15.727064    
  47627400   85672.439     -25.507377     -42981466       1.6528179      255117.89     -42726348       713.79573      713.79573      713.79573      2143.1021      2856.8979      2143.1021      2856.8979      2143.1021      2856.8979      3.6368202e+08  0.1            15687240       4.5280108      495.76564      4957.656       15.686331    
  47627600   86905.45      -25.514361     -42989118       1.6528179      258789.59     -42730328       713.79573      713.79573      713.79573      2143.1021      2856.8979      2143.1021      2856.8979      2143.1021      2856.8979      3.6368202e+08  0.1            15687260       4.5683327      496.00857      4960.0948      15.645536    
  47627800   87889.358     -25.331659     -42989377       1.6528179      261719.5      -42727657       713.79573      713.79573      713.79573      2143.1021      2856.8979      2143.1021      2856.8979      2143.1021      2856.8979      3.6368202e+08  0.1            15687280       4.6086203      496.42965      4964.2859      15.604634    
  47628000   88601.757     -25.321802     -42989619       1.6528179      263840.9      -42725778       713.79573      713.79573      713.79573      2143.1021      2856.8979      2143.1021      2856.8979      2143.1021      2856.8979      3.6368202e+08  0.1            15687300       4.6500418      482.84089      4828.4091      15.567539    
  47628200   89043.247     -25.365323     -42989846       1.6528179      265155.59     -42724690       713.79573      713.79573      713.79573      2143.1021      2856.8979      2143.1021      2856.8979      2143.1021      2856.8979      3.6368202e+08  0.1            15687320       4.690331       496.41084      4964.1134      15.526621    
  47628400   89237.507     -25.013491     -42990059       1.6528179      265734.06     -42724325       713.79573      713.79573      713.79573      2143.1021      2856.8979      2143.1021      2856.8979      2143.1021      2856.8979      3.6368202e+08  0.1            15687340       4.7305986      496.67757      4966.7714      15.485642    
  47628600   89228.561     -24.026327     -42982879       1.6528179      265707.42     -42717171       713.79573      713.79573      713.79573      2143.1021      2856.8979      2143.1021      2856.8979      2143.1021      2856.8979      3.6368202e+08  0.1            15687360       4.7717566      485.93164      4859.3114      15.447559    
  47628800   89078.333     -23.276973     -42975683       1.6528179      265260.07     -42710423       713.79573      713.79573      713.79573      2143.1021      2856.8979      2143.1021      2856.8979      2143.1021      2856.8979      3.6368202e+08  0.1            15687380       4.8121189      495.51283      4955.1319      15.406875    
  47629000   88859.787     -23.237305     -42975851       1.6528179      264609.27     -42711242       713.79573      713.79573      713.79573      2143.1021      2856.8979      2143.1021      2856.8979      2143.1021      2856.8979      3.6368202e+08  0.1            15687400       4.8525895      494.18753      4941.8832      15.36654     
  47629200   88648.349     -23.48438      -42977896       1.6528179      263979.65     -42713916       713.79573      713.79573      713.79573      2143.1021      2856.8979      2143.1021      2856.8979      2143.1021      2856.8979      3.6368202e+08  0.1            15687420       4.8929688      495.30185      4953.017       15.325918    
  47629400   88518.721     -23.347789     -42978028       1.6528179      263593.63     -42714435       713.79573      713.79573      713.79573      2143.1021      2856.8979      2143.1021      2856.8979      2143.1021      2856.8979      3.6368202e+08  0.1            15687440       4.933275       496.20195      4962.0271      15.285072    
  47629600   88538.103     -22.183818     -42970766       1.6528179      263651.35     -42707115       713.79573      713.79573      713.79573      2143.1021      2856.8979      2143.1021      2856.8979      2143.1021      2856.8979      3.6368202e+08  0.1            15687460       4.9736775      495.01933      4950.1866      15.24453     
  47629800   88761.672     -21.001988     -42970498       1.6528179      264317.1      -42706181       713.79573      713.79573      713.79573      2143.1021      2856.8979      2143.1021      2856.8979      2143.1021      2856.8979      3.6368202e+08  0.1            15687480       5.01395        496.61496      4966.1274      15.203598    
  47630000   89230.369     -20.385666     -42977963       1.6528179      265712.8      -42712251       713.79573      713.79573      713.79573      2143.1021      2856.8979      2143.1021      2856.8979      2143.1021      2856.8979      3.6368202e+08  0.1            15687500       5.0543352      495.23264      4952.3411      15.163012    
  47630200   89966.601     -19.909243     -42985783       1.6528179      267905.18     -42717878       713.79573      713.79573      713.79573      2143.1021      2856.8979      2143.1021      2856.8979      2143.1021      2856.8979      3.6368202e+08  0.1            15687520       5.0945989      496.72546      4967.2556      15.12207     
  47630400   90972.086     -18.859201     -42985842       1.6528179      270899.34     -42714943       713.79573      713.79573      713.79573      2143.1021      2856.8979      2143.1021      2856.8979      2143.1021      2856.8979      3.6368202e+08  0.1            15687540       5.1349166      496.05933      4960.596       15.081297    
  47630600   92227.624     -17.391623     -42983990       1.6528179      274638.11     -42709352       713.79573      713.79573      713.79573      2143.1021      2856.8979      2143.1021      2856.8979      2143.1021      2856.8979      3.6368202e+08  0.1            15687560       5.1753069      495.16798      4951.6777      15.040742    
  47630800   93693.48      -16.094826     -42991394       1.6528179      279003.18     -42712391       713.79573      713.79573      713.79573      2143.1021      2856.8979      2143.1021      2856.8979      2143.1021      2856.8979      3.6368202e+08  0.1            15687580       5.2156046      496.30561      4963.0579      14.999924    
  47631000   95313.404     -14.367247     -42996888       1.6528179      283827.04     -42713061       713.79573      713.79573      713.79573      2143.1021      2856.8979      2143.1021      2856.8979      2143.1021      2856.8979      3.6368202e+08  0.1            15687600       5.2564236      489.96926      4899.6875      14.960596    
  47631200   97017.921     -12.196551     -42987612       1.6528179      288902.8      -42698709       713.79573      713.79573      713.79573      2143.1021      2856.8979      2143.1021      2856.8979      2143.1021      2856.8979      3.6368202e+08  0.1            15687620       5.2968187      495.10975      4951.103       14.920053    
  47631400   98730.628     -11.469761     -42987595       1.6528179      294002.95     -42693592       713.79573      713.79573      713.79573      2143.1021      2856.8979      2143.1021      2856.8979      2143.1021      2856.8979      3.6368202e+08  0.1            15687640       5.3371317      496.11724      4961.1715      14.879282    
  47631600   100373.17     -10.998003     -42987560       1.6528179      298894.16     -42688666       713.79573      713.79573      713.79573      2143.1021      2856.8979      2143.1021      2856.8979      2143.1021      2856.8979      3.6368202e+08  0.1            15687660       5.377479       495.69575      4956.9659      14.838613    
  47631800   101873.29     -10.173113     -42987507       1.6528179      303361.26     -42684146       713.79573      713.79573      713.79573      2143.1021      2856.8979      2143.1021      2856.8979      2143.1021      2856.8979      3.6368202e+08  0.1            15687680       5.4177735      496.34657      4963.4549      14.797805    
  47632000   103170.45     -8.8702043     -42987438       1.6528179      307223.98     -42680214       713.79573      713.79573      713.79573      2143.1021      2856.8979      2143.1021      2856.8979      2143.1021      2856.8979      3.6368202e+08  0.1            15687700       5.458191       494.83455      4948.348       14.757337    
  47632200   104219.07     -7.3033784     -42987352       1.6528179      310346.59     -42677005       713.79573      713.79573      713.79573      2143.1021      2856.8979      2143.1021      2856.8979      2143.1021      2856.8979      3.6368202e+08  0.1            15687720       5.508767       395.44403      3954.438       14.744059    
  47632400   104992.41     -5.6129018     -42994627       1.6528179      312649.48     -42681977       713.79573      713.79573      713.79573      2143.1021      2856.8979      2143.1021      2856.8979      2143.1021      2856.8979      3.6368202e+08  0.1            15687740       5.5491746      494.95817      4949.5823      14.703293    
  47632600   105485.68     -3.292944      -42987128       1.6528179      314118.33     -42673009       713.79573      713.79573      713.79573      2143.1021      2856.8979      2143.1021      2856.8979      2143.1021      2856.8979      3.6368202e+08  0.1            15687760       5.5896348      494.31233      4943.1341      14.662671    
  47632800   105718.79     -2.2741795     -42992475       1.6528179      314812.51     -42677662       713.79573      713.79573      713.79573      2143.1021      2856.8979      2143.1021      2856.8979      2143.1021      2856.8979      3.6368202e+08  0.1            15687780       5.6300894      494.37985      4943.7957      14.622037    
  47633000   105731.86     -1.4706242     -42992322       1.6528179      314851.42     -42677471       713.79573      713.79573      713.79573      2143.1021      2856.8979      2143.1021      2856.8979      2143.1021      2856.8979      3.6368202e+08  0.1            15687800       5.6715194      482.74347      4827.4285      14.583913    
  47633200   105583.86     -0.69817485    -42990256       1.6528179      314410.69     -42675845       713.79573      713.79573      713.79573      2143.1021      2856.8979      2143.1021      2856.8979      2143.1021      2856.8979      3.6368202e+08  0.1            15687820       5.7118082      496.41559      4964.1635      14.542836    
  47633400   105347.64      0.328249      -42982690       1.6528179      313707.28     -42668982       713.79573      713.79573      713.79573      2143.1021      2856.8979      2143.1021      2856.8979      2143.1021      2856.8979      3.6368202e+08  0.1            15687840       5.7521942      495.22117      4952.2064      14.502016    
  47633600   105102.81      0.63981494    -42989867       1.6528179      312978.21     -42676888       713.79573      713.79573      713.79573      2143.1021      2856.8979      2143.1021      2856.8979      2143.1021      2856.8979      3.6368202e+08  0.1            15687860       5.792542       495.69         4956.9006      14.461107    
  47633800   104927.24      1.561439      -42989654       1.6528179      312455.39     -42677199       713.79573      713.79573      713.79573      2143.1021      2856.8979      2143.1021      2856.8979      2143.1021      2856.8979      3.6368202e+08  0.1            15687880       5.8329327      495.16312      4951.6301      14.420311    
  47634000   104890.97      2.278406      -42998332       1.6528179      312347.4      -42685985       713.79573      713.79573      713.79573      2143.1021      2856.8979      2143.1021      2856.8979      2143.1021      2856.8979      3.6368202e+08  0.1            15687900       5.8733238      495.15868      4951.5829      14.379522    
  47634200   105053.89      3.5382157     -42998090       1.6528179      312832.56     -42685258       713.79573      713.79573      713.79573      2143.1021      2856.8979      2143.1021      2856.8979      2143.1021      2856.8979      3.6368202e+08  0.1            15687920       5.9136187      496.34101      4963.4238      14.338505    
  47634400   105461.75      4.5438892     -42997837       1.6528179      314047.1      -42683790       713.79573      713.79573      713.79573      2143.1021      2856.8979      2143.1021      2856.8979      2143.1021      2856.8979      3.6368202e+08  0.1            15687940       5.9539869      495.43856      4954.3748      14.297675    
  47634600   106142.39      5.8777022     -42997575       1.6528179      316073.92     -42681501       713.79573      713.79573      713.79573      2143.1021      2856.8979      2143.1021      2856.8979      2143.1021      2856.8979      3.6368202e+08  0.1            15687960       5.994302       496.0932       4960.928       14.256724    
  47634800   107101.59      7.5394165     -42997303       1.6528179      318930.24     -42678372       713.79573      713.79573      713.79573      2143.1021      2856.8979      2143.1021      2856.8979      2143.1021      2856.8979      3.6368202e+08  0.1            15687980       6.0347238      494.78145      4947.8136      14.216033    
  47635000   108322.29      9.5899416     -42997016       1.6528179      322565.27     -42674450       713.79573      713.79573      713.79573      2143.1021      2856.8979      2143.1021      2856.8979      2143.1021      2856.8979      3.6368202e+08  0.1            15688000       6.0751932      494.20095      4942.0157      14.175456    
  47635200   109767.28      11.814372     -42996712       1.6528179      326868.21     -42669844       713.79573      713.79573      713.79573      2143.1021      2856.8979      2143.1021      2856.8979      2143.1021      2856.8979      3.6368202e+08  0.1            15688020       6.1155144      496.01751      4960.1746      14.134538    
  47635400   111381.23      14.22339      -42994499       1.6528179      331674.29     -42662825       713.79573      713.79573      713.79573      2143.1021      2856.8979      2143.1021      2856.8979      2143.1021      2856.8979      3.6368202e+08  0.1            15688040       6.1559448      494.67689      4946.7687      14.093879    
  47635600   113094.08      16.751645     -42992269       1.6528179      336774.85     -42655494       713.79573      713.79573      713.79573      2143.1021      2856.8979      2143.1021      2856.8979      2143.1021      2856.8979      3.6368202e+08  0.1            15688060       6.1962585      496.10689      4961.071       14.052958    
  47635800   114828.68      18.95685      -42990022       1.6528179      341940.19     -42648082       713.79573      713.79573      713.79573      2143.1021      2856.8979      2143.1021      2856.8979      2143.1021      2856.8979      3.6368202e+08  0.1            15688080       6.2373931      486.21045      4862.0949      14.013888    
  47636000   116506.32      20.53553      -42989655       1.6528179      346935.92     -42642719       713.79573      713.79573      713.79573      2143.1021      2856.8979      2143.1021      2856.8979      2143.1021      2856.8979      3.6368202e+08  0.1            15688100       6.2777885      495.10616      4951.0721      13.973147    
  47636200   118052.78      21.635634     -42996650       1.6528179      351541.01     -42645109       713.79573      713.79573      713.79573      2143.1021      2856.8979      2143.1021      2856.8979      2143.1021      2856.8979      3.6368202e+08  0.1            15688120       6.3185633      490.50041      4905.0015      13.933247    
  47636400   119404.33      23.247504     -42996255       1.6528179      355565.72     -42640689       713.79573      713.79573      713.79573      2143.1021      2856.8979      2143.1021      2856.8979      2143.1021      2856.8979      3.6368202e+08  0.1            15688140       6.3589654      495.02369      4950.2361      13.892521    
  47636600   120511.94      25.313269     -42995847       1.6528179      358863.97     -42636983       713.79573      713.79573      713.79573      2143.1021      2856.8979      2143.1021      2856.8979      2143.1021      2856.8979      3.6368202e+08  0.1            15688160       6.3991697      497.45693      4974.5716      13.851372    
  47636800   121344.57      27.474316     -42996953       1.6528179      361343.42     -42635609       713.79573      713.79573      713.79573      2143.1021      2856.8979      2143.1021      2856.8979      2143.1021      2856.8979      3.6368202e+08  0.1            15688180       6.4394456      496.57656      4965.7642      13.810388    
  47637000   121892.83      29.229639     -42996518       1.6528179      362976.04     -42633542       713.79573      713.79573      713.79573      2143.1021      2856.8979      2143.1021      2856.8979      2143.1021      2856.8979      3.6368202e+08  0.1            15688200       6.4799389      493.90914      4939.0906      13.769875    
  47637200   122171.34      30.621028     -42996070       1.6528179      363805.38     -42632265       713.79573      713.79573      713.79573      2143.1021      2856.8979      2143.1021      2856.8979      2143.1021      2856.8979      3.6368202e+08  0.1            15688220       6.5203323      495.12936      4951.2917      13.729152    
  47637400   122217.68      31.529859     -43002988       1.6528179      363943.37     -42639045       713.79573      713.79573      713.79573      2143.1021      2856.8979      2143.1021      2856.8979      2143.1021      2856.8979      3.6368202e+08  0.1            15688240       6.5606822      495.66489      4956.6512      13.688341    
  47637600   122087.94      33.393189     -42996832       1.6528179      363557.03     -42633275       713.79573      713.79573      713.79573      2143.1021      2856.8979      2143.1021      2856.8979      2143.1021      2856.8979      3.6368202e+08  0.1            15688260       6.6011002      494.82976      4948.2983      13.647678    
  47637800   121853.85      34.366048     -43003730       1.6528179      362859.96     -42640870       713.79573      713.79573      713.79573      2143.1021      2856.8979      2143.1021      2856.8979      2143.1021      2856.8979      3.6368202e+08  0.1            15688280       6.6424153      484.08446      4840.8446      13.608855    
  47638000   121593.76      35.599177     -43003243       1.6528179      362085.46     -42641158       713.79573      713.79573      713.79573      2143.1021      2856.8979      2143.1021      2856.8979      2143.1021      2856.8979      3.6368202e+08  0.1            15688300       6.6828373      494.77931      4947.7961      13.568189    
  47638200   121386.68      37.027749     -43002748       1.6528179      361468.82     -42641279       713.79573      713.79573      713.79573      2143.1021      2856.8979      2143.1021      2856.8979      2143.1021      2856.8979      3.6368202e+08  0.1            15688320       6.7232587      494.7875       4947.8711      13.527525    
  47638400   121306.37      39.456298     -42992970       1.6528179      361229.67     -42631741       713.79573      713.79573      713.79573      2143.1021      2856.8979      2143.1021      2856.8979      2143.1021      2856.8979      3.6368202e+08  0.1            15688340       6.7637335      494.1346       4941.338       13.48697     
  47638600   121416.73      41.766801     -42985079       1.6528179      361558.28     -42623521       713.79573      713.79573      713.79573      2143.1021      2856.8979      2143.1021      2856.8979      2143.1021      2856.8979      3.6368202e+08  0.1            15688360       6.8041489      494.86213      4948.6316      13.446298    
  47638800   121766.67      43.574966     -42984557       1.6528179      362600.35     -42621957       713.79573      713.79573      713.79573      2143.1021      2856.8979      2143.1021      2856.8979      2143.1021      2856.8979      3.6368202e+08  0.1            15688380       6.8445279      495.30648      4953.0649      13.405559    
  47639000   122387.82      45.390751     -42984028       1.6528179      364450.02     -42619578       713.79573      713.79573      713.79573      2143.1021      2856.8979      2143.1021      2856.8979      2143.1021      2856.8979      3.6368202e+08  0.1            15688400       6.8849469      494.81604      4948.1546      13.364901    
  47639200   123291.18      47.267275     -42983491       1.6528179      367140.09     -42616351       713.79573      713.79573      713.79573      2143.1021      2856.8979      2143.1021      2856.8979      2143.1021      2856.8979      3.6368202e+08  0.1            15688420       6.9261596      485.28736      4852.8709      13.325773    
  47639400   124463.9       49.440563     -42982574       1.6528179      370632.23     -42611941       713.79573      713.79573      713.79573      2143.1021      2856.8979      2143.1021      2856.8979      2143.1021      2856.8979      3.6368202e+08  0.1            15688440       6.9665838      494.753        4947.529       13.285118    
  47639600   125872.17      51.676984     -42975003       1.6528179      374825.83     -42600177       713.79573      713.79573      713.79573      2143.1021      2856.8979      2143.1021      2856.8979      2143.1021      2856.8979      3.6368202e+08  0.1            15688460       7.0069967      494.89216      4948.9228      13.244443    
  47639800   127463.91      53.342541     -42974430       1.6528179      379565.76     -42594864       713.79573      713.79573      713.79573      2143.1021      2856.8979      2143.1021      2856.8979      2143.1021      2856.8979      3.6368202e+08  0.1            15688480       7.0473924      495.10083      4951.0202      13.203739    
  47640000   129171.27      54.96875      -42975742       1.6528179      384649.99     -42591092       713.79573      713.79573      713.79573      2143.1021      2856.8979      2143.1021      2856.8979      2143.1021      2856.8979      3.6368202e+08  0.1            15688500       7.0878403      494.46386      4944.632       13.163136    
  47640200   130917.59      56.43372      -42984421       1.6528179      389850.24     -42594571       713.79573      713.79573      713.79573      2143.1021      2856.8979      2143.1021      2856.8979      2143.1021      2856.8979      3.6368202e+08  0.1            15688520       7.1281632      495.99677      4959.9669      13.122304    
  47640400   132623.66      58.107218     -42993092       1.6528179      394930.61     -42598161       713.79573      713.79573      713.79573      2143.1021      2856.8979      2143.1021      2856.8979      2143.1021      2856.8979      3.6368202e+08  0.1            15688540       7.1685781      494.86326      4948.6201      13.081647    
  47640600   134212.48      60.414055     -42997964       1.6528179      399661.86     -42598302       713.79573      713.79573      713.79573      2143.1021      2856.8979      2143.1021      2856.8979      2143.1021      2856.8979      3.6368202e+08  0.1            15688560       7.2089573      495.30774      4953.0942      13.040927    
  47640800   135615.78      62.941674     -42997341       1.6528179      403840.62     -42593501       713.79573      713.79573      713.79573      2143.1021      2856.8979      2143.1021      2856.8979      2143.1021      2856.8979      3.6368202e+08  0.1            15688580       7.2492826      495.96622      4959.6679      13.000114    
  47641000   136780.97      65.051315     -42996710       1.6528179      407310.36     -42589399       713.79573      713.79573      713.79573      2143.1021      2856.8979      2143.1021      2856.8979      2143.1021      2856.8979      3.6368202e+08  0.1            15688600       7.2897511      494.20925      4942.083       12.959562    
  47641200   137673.78      66.684475     -42996070       1.6528179      409969.02     -42586101       713.79573      713.79573      713.79573      2143.1021      2856.8979      2143.1021      2856.8979      2143.1021      2856.8979      3.6368202e+08  0.1            15688620       7.3301708      494.81073      4948.1124      12.918924    
  47641400   138279.48      68.37999      -42997315       1.6528179      411772.67     -42585542       713.79573      713.79573      713.79573      2143.1021      2856.8979      2143.1021      2856.8979      2143.1021      2856.8979      3.6368202e+08  0.1            15688640       7.3706094      494.57706      4945.7667      12.878321    
  47641600   138608.95      69.879322     -43004035       1.6528179      412753.78     -42591281       713.79573      713.79573      713.79573      2143.1021      2856.8979      2143.1021      2856.8979      2143.1021      2856.8979      3.6368202e+08  0.1            15688660       7.4110326      494.76588      4947.6579      12.837694    
  47641800   138695.64      72.125607     -42997890       1.6528179      413011.95     -42584878       713.79573      713.79573      713.79573      2143.1021      2856.8979      2143.1021      2856.8979      2143.1021      2856.8979      3.6368202e+08  0.1            15688680       7.4514931      494.30915      4943.0951      12.797133    
  47642000   138590.54      73.849998     -43004597       1.6528179      412698.97     -42591898       713.79573      713.79573      713.79573      2143.1021      2856.8979      2143.1021      2856.8979      2143.1021      2856.8979      3.6368202e+08  0.1            15688700       7.49188        495.20885      4952.095       12.756448    
  47642200   138362.98      75.683718     -43003919       1.6528179      412021.34     -42591898       713.79573      713.79573      713.79573      2143.1021      2856.8979      2143.1021      2856.8979      2143.1021      2856.8979      3.6368202e+08  0.1            15688720       7.5323074      494.71476      4947.1401      12.715835    
  47642400   138090.62      77.636922     -43003235       1.6528179      411210.28     -42592025       713.79573      713.79573      713.79573      2143.1021      2856.8979      2143.1021      2856.8979      2143.1021      2856.8979      3.6368202e+08  0.1            15688740       7.5735782      484.6018       4846.0086      12.676635    
  47642600   137853.42      79.372066     -43004437       1.6528179      410503.95     -42593933       713.79573      713.79573      713.79573      2143.1021      2856.8979      2143.1021      2856.8979      2143.1021      2856.8979      3.6368202e+08  0.1            15688760       7.6141421      493.05149      4930.514       12.63624     
  47642800   137730.55      81.270919     -42996367       1.6528179      410138.05     -42586229       713.79573      713.79573      713.79573      2143.1021      2856.8979      2143.1021      2856.8979      2143.1021      2856.8979      3.6368202e+08  0.1            15688780       7.6554468      484.20748      4842.0837      12.597061    
  47643000   137790.56      82.736612     -42997573       1.6528179      410316.75     -42587256       713.79573      713.79573      713.79573      2143.1021      2856.8979      2143.1021      2856.8979      2143.1021      2856.8979      3.6368202e+08  0.1            15688800       7.695796       495.6714       4956.7147      12.556302    
  47643200   138085.09      84.942521     -42993293       1.6528179      411193.81     -42582099       713.79573      713.79573      713.79573      2143.1021      2856.8979      2143.1021      2856.8979      2143.1021      2856.8979      3.6368202e+08  0.1            15688820       7.736132       495.8356       4958.3548      12.515526    
  47643400   138648.77      86.734539     -42998079       1.6528179      412872.36     -42585206       713.79573      713.79573      713.79573      2143.1021      2856.8979      2143.1021      2856.8979      2143.1021      2856.8979      3.6368202e+08  0.1            15688840       7.7765158      495.24818      4952.4817      12.474831    
  47643600   139496.04      89.086583     -42997375       1.6528179      415395.39     -42581980       713.79573      713.79573      713.79573      2143.1021      2856.8979      2143.1021      2856.8979      2143.1021      2856.8979      3.6368202e+08  0.1            15688860       7.8168784      495.50801      4955.0833      12.434105    
  47643800   140619.25      91.628625     -42996664       1.6528179      418740.13     -42577924       713.79573      713.79573      713.79573      2143.1021      2856.8979      2143.1021      2856.8979      2143.1021      2856.8979      3.6368202e+08  0.1            15688880       7.8573318      494.39575      4943.9552      12.393527    
  47644000   141990.38      93.131989     -43010705       1.6528179      422823.11     -42587882       713.79573      713.79573      713.79573      2143.1021      2856.8979      2143.1021      2856.8979      2143.1021      2856.8979      3.6368202e+08  0.1            15688900       7.8978339      493.80236      4938.0263      12.353026    
  47644200   143559.51      95.371295     -43011880       1.6528179      427495.69     -42584385       713.79573      713.79573      713.79573      2143.1021      2856.8979      2143.1021      2856.8979      2143.1021      2856.8979      3.6368202e+08  0.1            15688920       7.9382241      495.16897      4951.6868      12.312351    
  47644400   145259.81      97.864253     -43013047       1.6528179      432558.9      -42580488       713.79573      713.79573      713.79573      2143.1021      2856.8979      2143.1021      2856.8979      2143.1021      2856.8979      3.6368202e+08  0.1            15688940       7.9786541      494.6831       4946.8384      12.27174     
  47644600   147014.11      100.16104     -43019686       1.6528179      437782.92     -42581903       713.79573      713.79573      713.79573      2143.1021      2856.8979      2143.1021      2856.8979      2143.1021      2856.8979      3.6368202e+08  0.1            15688960       8.0194428      490.32986      4903.2972      12.231679    
  47644800   148741.58      102.09709     -43026314       1.6528179      442927.02     -42583387       713.79573      713.79573      713.79573      2143.1021      2856.8979      2143.1021      2856.8979      2143.1021      2856.8979      3.6368202e+08  0.1            15688980       8.0599606      493.61137      4936.1025      12.1912      
  47645000   150363.91      104.11271     -43025556       1.6528179      447758.03     -42577798       713.79573      713.79573      713.79573      2143.1021      2856.8979      2143.1021      2856.8979      2143.1021      2856.8979      3.6368202e+08  0.1            15689000       8.1004089      494.4577       4944.5704      12.150617    
  47645200   151810.98      106.0636      -43024786       1.6528179      452067.17     -42572719       713.79573      713.79573      713.79573      2143.1021      2856.8979      2143.1021      2856.8979      2143.1021      2856.8979      3.6368202e+08  0.1            15689020       8.1408294      494.79907      4948.0021      12.109993    
  47645400   153026.8       107.66408     -43033650       1.6528179      455687.69     -42577962       713.79573      713.79573      713.79573      2143.1021      2856.8979      2143.1021      2856.8979      2143.1021      2856.8979      3.6368202e+08  0.1            15689040       8.1813805      493.20381      4932.0371      12.069565    
  47645600   153972.72      110.18553     -43032864       1.6528179      458504.47     -42574360       713.79573      713.79573      713.79573      2143.1021      2856.8979      2143.1021      2856.8979      2143.1021      2856.8979      3.6368202e+08  0.1            15689060       8.2225747      485.50508      4855.0539      12.030076    
  47645800   154631.97      113.19077     -43024696       1.6528179      460467.6      -42564228       713.79573      713.79573      713.79573      2143.1021      2856.8979      2143.1021      2856.8979      2143.1021      2856.8979      3.6368202e+08  0.1            15689080       8.2630492      494.13811      4941.3786      11.989526    
  47646000   155010.14      115.79619     -43014629       1.6528179      461593.73     -42553035       713.79573      713.79573      713.79573      2143.1021      2856.8979      2143.1021      2856.8979      2143.1021      2856.8979      3.6368202e+08  0.1            15689100       8.303612       493.06283      4930.6272      11.949103    
  47646200   155135.22      117.58973     -43013460       1.6528179      461966.2      -42551493       713.79573      713.79573      713.79573      2143.1021      2856.8979      2143.1021      2856.8979      2143.1021      2856.8979      3.6368202e+08  0.1            15689120       8.3441096      493.85656      4938.5679      11.908587    
  47646400   155054.22      119.90887     -43012646       1.6528179      461724.98     -42550921       713.79573      713.79573      713.79573      2143.1021      2856.8979      2143.1021      2856.8979      2143.1021      2856.8979      3.6368202e+08  0.1            15689140       8.3845851      494.12641      4941.2648      11.868039    
  47646600   154834.59      122.54934     -43011456       1.6528179      461070.98     -42550385       713.79573      713.79573      713.79573      2143.1021      2856.8979      2143.1021      2856.8979      2143.1021      2856.8979      3.6368202e+08  0.1            15689160       8.4250921      493.74092      4937.4159      11.827536    
  47646800   154556.69      124.50841     -43010637       1.6528179      460243.44     -42550393       713.79573      713.79573      713.79573      2143.1021      2856.8979      2143.1021      2856.8979      2143.1021      2856.8979      3.6368202e+08  0.1            15689180       8.4655892      493.86424      4938.6356      11.78702     
  47647000   154302.05      126.62905     -43000549       1.6528179      459485.17     -42541064       713.79573      713.79573      713.79573      2143.1021      2856.8979      2143.1021      2856.8979      2143.1021      2856.8979      3.6368202e+08  0.1            15689200       8.5061674      492.87468      4928.7472      11.746615    
  47647200   154148.55      128.95658     -42999736       1.6528179      459028.07     -42540708       713.79573      713.79573      713.79573      2143.1021      2856.8979      2143.1021      2856.8979      2143.1021      2856.8979      3.6368202e+08  0.1            15689220       8.5467101      493.30752      4933.0728      11.70616     
  47647400   154163.53      131.65782     -42998916       1.6528179      459072.66     -42539844       713.79573      713.79573      713.79573      2143.1021      2856.8979      2143.1021      2856.8979      2143.1021      2856.8979      3.6368202e+08  0.1            15689240       8.5871804      494.19019      4941.9047      11.665606    
  47647600   154404.06      134.05281     -42996564       1.6528179      459788.92     -42536775       713.79573      713.79573      713.79573      2143.1021      2856.8979      2143.1021      2856.8979      2143.1021      2856.8979      3.6368202e+08  0.1            15689260       8.6276202      494.56136      4945.6114      11.625012    
  47647800   154909.98      137.2809      -42988353       1.6528179      461295.48     -42527058       713.79573      713.79573      713.79573      2143.1021      2856.8979      2143.1021      2856.8979      2143.1021      2856.8979      3.6368202e+08  0.1            15689280       8.6689972      483.36112      4833.6149      11.585672    
  47648000   155699.39      139.28925     -43002267       1.6528179      463646.19     -42538620       713.79573      713.79573      713.79573      2143.1021      2856.8979      2143.1021      2856.8979      2143.1021      2856.8979      3.6368202e+08  0.1            15689300       8.7094613      494.26436      4942.6407      11.545103    
  47648200   156772.34      141.22133     -43003316       1.6528179      466841.26     -42536475       713.79573      713.79573      713.79573      2143.1021      2856.8979      2143.1021      2856.8979      2143.1021      2856.8979      3.6368202e+08  0.1            15689320       8.7499349      494.15025      4941.5057      11.504547    
  47648400   158104.21      143.49326     -43004365       1.6528179      470807.34     -42533558       713.79573      713.79573      713.79573      2143.1021      2856.8979      2143.1021      2856.8979      2143.1021      2856.8979      3.6368202e+08  0.1            15689340       8.7904211      493.99481      4939.9461      11.464008    
  47648600   159646.02      145.83139     -43007302       1.6528179      475398.59     -42531903       713.79573      713.79573      713.79573      2143.1021      2856.8979      2143.1021      2856.8979      2143.1021      2856.8979      3.6368202e+08  0.1            15689360       8.8308972      494.1183       4941.1763      11.423457    
  47648800   161332.55      147.50205     -43015708       1.6528179      480420.77     -42535288       713.79573      713.79573      713.79573      2143.1021      2856.8979      2143.1021      2856.8979      2143.1021      2856.8979      3.6368202e+08  0.1            15689380       8.8721897      484.35058      4843.5061      11.383954    
  47649000   163088.28      148.98553     -43024104       1.6528179      485649.04     -42538455       713.79573      713.79573      713.79573      2143.1021      2856.8979      2143.1021      2856.8979      2143.1021      2856.8979      3.6368202e+08  0.1            15689400       8.9127512      493.07847      4930.7872      11.343504    
  47649200   164833.44      151.74184     -43015841       1.6528179      490845.83     -42524995       713.79573      713.79573      713.79573      2143.1021      2856.8979      2143.1021      2856.8979      2143.1021      2856.8979      3.6368202e+08  0.1            15689420       8.9533092      493.1196       4931.1869      11.303049    
  47649400   166487.64      154.97563     -43016839       1.6528179      495771.76     -42521068       713.79573      713.79573      713.79573      2143.1021      2856.8979      2143.1021      2856.8979      2143.1021      2856.8979      3.6368202e+08  0.1            15689440       8.9937437      494.6277       4946.2914      11.262439    
  47649600   167976.57      158.79231     -43010443       1.6528179      500205.53     -42510238       713.79573      713.79573      713.79573      2143.1021      2856.8979      2143.1021      2856.8979      2143.1021      2856.8979      3.6368202e+08  0.1            15689460       9.0342032      494.32182      4943.2157      11.22186     
  47649800   169241.01      160.58636     -43024272       1.6528179      503970.84     -42520301       713.79573      713.79573      713.79573      2143.1021      2856.8979      2143.1021      2856.8979      2143.1021      2856.8979      3.6368202e+08  0.1            15689480       9.0747494      493.2623       4932.6189      11.181391    
[...]
  48294400   305.53526      4.6642909     -43117421       1.65998        909.83182     -43116512       712.76766      712.76766      712.76766      2143.6162      2856.3838      2143.6162      2856.3838      2143.6162      2856.3838      3.6211288e+08  0.1            15753940       67.448505      422.12659      4221.2682      2.4704706    
  48294600   305.49139      1.9267991     -43117489       1.6599028      909.70119     -43116579       712.77872      712.77872      712.77872      2143.6106      2856.3894      2143.6106      2856.3894      2143.6106      2856.3894      3.6212972e+08  0.1            15753960       67.494922      430.87986      4308.8033      2.4238509    
  48294800   305.46061     -3.1405086     -43117555       1.6597566      909.60952     -43116645       712.79964      712.79964      712.79964      2143.6002      2856.3998      2143.6002      2856.3998      2143.6002      2856.3998      3.6216161e+08  0.1            15753980       67.54139       430.39924      4303.9941      2.3772333    
  48295000   305.40811     -2.504088      -43117622       1.6597792      909.45319     -43116712       712.79641      712.79641      712.79641      2143.6018      2856.3982      2143.6018      2856.3982      2143.6018      2856.3982      3.6215669e+08  0.1            15754000       67.587894      430.07857      4300.7845      2.3306171    
  48295200   305.48423      4.5206992     -43117688       1.6599908      909.67986     -43116778       712.76613      712.76613      712.76613      2143.6169      2856.3831      2143.6169      2856.3831      2143.6169      2856.3831      3.6211054e+08  0.1            15754020       67.634424      429.82685      4298.2666      2.284002     
  48295400   305.53182      6.9675676     -43117753       1.6600669      909.82159     -43116843       712.75523      712.75523      712.75523      2143.6224      2856.3776      2143.6224      2856.3776      2143.6224      2856.3776      3.6209393e+08  0.1            15754040       67.680853      430.76758      4307.6774      2.2373836    
  48295600   305.46941     -0.80669695    -43117821       1.6598406      909.63573     -43116912       712.78762      712.78762      712.78762      2143.6062      2856.3938      2143.6062      2856.3938      2143.6062      2856.3938      3.621433e+08   0.1            15754060       67.727296      430.63431      4306.3467      2.190766     
  48295800   305.43701     -6.3773614     -43117886       1.6596794      909.53925     -43116976       712.8107       712.8107       712.8107       2143.5947      2856.4053      2143.5947      2856.4053      2143.5947      2856.4053      3.6217847e+08  0.1            15754080       67.773897      429.16977      4291.6825      2.1441536    
  48296000   305.4079       0.6233605     -43117954       1.6598904      909.45259     -43117045       712.78049      712.78049      712.78049      2143.6098      2856.3902      2143.6098      2856.3902      2143.6098      2856.3902      3.6213243e+08  0.1            15754100       67.820412      429.96898      4299.6988      2.0975386    
  48296200   305.48579      8.1887169     -43118018       1.6601181      909.68452     -43117108       712.74791      712.74791      712.74791      2143.626       2856.374       2143.626       2856.374       2143.626       2856.374       3.6208277e+08  0.1            15754120       67.866862      430.57256      4305.7214      2.0509217    
  48296400   305.50602      3.1076603     -43118087       1.6599714      909.74475     -43117177       712.7689       712.7689       712.7689       2143.6155      2856.3845      2143.6155      2856.3845      2143.6155      2856.3845      3.6211476e+08  0.1            15754140       67.913399      429.76692      4297.6786      2.0043077    
  48296600   305.44373     -4.6359528     -43118152       1.6597458      909.55927     -43117243       712.80119      712.80119      712.80119      2143.5994      2856.4006      2143.5994      2856.4006      2143.5994      2856.4006      3.6216397e+08  0.1            15754160       67.959862      430.44914      4304.4848      1.9576916    
  48296800   305.44205     -1.8112341     -43118220       1.6598332      909.55427     -43117310       712.78868      712.78868      712.78868      2143.6057      2856.3943      2143.6057      2856.3943      2143.6057      2856.3943      3.6214491e+08  0.1            15754180       68.006386      429.88673      4298.8657      1.9110774    
  48297000   305.41108      4.6101197     -43118285       1.660027       909.46204     -43117376       712.76094      712.76094      712.76094      2143.6195      2856.3805      2143.6195      2856.3805      2143.6195      2856.3805      3.6210263e+08  0.1            15754200       68.052869      430.26497      4302.6575      1.8644622    
  48297200   305.45768      3.6394827     -43118352       1.660002       909.60083     -43117442       712.76452      712.76452      712.76452      2143.6177      2856.3823      2143.6177      2856.3823      2143.6177      2856.3823      3.6210809e+08  0.1            15754220       68.099277      430.95648      4309.5636      1.8178453    
  48297400   305.47934     -1.0510674     -43118418       1.6598668      909.66531     -43117509       712.78388      712.78388      712.78388      2143.6081      2856.3919      2143.6081      2856.3919      2143.6081      2856.3919      3.6213759e+08  0.1            15754240       68.145684      430.97177      4309.7138      1.7712285    
  48297600   305.44448     -1.2588597     -43118484       1.6598643      909.56152     -43117575       712.78423      712.78423      712.78423      2143.6079      2856.3921      2143.6079      2856.3921      2143.6079      2856.3921      3.6213813e+08  0.1            15754260       68.19207       431.16995      4311.7039      1.7246115    
  48297800   305.44522      2.1906954     -43118551       1.6599701      909.56372     -43117641       712.76909      712.76909      712.76909      2143.6155      2856.3845      2143.6155      2856.3845      2143.6155      2856.3845      3.6211505e+08  0.1            15754280       68.23857       430.10222      4301.0167      1.6779977    
  48298000   305.39447      3.0693903     -43118617       1.6599997      909.41259     -43117707       712.76485      712.76485      712.76485      2143.6176      2856.3824      2143.6176      2856.3824      2143.6176      2856.3824      3.6210858e+08  0.1            15754300       68.285124      429.60719      4296.0676      1.6313853    
  48298200   305.43426      0.29987668    -43118683       1.6599213      909.53106     -43117773       712.77607      712.77607      712.77607      2143.612       2856.388       2143.612       2856.388       2143.612       2856.388       3.6212568e+08  0.1            15754320       68.331566      430.65101      4306.5215      1.5847703    
  48298400   305.46786     -1.0666651     -43118749       1.6598845      909.63113     -43117839       712.78134      712.78134      712.78134      2143.6093      2856.3907      2143.6093      2856.3907      2143.6093      2856.3907      3.6213372e+08  0.1            15754340       68.379004      421.59712      4215.9604      1.5381781    
  48298600   305.4423       1.2996485     -43118815       1.6599581      909.555       -43117906       712.7708       712.7708       712.7708       2143.6146      2856.3854      2143.6146      2856.3854      2143.6146      2856.3854      3.6211765e+08  0.1            15754360       68.425509      430.06508      4300.655       1.4915643    
  48298800   305.43727      3.1512278     -43118881       1.6600165      909.54005     -43117971       712.76244      712.76244      712.76244      2143.6188      2856.3812      2143.6188      2856.3812      2143.6188      2856.3812      3.6210491e+08  0.1            15754380       68.471957      430.58424      4305.8457      1.4449495    
  48299000   305.3763       1.1642073     -43118947       1.6599613      909.35846     -43118038       712.77035      712.77035      712.77035      2143.6148      2856.3852      2143.6148      2856.3852      2143.6148      2856.3852      3.6211697e+08  0.1            15754400       68.518471      429.98158      4299.8131      1.3983362    
  48299200   305.41696     -1.2337647     -43119013       1.6598939      909.47957     -43118104       712.78         712.78         712.78         2143.61        2856.39        2143.61        2856.39        2143.61        2856.39        3.6213168e+08  0.1            15754420       68.56494       430.39437      4303.9405      1.3517222    
  48299400   305.46045      0.20687514    -43119079       1.65994        909.60906     -43118169       712.77339      712.77339      712.77339      2143.6133      2856.3867      2143.6133      2856.3867      2143.6133      2856.3867      3.621216e+08   0.1            15754440       68.611377      430.69142      4306.922       1.3051078    
  48299600   305.43689      3.1960683     -43119145       1.6600321      909.53889     -43118235       712.76022      712.76022      712.76022      2143.6199      2856.3801      2143.6199      2856.3801      2143.6199      2856.3801      3.6210153e+08  0.1            15754460       68.658117      427.89473      4278.9478      1.2584991    
  48299800   305.42304      2.6412402     -43119211       1.6600192      909.49767     -43118301       712.76206      712.76206      712.76206      2143.619       2856.381       2143.619       2856.381       2143.619       2856.381       3.6210434e+08  0.1            15754480       68.70453       430.91969      4309.1865      1.2118846    
  48300000   305.35663     -0.84002897    -43119277       1.6599197      909.29991     -43118367       712.77631      712.77631      712.77631      2143.6118      2856.3882      2143.6118      2856.3882      2143.6118      2856.3882      3.6212605e+08  0.1            15754500       68.751148      429.01595      4290.1596      1.1652737    
  48300200   305.40253     -1.6680931     -43119342       1.6598987      909.43659     -43118433       712.77931      712.77931      712.77931      2143.6103      2856.3897      2143.6103      2856.3897      2143.6103      2856.3897      3.6213062e+08  0.1            15754520       68.797584      430.70079      4307.0134      1.1186599    
  48300400   305.45336      1.8702736     -43119408       1.6600069      909.58794     -43118499       712.76382      712.76382      712.76382      2143.6181      2856.3819      2143.6181      2856.3819      2143.6181      2856.3819      3.6210702e+08  0.1            15754540       68.84406       430.33009      4303.2967      1.072047     
  48300600   305.42848      4.5770467     -43119473       1.6600905      909.51385     -43118564       712.75186      712.75186      712.75186      2143.6241      2856.3759      2143.6241      2856.3759      2143.6241      2856.3759      3.6208879e+08  0.1            15754560       68.89049       430.75567      4307.569       1.0254336    
  48300800   305.40721      1.9717328     -43119540       1.6600169      909.45051     -43118630       712.76238      712.76238      712.76238      2143.6188      2856.3812      2143.6188      2856.3812      2143.6188      2856.3812      3.6210483e+08  0.1            15754580       68.936958      430.40311      4304.0278      0.97882094   
  48301000   305.33662     -2.6652636     -43119605       1.6598833      909.24032     -43118696       712.7815       712.7815       712.7815       2143.6092      2856.3908      2143.6092      2856.3908      2143.6092      2856.3908      3.6213397e+08  0.1            15754600       68.983434      430.3289       4303.2813      0.9322086    
  48301200   305.38612     -2.454884      -43119671       1.6598931      909.38772     -43118761       712.7801       712.7801       712.7801       2143.6099      2856.3901      2143.6099      2856.3901      2143.6099      2856.3901      3.6213183e+08  0.1            15754620       69.029932      430.12405      4301.2427      0.88559673   
  48301400   305.44419      3.059873      -43119736       1.6600598      909.56065     -43118827       712.75625      712.75625      712.75625      2143.6219      2856.3781      2143.6219      2856.3781      2143.6219      2856.3781      3.6209548e+08  0.1            15754640       69.076416      430.25451      4302.5466      0.83898485   
  48301600   305.42143      6.3715188     -43119800       1.6601613      909.49286     -43118891       712.74172      712.74172      712.74172      2143.6291      2856.3709      2143.6291      2856.3709      2143.6291      2856.3709      3.6207334e+08  0.1            15754660       69.122927      430.00984      4300.0951      0.79237343   
  48301800   305.39505      2.2693202     -43119868       1.6600436      909.41432     -43118958       712.75856      712.75856      712.75856      2143.6207      2856.3793      2143.6207      2856.3793      2143.6207      2856.3793      3.62099e+08    0.1            15754680       69.169382      430.52627      4305.2635      0.74576156   
  48302000   305.31853     -4.0727922     -43119932       1.6598598      909.18643     -43119023       712.78487      712.78487      712.78487      2143.6076      2856.3924      2143.6076      2856.3924      2143.6076      2856.3924      3.6213911e+08  0.1            15754700       69.215905      429.89342      4298.9309      0.69915058   
  48302200   305.36879     -3.7248035     -43119998       1.6598738      909.33612     -43119089       712.78288      712.78288      712.78288      2143.6086      2856.3914      2143.6086      2856.3914      2143.6086      2856.3914      3.6213606e+08  0.1            15754720       69.262434      429.84283      4298.429       0.65253978   
  48302400   305.43223      3.1333702     -43120064       1.6600802      909.52501     -43119154       712.75333      712.75333      712.75333      2143.6233      2856.3767      2143.6233      2856.3767      2143.6233      2856.3767      3.6209102e+08  0.1            15754740       69.309068      428.8694       4288.6946      0.60593      
  48302600   305.41195      7.0885902     -43120127       1.6602009      909.46465     -43119218       712.73605      712.73605      712.73605      2143.632       2856.368       2143.632       2856.368       2143.632       2856.368       3.620647e+08   0.1            15754760       69.35645       422.10384      4221.0388      0.55932623   
  48302800   305.38553      2.8213847     -43120195       1.6600785      909.38596     -43119285       712.75357      712.75357      712.75357      2143.6232      2856.3768      2143.6232      2856.3768      2143.6232      2856.3768      3.620914e+08   0.1            15754780       69.402898      430.5822       4305.82        0.51271451   
  48303000   305.30933     -3.5255033     -43120260       1.6598946      909.15905     -43119350       712.77989      712.77989      712.77989      2143.6101      2856.3899      2143.6101      2856.3899      2143.6101      2856.3899      3.6213151e+08  0.1            15754800       69.449417      429.93606      4299.364       0.46610349   
  48303200   305.35938     -3.3758178     -43120325       1.6599029      909.3081      -43119416       712.77871      712.77871      712.77871      2143.6106      2856.3894      2143.6106      2856.3894      2143.6106      2856.3894      3.6212971e+08  0.1            15754820       69.495843      430.79254      4307.9268      0.41949202   
  48303400   305.41891      2.2184443     -43120391       1.6600721      909.48536     -43119481       712.75449      712.75449      712.75449      2143.6228      2856.3772      2143.6228      2856.3772      2143.6228      2856.3772      3.620928e+08   0.1            15754840       69.542286      430.63005      4306.3027      0.37288091   
  48303600   305.39386      4.782831      -43120455       1.6601517      909.41076     -43119546       712.74309      712.74309      712.74309      2143.6285      2856.3715      2143.6285      2856.3715      2143.6285      2856.3715      3.6207543e+08  0.1            15754860       69.588756      430.38864      4303.8827      0.32627013   
  48303800   305.37369      2.0722405     -43120521       1.6600754      909.35072     -43119612       712.75401      712.75401      712.75401      2143.623       2856.377       2143.623       2856.377       2143.623       2856.377       3.6209207e+08  0.1            15754880       69.635246      430.20604      4302.0624      0.27965963   
  48304000   305.31216     -0.31994325    -43120587       1.6600086      909.16748     -43119677       712.76358      712.76358      712.76358      2143.6182      2856.3818      2143.6182      2856.3818      2143.6182      2856.3818      3.6210665e+08  0.1            15754900       69.681805      429.55778      4295.5726      0.23304952   
  48304200   305.3622      -0.29606687    -43120652       1.6600131      909.3165      -43119742       712.76293      712.76293      712.76293      2143.6185      2856.3815      2143.6185      2856.3815      2143.6185      2856.3815      3.6210566e+08  0.1            15754920       69.728273      430.39917      4303.9945      0.18643924   
  48304400   305.40706      1.100496      -43120717       1.6600583      909.45006     -43119807       712.75647      712.75647      712.75647      2143.6218      2856.3782      2143.6218      2856.3782      2143.6218      2856.3782      3.6209581e+08  0.1            15754940       69.774797      429.88812      4298.8785      0.13982926   
  48304600   305.37652      2.1072605     -43120782       1.6600918      909.35913     -43119873       712.75166      712.75166      712.75166      2143.6242      2856.3758      2143.6242      2856.3758      2143.6242      2856.3758      3.6208849e+08  0.1            15754960       69.821219      430.83282      4308.3296      0.093219254  
  48304800   305.36516      1.7067028     -43120847       1.6600838      909.32529     -43119938       712.75281      712.75281      712.75281      2143.6236      2856.3764      2143.6236      2856.3764      2143.6236      2856.3764      3.6209023e+08  0.1            15754980       69.867708      430.2068       4302.0701      0.046609547  
  48305000   305.30819      0.51771499    -43120913       1.6600525      909.15565     -43120003       712.75729      712.75729      712.75729      2143.6214      2856.3786      2143.6214      2856.3786      2143.6214      2856.3786      3.6209706e+08  0.1            15755000       69.914204      430.14907      4301.4709      0            
Loop time of 69.9142 on 1 procs for 300000 steps with 1000 atoms

Performance: 37.074 ns/day, 0.647 hours/ns, 4290.973 timesteps/s
99.7% CPU use with 1 MPI tasks x 1 OpenMP threads

MPI task timing breakdown:
Section |  min time  |  avg time  |  max time  |%varavg| %total
---------------------------------------------------------------
Pair    | 54.712     | 54.712     | 54.712     |   0.0 | 78.26
Neigh   | 0.020745   | 0.020745   | 0.020745   |   0.0 |  0.03
Comm    | 2.0395     | 2.0395     | 2.0395     |   0.0 |  2.92
Output  | 0.053896   | 0.053896   | 0.053896   |   0.0 |  0.08
Modify  | 11.531     | 11.531     | 11.531     |   0.0 | 16.49
Other   |            | 1.557      |            |       |  2.23

Nlocal:           1000 ave        1000 max        1000 min
Histogram: 1 0 0 0 0 0 0 0 0 0
Nghost:           1314 ave        1314 max        1314 min
Histogram: 1 0 0 0 0 0 0 0 0 0
Neighs:           6545 ave        6545 max        6545 min
Histogram: 1 0 0 0 0 0 0 0 0 0

Total # of neighbors = 6545
Ave neighs/atom = 6.545
Neighbor list builds = 29
Dangerous builds = 0

# run_style
run_style verlet

# write restart
write_restart ${write_res}
write_restart ./pgnpmf/37/equpmf69.res
System init for write_restart ...
Generated 0 of 1 mixed pair_coeff terms from geometric mixing rule

Total wall time: 0:02:32
