LAMMPS (23 Jun 2022 - Update 1)
# Read restart
read_restart ${read_res}
read_restart ./pgnpmf/37/equpmf21.res
Reading restart file ...
  restart file = 23 Jun 2022, LAMMPS = 23 Jun 2022
  restoring atom style atomic from restart
  orthogonal box = (1933.9622 1933.9622 1933.9622) to (3066.0378 3066.0378 3066.0378)
  1 by 2 by 2 MPI processor grid
  restoring pair style table from restart
  1000 atoms
  read_restart CPU = 0.016 seconds

# Settings

pair_style table spline 9941

pair_coeff 1 1 ./pgnpmf/N20.txt DE_GNP 75.6
pair_coeff 2 2 ./pgnpmf/N100.txt DE_GNP 115.92
WARNING: 3 of 9941 force values in table DE_GNP are inconsistent with -dE/dr.
WARNING:  Should only be flagged at inflection points (../pair_table.cpp:463)
pair_coeff 1 2 ./pgnpmf/mixed_potential.txt DE_GNP 95.66
WARNING: 1562 of 9941 force values in table DE_GNP are inconsistent with -dE/dr.
WARNING:  Should only be flagged at inflection points (../pair_table.cpp:463)

#Neigh_list Calc Frequency

neigh_modify delay 0 every 1 check yes

# Saving Frequency (50 frames)

variable ts_save equal ${steps_equ}
variable ts_save equal 5000

# Dump
#dump 1 all custom ${ts_save} ./pgnpmf/${folder}/equilibration/trajectory/trajectory_${usic}_${trial}.equ.custom type x y z ix iy iz
#dump_modify 1 first no sort id
#dump 2 all cfg 50000 ./equilibration/trajectory/ovito/dumpgen.tens_*.cfg mass type xs ys zs fx fy fz

# thermo_style
thermo_style custom step temp press pe density ke etotal lx ly lz xlo xhi ylo yhi zlo zhi vol dt time cpu tpcpu spcpu cpuremain

# run info
timestep ${ts}
timestep 0.5
thermo 200

# fix

fix 1 all momentum 1000 linear 1 1 1 angular
variable T equal ${temp}
variable T equal 300
fix 2 all nvt temp ${T} 370000 100.0
fix 2 all nvt temp 300 370000 100.0

run 100000
Generated 0 of 1 mixed pair_coeff terms from geometric mixing rule
Unused restart file global fix info:
  fix style: npt, fix ID: 5
Neighbor list info ...
  update every 1 steps, delay 0 steps, check yes
  max neighbors/atom: 2000, page size: 100000
  master list distance cutoff = 117.92
  ghost atom cutoff = 117.92
  binsize = 58.96, bins = 20 20 20
  1 neighbor lists, perpetual/occasional/extra = 1 0 0
  (1) pair table, perpetual
      attributes: half, newton on
      pair build: half/bin/atomonly/newton
      stencil: half/bin/3d
      bin: standard
Per MPI rank memory allocation (min/avg/max) = 3.083 | 3.085 | 3.088 Mbytes
   Step          Temp          Press          PotEng        Density         KinEng         TotEng           Lx             Ly             Lz            Xlo            Xhi            Ylo            Yhi            Zlo            Zhi           Volume           Dt            Time           CPU           T/CPU          S/CPU         CPULeft    
  14705000   307.64148      1.6065572     -31789444       0.41430531     916.10381     -31788527       1132.0756      1132.0756      1132.0756      1933.9622      3066.0378      1933.9622      3066.0378      1933.9622      3066.0378      1.4508628e+09  0.5            7355000        0              0              0              0            
  14705200   398.34039      1.4625819     -31789546       0.41430531     1186.1897     -31788360       1132.0756      1132.0756      1132.0756      1933.9622      3066.0378      1933.9622      3066.0378      1933.9622      3066.0378      1.4508628e+09  0.5            7355100        0.018161775    5505.8406      11011.106      9.0639483    
  14705400   595.93756      1.3144155     -31789668       0.41430531     1774.6003     -31787893       1132.0756      1132.0756      1132.0756      1933.9622      3066.0378      1933.9622      3066.0378      1933.9622      3066.0378      1.4508628e+09  0.5            7355200        0.036318281    5507.6597      11015.347      9.0438785    
  14705600   930.69264      1.120581      -31789818       0.41430531     2771.4438     -31787047       1132.0756      1132.0756      1132.0756      1933.9622      3066.0378      1933.9622      3066.0378      1933.9622      3066.0378      1.4508628e+09  0.5            7355300        0.055495874    5214.4663      10428.937      9.1941977    
  14705800   1466.5538      0.87718541    -31790007       0.41430531     4367.1467     -31785639       1132.0756      1132.0756      1132.0756      1933.9622      3066.0378      1933.9622      3066.0378      1933.9622      3066.0378      1.4508628e+09  0.5            7355400        0.073828943    5454.6262      10909.235      9.155091     
  14706000   2279.1279      0.6502825     -31782861       0.41430531     6786.8537     -31776074       1132.0756      1132.0756      1132.0756      1933.9622      3066.0378      1933.9622      3066.0378      1933.9622      3066.0378      1.4508628e+09  0.5            7355500        0.09199079     5505.8754      11011.747      9.1073776    
  14706200   3422.3795      0.14826137    -31790526       0.41430531     10191.262     -31780334       1132.0756      1132.0756      1132.0756      1933.9622      3066.0378      1933.9622      3066.0378      1933.9622      3066.0378      1.4508628e+09  0.5            7355600        0.11018755     5495.6454      10991.287      9.0723044    
  14706400   4842.1906     -0.31392571    -31790863       0.41430531     14419.217     -31776444       1132.0756      1132.0756      1132.0756      1933.9622      3066.0378      1933.9622      3066.0378      1933.9622      3066.0378      1.4508628e+09  0.5            7355700        0.12835995     5502.8696      11005.722      9.040373     
  14706600   6284.2074     -0.90516222    -31798631       0.41430531     18713.296     -31779918       1132.0756      1132.0756      1132.0756      1933.9622      3066.0378      1933.9622      3066.0378      1933.9622      3066.0378      1.4508628e+09  0.5            7355800        0.14718735     5311.4203      10622.906      9.0521562    
  14706800   7301.7859     -1.4418409     -31799056       0.41430531     21743.472     -31777312       1132.0756      1132.0756      1132.0756      1933.9622      3066.0378      1933.9622      3066.0378      1933.9622      3066.0378      1.4508628e+09  0.5            7355900        0.1654535      5474.6089      10949.24       9.026526     
  14707000   7704.4247     -2.1501516     -31799485       0.41430531     22942.461     -31776542       1132.0756      1132.0756      1132.0756      1933.9622      3066.0378      1933.9622      3066.0378      1933.9622      3066.0378      1.4508628e+09  0.5            7356000        0.18361652     5505.6939      11011.326      8.9973196    
  14707200   8092.0143     -2.7881885     -31799907       0.41430531     24096.637     -31775811       1132.0756      1132.0756      1132.0756      1933.9622      3066.0378      1933.9622      3066.0378      1933.9622      3066.0378      1.4508628e+09  0.5            7356100        0.20184494     5485.9471      10971.957      8.9730184    
  14707400   9051.0821     -3.2603606     -31792955       0.41430531     26952.577     -31766003       1132.0756      1132.0756      1132.0756      1933.9622      3066.0378      1933.9622      3066.0378      1933.9622      3066.0378      1.4508628e+09  0.5            7356200        0.22031659     5413.6801      10827.385      8.9596284    
  14707600   10189.814     -3.6320192     -31793394       0.41430531     30343.525     -31763051       1132.0756      1132.0756      1132.0756      1933.9622      3066.0378      1933.9622      3066.0378      1933.9622      3066.0378      1.4508628e+09  0.5            7356300        0.23839974     5530.0302      11060.053      8.9308958    
  14707800   10852.843     -4.1929538     -31793831       0.41430531     32317.914     -31761514       1132.0756      1132.0756      1132.0756      1933.9622      3066.0378      1933.9622      3066.0378      1933.9622      3066.0378      1.4508628e+09  0.5            7356400        0.25690322     5404.3865      10808.72       8.9182859    
  14708000   11180.504     -4.8713714     -31786881       0.41430531     33293.632     -31753587       1132.0756      1132.0756      1132.0756      1933.9622      3066.0378      1933.9622      3066.0378      1933.9622      3066.0378      1.4508628e+09  0.5            7356500        0.27541091     5403.1121      10806.2        8.9050322    
  14708200   11870.105     -5.6321712     -31787301       0.41430531     35347.145     -31751954       1132.0756      1132.0756      1132.0756      1933.9622      3066.0378      1933.9622      3066.0378      1933.9622      3066.0378      1.4508628e+09  0.5            7356600        0.29500646     5103.238       10206.507      8.9240096    
  14708400   13004.315     -6.2663156     -31787710       0.41430531     38724.629     -31748985       1132.0756      1132.0756      1132.0756      1933.9622      3066.0378      1933.9622      3066.0378      1933.9622      3066.0378      1.4508628e+09  0.5            7356700        0.31320414     5495.2048      10990.415      8.8987464    
  14708600   13916.615     -6.8140025     -31788108       0.41430531     41441.304     -31746667       1132.0756      1132.0756      1132.0756      1933.9622      3066.0378      1933.9622      3066.0378      1933.9622      3066.0378      1.4508628e+09  0.5            7356800        0.33174522     5393.4236      10786.849      8.8834604    
  14708800   14311.026     -7.4442596     -31788472       0.41430531     42615.791     -31745856       1132.0756      1132.0756      1132.0756      1933.9622      3066.0378      1933.9622      3066.0378      1933.9622      3066.0378      1.4508628e+09  0.5            7356900        0.35017095     5427.2025      10854.434      8.8649085    
  14709000   14768.168     -7.8459069     -31781424       0.41430531     43977.083     -31737447       1132.0756      1132.0756      1132.0756      1933.9622      3066.0378      1933.9622      3066.0378      1933.9622      3066.0378      1.4508628e+09  0.5            7357000        0.36850608     5454.0071      10907.956      8.8442001    
  14709200   15768.295     -8.3044942     -31789098       0.41430531     46955.289     -31742143       1132.0756      1132.0756      1132.0756      1933.9622      3066.0378      1933.9622      3066.0378      1933.9622      3066.0378      1.4508628e+09  0.5            7357100        0.38706578     5387.9691      10775.957      8.8288437    
  14709400   16872.119     -8.8984247     -31789357       0.41430531     50242.289     -31739115       1132.0756      1132.0756      1132.0756      1933.9622      3066.0378      1933.9622      3066.0378      1933.9622      3066.0378      1.4508628e+09  0.5            7357200        0.40526796     5493.8885      10987.754      8.8054184    
  14709600   17467.53      -9.6476111     -31796970       0.41430531     52015.322     -31744955       1132.0756      1132.0756      1132.0756      1933.9622      3066.0378      1933.9622      3066.0378      1933.9622      3066.0378      1.4508628e+09  0.5            7357300        0.4234462      5501.0729      11002.191      8.7819534    
  14709800   17788.063     -10.189604     -31799052       0.41430531     52969.815     -31746082       1132.0756      1132.0756      1132.0756      1933.9622      3066.0378      1933.9622      3066.0378      1933.9622      3066.0378      1.4508628e+09  0.5            7357400        0.44223264     5323.0124      10646.037      8.7709893    
  14710000   18542.948     -10.46179      -31799195       0.41430531     55217.734     -31743977       1132.0756      1132.0756      1132.0756      1933.9622      3066.0378      1933.9622      3066.0378      1933.9622      3066.0378      1.4508628e+09  0.5            7357500        0.46075665     5398.3863      10796.676      8.7544211    
  14710200   19709.57      -10.742443     -31791911       0.41430531     58691.734     -31733219       1132.0756      1132.0756      1132.0756      1933.9622      3066.0378      1933.9622      3066.0378      1933.9622      3066.0378      1.4508628e+09  0.5            7357600        0.47929485     5394.2705      10788.605      8.7379547    
  14710400   20567.858     -11.198911     -31807086       0.41430531     61247.57      -31745838       1132.0756      1132.0756      1132.0756      1933.9622      3066.0378      1933.9622      3066.0378      1933.9622      3066.0378      1.4508628e+09  0.5            7357700        0.49741335     5519.2295      11038.487      8.7139826    
  14710600   20915.712     -11.679703     -31807096       0.41430531     62283.419     -31744812       1132.0756      1132.0756      1132.0756      1933.9622      3066.0378      1933.9622      3066.0378      1933.9622      3066.0378      1.4508628e+09  0.5            7357800        0.5155358      5518.0131      11036.05       8.690498     
  14710800   21413.221     -12.13834      -31807068       0.41430531     63764.914     -31743303       1132.0756      1132.0756      1132.0756      1933.9622      3066.0378      1933.9622      3066.0378      1933.9622      3066.0378      1.4508628e+09  0.5            7357900        0.53401353     5411.9155      10823.789      8.6731529    
  14711000   22475.627     -12.437753     -31808903       0.41430531     66928.579     -31741975       1132.0756      1132.0756      1132.0756      1933.9622      3066.0378      1933.9622      3066.0378      1933.9622      3066.0378      1.4508628e+09  0.5            7358000        0.55246646     5419.1948      10838.336      8.6553443    
  14711200   23561.727     -12.698626     -31806930       0.41430531     70162.798     -31736767       1132.0756      1132.0756      1132.0756      1933.9622      3066.0378      1933.9622      3066.0378      1933.9622      3066.0378      1.4508628e+09  0.5            7358100        0.57079308     5456.5572      10913.2        8.6355795    
  14711400   24084.409     -13.05611      -31806827       0.41430531     71719.257     -31735108       1132.0756      1132.0756      1132.0756      1933.9622      3066.0378      1933.9622      3066.0378      1933.9622      3066.0378      1.4508628e+09  0.5            7358200        0.58932147     5397.0953      10794.16       8.6188613    
  14711600   24410.429     -13.54954      -31810506       0.41430531     72690.088     -31737815       1132.0756      1132.0756      1132.0756      1933.9622      3066.0378      1933.9622      3066.0378      1933.9622      3066.0378      1.4508628e+09  0.5            7358300        0.6075083      5498.4949      10997.025      8.597193     
  14711800   25241.048     -13.824978     -31810384       0.41430531     75163.532     -31735220       1132.0756      1132.0756      1132.0756      1933.9622      3066.0378      1933.9622      3066.0378      1933.9622      3066.0378      1.4508628e+09  0.5            7358400        0.62565693     5510.073       11020.16       8.5752086    
  14712000   26429.226     -14.036027     -31810258       0.41430531     78701.723     -31731556       1132.0756      1132.0756      1132.0756      1933.9622      3066.0378      1933.9622      3066.0378      1933.9622      3066.0378      1.4508628e+09  0.5            7358500        0.64429166     5366.3117      10732.531      8.5599062    
  14712200   27220.566     -14.361635     -31810144       0.41430531     81058.196     -31729086       1132.0756      1132.0756      1132.0756      1933.9622      3066.0378      1933.9622      3066.0378      1933.9622      3066.0378      1.4508628e+09  0.5            7358600        0.66278499     5407.3518      10814.762      8.5425904    
  14712400   27526.126     -14.745586     -31802677       0.41430531     81968.102     -31720709       1132.0756      1132.0756      1132.0756      1933.9622      3066.0378      1933.9622      3066.0378      1933.9622      3066.0378      1.4508628e+09  0.5            7358700        0.68089932     5520.4964      11041.003      8.5204695    
  14712600   28079.921     -15.243593     -31811896       0.41430531     83617.21      -31728279       1132.0756      1132.0756      1132.0756      1933.9622      3066.0378      1933.9622      3066.0378      1933.9622      3066.0378      1.4508628e+09  0.5            7358800        0.69937588     5412.2523      10824.518      8.5029647    
  14712800   29208.337     -15.739181     -31819261       0.41430531     86977.441     -31732284       1132.0756      1132.0756      1132.0756      1933.9622      3066.0378      1933.9622      3066.0378      1933.9622      3066.0378      1.4508628e+09  0.5            7358900        0.71980533     4894.9059      9789.7916      8.5084943    
  14713000   30258.274     -16.004134     -31819290       0.41430531     90103.974     -31729186       1132.0756      1132.0756      1132.0756      1933.9622      3066.0378      1933.9622      3066.0378      1933.9622      3066.0378      1.4508628e+09  0.5            7359000        0.73810118     5465.7269      10931.42       8.4881896    
  14713200   30699.521     -16.252074     -31811987       0.41430531     91417.931     -31720569       1132.0756      1132.0756      1132.0756      1933.9622      3066.0378      1933.9622      3066.0378      1933.9622      3066.0378      1.4508628e+09  0.5            7359100        0.75748131     5159.9025      10319.824      8.4801218    
  14713400   31024.835     -16.787618     -31804726       0.41430531     92386.66      -31712340       1132.0756      1132.0756      1132.0756      1933.9622      3066.0378      1933.9622      3066.0378      1933.9622      3066.0378      1.4508628e+09  0.5            7359200        0.77580892     5456.2479      10912.468      8.4600373    
  14713600   31944.008     -17.38861      -31819643       0.41430531     95123.8       -31724519       1132.0756      1132.0756      1132.0756      1933.9622      3066.0378      1933.9622      3066.0378      1933.9622      3066.0378      1.4508628e+09  0.5            7359300        0.79446511     5360.1834      10720.413      8.4435237    
  14713800   33162.432     -17.84654      -31821719       0.41430531     98752.061     -31722967       1132.0756      1132.0756      1132.0756      1933.9622      3066.0378      1933.9622      3066.0378      1933.9622      3066.0378      1.4508628e+09  0.5            7359400        0.81291537     5419.9446      10839.902      8.4247826    
  14714000   33867.472     -18.260899     -31821926       0.41430531     100851.55     -31721075       1132.0756      1132.0756      1132.0756      1933.9622      3066.0378      1933.9622      3066.0378      1933.9622      3066.0378      1.4508628e+09  0.5            7359500        0.83107044     5508.0941      11016.156      8.4030693    
  14714200   34093.672     -18.879374     -31822138       0.41430531     101525.13     -31720613       1132.0756      1132.0756      1132.0756      1933.9622      3066.0378      1933.9622      3066.0378      1933.9622      3066.0378      1.4508628e+09  0.5            7359600        0.84947671     5432.957       10865.891      8.3839878    
  14714400   34703.086     -19.304646     -31822337       0.41430531     103339.86     -31718997       1132.0756      1132.0756      1132.0756      1933.9622      3066.0378      1933.9622      3066.0378      1933.9622      3066.0378      1.4508628e+09  0.5            7359700        0.86806926     5378.4758      10756.948      8.366734     
  14714600   35940.142     -19.703239     -31822526       0.41430531     107023.61     -31715503       1132.0756      1132.0756      1132.0756      1933.9622      3066.0378      1933.9622      3066.0378      1933.9622      3066.0378      1.4508628e+09  0.5            7359800        0.88624725     5501.1873      11002.424      8.3455146    
  14714800   36965.331     -20.320965     -31824586       0.41430531     110076.44     -31714509       1132.0756      1132.0756      1132.0756      1933.9622      3066.0378      1933.9622      3066.0378      1933.9622      3066.0378      1.4508628e+09  0.5            7359900        0.90435477     5522.5613      11045.132      8.3237746    
  14715000   37275.378     -20.754285     -31824708       0.41430531     110999.71     -31713708       1132.0756      1132.0756      1132.0756      1933.9622      3066.0378      1933.9622      3066.0378      1933.9622      3066.0378      1.4508628e+09  0.5            7360000        0.92321544     5302.0321      10604.048      8.3089586    
  14715200   37576.444     -21.135494     -31824778       0.41430531     111896.23     -31712881       1132.0756      1132.0756      1132.0756      1933.9622      3066.0378      1933.9622      3066.0378      1933.9622      3066.0378      1.4508628e+09  0.5            7360100        0.94141569     5494.4367      10988.87       8.2881695    
  14715400   38635.616     -21.663647     -31824795       0.41430531     115050.27     -31709744       1132.0756      1132.0756      1132.0756      1933.9622      3066.0378      1933.9622      3066.0378      1933.9622      3066.0378      1.4508628e+09  0.5            7360200        0.95992212     5403.4964      10807.015      8.2701168    
  14715600   39923.55      -21.876955     -31822850       0.41430531     118885.51     -31703965       1132.0756      1132.0756      1132.0756      1933.9622      3066.0378      1933.9622      3066.0378      1933.9622      3066.0378      1.4508628e+09  0.5            7360300        0.9788765      5275.8407      10551.592      8.2558277    
  14715800   40505.761     -22.091187     -31822720       0.41430531     120619.24     -31702101       1132.0756      1132.0756      1132.0756      1933.9622      3066.0378      1933.9622      3066.0378      1933.9622      3066.0378      1.4508628e+09  0.5            7360400        0.9970522      5501.8701      11003.794      8.2349305    
  14716000   40625.95      -22.588377     -31824401       0.41430531     120977.14     -31703424       1132.0756      1132.0756      1132.0756      1933.9622      3066.0378      1933.9622      3066.0378      1933.9622      3066.0378      1.4508628e+09  0.5            7360500        1.015215       5505.7369      11011.405      8.2140317    
  14716200   41352.094     -22.903026     -31833388       0.41430531     123139.47     -31710248       1132.0756      1132.0756      1132.0756      1933.9622      3066.0378      1933.9622      3066.0378      1933.9622      3066.0378      1.4508628e+09  0.5            7360600        1.0337377      5398.7763      10797.559      8.1960829    
  14716400   42738.166     -23.081133     -31833019       0.41430531     127266.96     -31705752       1132.0756      1132.0756      1132.0756      1933.9622      3066.0378      1933.9622      3066.0378      1933.9622      3066.0378      1.4508628e+09  0.5            7360700        1.0521707      5425.0888      10850.22       8.177414     
  14716600   43665.347     -23.318393     -31832549       0.41430531     130027.95     -31702521       1132.0756      1132.0756      1132.0756      1933.9622      3066.0378      1933.9622      3066.0378      1933.9622      3066.0378      1.4508628e+09  0.5            7360800        1.0704713      5464.2948      10928.594      8.1577463    
  14716800   43840.347     -23.478977     -31833885       0.41430531     130549.07     -31703336       1132.0756      1132.0756      1132.0756      1933.9622      3066.0378      1933.9622      3066.0378      1933.9622      3066.0378      1.4508628e+09  0.5            7360900        1.0888968      5427.2561      10854.578      8.139058     
  14717000   44240.265     -23.658902     -31847998       0.41430531     131739.95     -31716258       1132.0756      1132.0756      1132.0756      1933.9622      3066.0378      1933.9622      3066.0378      1933.9622      3066.0378      1.4508628e+09  0.5            7361000        1.1070117      5520.3038      11040.536      8.1181027    
  14717200   45606.164     -23.579048     -31839874       0.41430531     135807.37     -31704067       1132.0756      1132.0756      1132.0756      1933.9622      3066.0378      1933.9622      3066.0378      1933.9622      3066.0378      1.4508628e+09  0.5            7361100        1.1251578      5510.8394      11021.696      8.0974632    
  14717400   46772.915     -23.693799     -31846424       0.41430531     139281.76     -31707142       1132.0756      1132.0756      1132.0756      1933.9622      3066.0378      1933.9622      3066.0378      1933.9622      3066.0378      1.4508628e+09  0.5            7361200        1.1438062      5362.3921      10724.82       8.0804527    
  14717600   47061.425     -23.666405     -31852903       0.41430531     140140.89     -31712762       1132.0756      1132.0756      1132.0756      1933.9622      3066.0378      1933.9622      3066.0378      1933.9622      3066.0378      1.4508628e+09  0.5            7361300        1.1621583      5448.9629      10897.924      8.0613348    
  14717800   47782.905     -23.788977     -31851955       0.41430531     142289.33     -31709666       1132.0756      1132.0756      1132.0756      1933.9622      3066.0378      1933.9622      3066.0378      1933.9622      3066.0378      1.4508628e+09  0.5            7361400        1.180312       5508.5207      11017.06       8.0408896    
  14718000   49641.015     -23.537541     -31843582       0.41430531     147822.46     -31695760       1132.0756      1132.0756      1132.0756      1933.9622      3066.0378      1933.9622      3066.0378      1933.9622      3066.0378      1.4508628e+09  0.5            7361500        1.1988118      5405.47        10810.823      8.0228332    
  14718200   49646.534     -23.822162     -31842572       0.41430531     147838.9      -31694733       1132.0756      1132.0756      1132.0756      1933.9622      3066.0378      1933.9622      3066.0378      1933.9622      3066.0378      1.4508628e+09  0.5            7361600        1.2169731      5506.2256      11012.532      8.0025341    
  14718400   48093.519     -24.213629     -31841602       0.41430531     143214.29     -31698388       1132.0756      1132.0756      1132.0756      1933.9622      3066.0378      1933.9622      3066.0378      1933.9622      3066.0378      1.4508628e+09  0.5            7361700        1.235416       5422.1372      10844.288      7.9841198    
  14718600   48741.159     -24.163114     -31833328       0.41430531     145142.85     -31688185       1132.0756      1132.0756      1132.0756      1933.9622      3066.0378      1933.9622      3066.0378      1933.9622      3066.0378      1.4508628e+09  0.5            7361800        1.253713       5465.3347      10930.669      7.9647791    
  14718800   51809.282     -24.103952     -31825137       0.41430531     154279.19     -31670857       1132.0756      1132.0756      1132.0756      1933.9622      3066.0378      1933.9622      3066.0378      1933.9622      3066.0378      1.4508628e+09  0.5            7361900        1.2723019      5379.5637      10759.116      7.9472907    
  14719000   52300.675     -24.381082     -31833693       0.41430531     155742.48     -31677950       1132.0756      1132.0756      1132.0756      1933.9622      3066.0378      1933.9622      3066.0378      1933.9622      3066.0378      1.4508628e+09  0.5            7362000        1.2903633      5536.7061      11067.663      7.9265886    
  14719200   52408.848     -24.600223     -31833104       0.41430531     156064.6      -31677039       1132.0756      1132.0756      1132.0756      1933.9622      3066.0378      1933.9622      3066.0378      1933.9622      3066.0378      1.4508628e+09  0.5            7362100        1.3084978      5514.3313      11034.352      7.9062894    
  14719400   54020.641     -24.590168     -31827170       0.41430531     160864.24     -31666305       1132.0756      1132.0756      1132.0756      1933.9622      3066.0378      1933.9622      3066.0378      1933.9622      3066.0378      1.4508628e+09  0.5            7362200        1.3269802      5410.5747      10821.182      7.8881727    
  14719600   56251.863     -24.782241     -31826852       0.41430531     167508.44     -31659344       1132.0756      1132.0756      1132.0756      1933.9622      3066.0378      1933.9622      3066.0378      1933.9622      3066.0378      1.4508628e+09  0.5            7362300        1.3452537      5472.3731      10944.711      7.8688265    
  14719800   55010.686     -25.243464     -31819297       0.41430531     163812.43     -31655484       1132.0756      1132.0756      1132.0756      1933.9622      3066.0378      1933.9622      3066.0378      1933.9622      3066.0378      1.4508628e+09  0.5            7362400        1.3640462      5321.2845      10642.571      7.8524953    
  14720000   52055.111     -25.922656     -31819268       0.41430531     155011.23     -31664257       1132.0756      1132.0756      1132.0756      1933.9622      3066.0378      1933.9622      3066.0378      1933.9622      3066.0378      1.4508628e+09  0.5            7362500        1.3821878      5512.2073      11024.394      7.8324103    
  14720200   54757.897     -26.027021     -31812369       0.41430531     163059.67     -31649309       1132.0756      1132.0756      1132.0756      1933.9622      3066.0378      1933.9622      3066.0378      1933.9622      3066.0378      1.4508628e+09  0.5            7362600        1.4003336      5510.8728      11021.712      7.812401     
  14720400   56731.181     -26.003248     -31805204       0.41430531     168935.77     -31636268       1132.0756      1132.0756      1132.0756      1933.9622      3066.0378      1933.9622      3066.0378      1933.9622      3066.0378      1.4508628e+09  0.5            7362700        1.4188097      5412.4275      10824.956      7.7942523    
  14720600   58351.743     -26.057345     -31798134       0.41430531     173761.53     -31624373       1132.0756      1132.0756      1132.0756      1933.9622      3066.0378      1933.9622      3066.0378      1933.9622      3066.0378      1.4508628e+09  0.5            7362800        1.4368639      5538.912       11077.802      7.7738135    
  14720800   59521.661     -26.299236     -31798849       0.41430531     177245.34     -31621604       1132.0756      1132.0756      1132.0756      1933.9622      3066.0378      1933.9622      3066.0378      1933.9622      3066.0378      1.4508628e+09  0.5            7362900        1.4555273      5358.0665      10716.167      7.7566816    
  14721000   59427.801     -27.008907     -31808458       0.41430531     176965.84     -31631492       1132.0756      1132.0756      1132.0756      1933.9622      3066.0378      1933.9622      3066.0378      1933.9622      3066.0378      1.4508628e+09  0.5            7363000        1.4738131      5468.7199      10937.33       7.737531     
  14721200   58738.681     -27.260367     -31808754       0.41430531     174913.76     -31633840       1132.0756      1132.0756      1132.0756      1933.9622      3066.0378      1933.9622      3066.0378      1933.9622      3066.0378      1.4508628e+09  0.5            7363100        1.4919713      5507.1486      11014.38       7.7177388    
  14721400   60527.663     -27.146393     -31794240       0.41430531     180241.04     -31613999       1132.0756      1132.0756      1132.0756      1933.9622      3066.0378      1933.9622      3066.0378      1933.9622      3066.0378      1.4508628e+09  0.5            7363200        1.5104094      5423.5426      10847.085      7.6994148    
  14721600   63484.118     -27.355084     -31779628       0.41430531     189044.86     -31590583       1132.0756      1132.0756      1132.0756      1933.9622      3066.0378      1933.9622      3066.0378      1933.9622      3066.0378      1.4508628e+09  0.5            7363300        1.5285136      5523.5921      11047.188      7.67941      
  14721800   62820.815     -27.447605     -31787014       0.41430531     187069.66     -31599944       1132.0756      1132.0756      1132.0756      1933.9622      3066.0378      1933.9622      3066.0378      1933.9622      3066.0378      1.4508628e+09  0.5            7363400        1.5471746      5358.78        10717.525      7.6622085    
  14722000   60630.266     -27.707052     -31779490       0.41430531     180546.58     -31598943       1132.0756      1132.0756      1132.0756      1933.9622      3066.0378      1933.9622      3066.0378      1933.9622      3066.0378      1.4508628e+09  0.5            7363500        1.5655995      5427.417       10854.75       7.6438212    
  14722200   61741.937     -28.076654     -31797742       0.41430531     183856.94     -31613885       1132.0756      1132.0756      1132.0756      1933.9622      3066.0378      1933.9622      3066.0378      1933.9622      3066.0378      1.4508628e+09  0.5            7363600        1.5837771      5501.2687      11002.642      7.6242395    
  14722400   65998.707     -28.121024     -31806542       0.41430531     196532.88     -31610009       1132.0756      1132.0756      1132.0756      1933.9622      3066.0378      1933.9622      3066.0378      1933.9622      3066.0378      1.4508628e+09  0.5            7363700        1.6023233      5391.9564      10783.884      7.6064415    
  14722600   65925.241     -28.217465     -31818745       0.41430531     196314.11     -31622431       1132.0756      1132.0756      1132.0756      1933.9622      3066.0378      1933.9622      3066.0378      1933.9622      3066.0378      1.4508628e+09  0.5            7363800        1.6205203      5495.2821      10990.566      7.5869935    
  14722800   64557.295     -28.208426     -31814325       0.41430531     192240.6      -31622085       1132.0756      1132.0756      1132.0756      1933.9622      3066.0378      1933.9622      3066.0378      1933.9622      3066.0378      1.4508628e+09  0.5            7363900        1.6390249      5404.1806      10808.375      7.5689902    
  14723000   65875.845     -28.094403     -31811441       0.41430531     196167.02     -31615274       1132.0756      1132.0756      1132.0756      1933.9622      3066.0378      1933.9622      3066.0378      1933.9622      3066.0378      1.4508628e+09  0.5            7364000        1.6575046      5411.3149      10822.612      7.550865     
  14723200   69271.254     -27.477572     -31810251       0.41430531     206277.97     -31603973       1132.0756      1132.0756      1132.0756      1933.9622      3066.0378      1933.9622      3066.0378      1933.9622      3066.0378      1.4508628e+09  0.5            7364100        1.6762475      5335.3656      10670.728      7.5339144    
  14723400   68618.432     -27.32934      -31801519       0.41430531     204333.97     -31597185       1132.0756      1132.0756      1132.0756      1933.9622      3066.0378      1933.9622      3066.0378      1933.9622      3066.0378      1.4508628e+09  0.5            7364200        1.694524       5471.5197      10943.032      7.5148559    
  14723600   67527.393     -27.016114     -31800050       0.41430531     201085.04     -31598965       1132.0756      1132.0756      1132.0756      1933.9622      3066.0378      1933.9622      3066.0378      1933.9622      3066.0378      1.4508628e+09  0.5            7364300        1.7131058      5381.623       10763.225      7.4971505    
  14723800   70822.467     -26.478558     -31798487       0.41430531     210897.21     -31587590       1132.0756      1132.0756      1132.0756      1933.9622      3066.0378      1933.9622      3066.0378      1933.9622      3066.0378      1.4508628e+09  0.5            7364400        1.7313523      5480.5223      10961.125      7.4779772    
  14724000   72970.857     -25.81301      -31789417       0.41430531     217294.75     -31572122       1132.0756      1132.0756      1132.0756      1933.9622      3066.0378      1933.9622      3066.0378      1933.9622      3066.0378      1.4508628e+09  0.5            7364500        1.7498311      5411.5705      10823.101      7.4598162    
  14724200   70397.156     -25.4441       -31780304       0.41430531     209630.71     -31570673       1132.0756      1132.0756      1132.0756      1933.9622      3066.0378      1933.9622      3066.0378      1933.9622      3066.0378      1.4508628e+09  0.5            7364600        1.7685967      5328.9227      10657.874      7.4428536    
  14724400   69683.211     -25.2421       -31771216       0.41430531     207504.7      -31563711       1132.0756      1132.0756      1132.0756      1933.9622      3066.0378      1933.9622      3066.0378      1933.9622      3066.0378      1.4508628e+09  0.5            7364700        1.7867576      5506.3071      11012.614      7.423342     
  14724600   73794.048     -24.545649     -31767612       0.41430531     219746.07     -31547866       1132.0756      1132.0756      1132.0756      1933.9622      3066.0378      1933.9622      3066.0378      1933.9622      3066.0378      1.4508628e+09  0.5            7364800        1.8052837      5397.7724      10795.495      7.4053573    
  14724800   74231.316     -24.026165     -31763998       0.41430531     221048.18     -31542950       1132.0756      1132.0756      1132.0756      1933.9622      3066.0378      1933.9622      3066.0378      1933.9622      3066.0378      1.4508628e+09  0.5            7364900        1.8235044      5488.2877      10976.619      7.3861226    
  14725000   73192.85      -23.603316     -31754968       0.41430531     217955.81     -31537012       1132.0756      1132.0756      1132.0756      1933.9622      3066.0378      1933.9622      3066.0378      1933.9622      3066.0378      1.4508628e+09  0.5            7365000        1.8420373      5395.8099      10791.6        7.3681583    
  14725200   74317.314     -23.416508     -31755278       0.41430531     221304.27     -31533974       1132.0756      1132.0756      1132.0756      1933.9622      3066.0378      1933.9622      3066.0378      1933.9622      3066.0378      1.4508628e+09  0.5            7365100        1.8607067      5356.3844      10712.8        7.3507207    
  14725400   78091.8       -22.657776     -31746356       0.41430531     232544.04     -31513812       1132.0756      1132.0756      1132.0756      1933.9622      3066.0378      1933.9622      3066.0378      1933.9622      3066.0378      1.4508628e+09  0.5            7365200        1.8792211      5401.1995      10802.389      7.3326549    
  14725600   77537.272     -22.348186     -31744858       0.41430531     230892.75     -31513965       1132.0756      1132.0756      1132.0756      1933.9622      3066.0378      1933.9622      3066.0378      1933.9622      3066.0378      1.4508628e+09  0.5            7365300        1.897397       5501.7606      11003.54       7.3132762    
  14725800   75928.373     -22.374674     -31750825       0.41430531     226101.73     -31524723       1132.0756      1132.0756      1132.0756      1933.9622      3066.0378      1933.9622      3066.0378      1933.9622      3066.0378      1.4508628e+09  0.5            7365400        1.9159083      5402.1177      10804.178      7.2951981    
  14726000   76392.545     -22.046138     -31749485       0.41430531     227483.95     -31522001       1132.0756      1132.0756      1132.0756      1933.9622      3066.0378      1933.9622      3066.0378      1933.9622      3066.0378      1.4508628e+09  0.5            7365500        1.9341584      5479.4109      10958.843      7.2761284    
  14726200   78162.237     -21.724087     -31755575       0.41430531     232753.8      -31522821       1132.0756      1132.0756      1132.0756      1933.9622      3066.0378      1933.9622      3066.0378      1933.9622      3066.0378      1.4508628e+09  0.5            7365600        1.9526672      5402.8602      10805.751      7.2580349    
  14726400   80037.487     -21.535201     -31761725       0.41430531     238337.97     -31523387       1132.0756      1132.0756      1132.0756      1933.9622      3066.0378      1933.9622      3066.0378      1933.9622      3066.0378      1.4508628e+09  0.5            7365700        1.9713501      5352.4632      10704.92       7.2405743    
  14726600   80783.938     -21.352117     -31760937       0.41430531     240560.77     -31520377       1132.0756      1132.0756      1132.0756      1933.9622      3066.0378      1933.9622      3066.0378      1933.9622      3066.0378      1.4508628e+09  0.5            7365800        1.9895286      5500.9967      11002.013      7.2212599    
  14726800   81587.899     -21.07376      -31759830       0.41430531     242954.83     -31516875       1132.0756      1132.0756      1132.0756      1933.9622      3066.0378      1933.9622      3066.0378      1933.9622      3066.0378      1.4508628e+09  0.5            7365900        2.0080619      5395.6978      10791.362      7.203239     
  14727000   83242.953     -21.047839     -31773524       0.41430531     247883.3      -31525641       1132.0756      1132.0756      1132.0756      1933.9622      3066.0378      1933.9622      3066.0378      1933.9622      3066.0378      1.4508628e+09  0.5            7366000        2.0262845      5487.6947      10975.34       7.1841079    
  14727200   82653.179     -20.82604      -31767002       0.41430531     246127.05     -31520875       1132.0756      1132.0756      1132.0756      1933.9622      3066.0378      1933.9622      3066.0378      1933.9622      3066.0378      1.4508628e+09  0.5            7366100        2.044906       5370.13        10740.322      7.16639      
  14727400   81031.249     -20.765955     -31765985       0.41430531     241297.22     -31524688       1132.0756      1132.0756      1132.0756      1933.9622      3066.0378      1933.9622      3066.0378      1933.9622      3066.0378      1.4508628e+09  0.5            7366200        2.0635355      5367.8487      10735.717      7.1486838    
  14727600   83163.407     -20.526902     -31757624       0.41430531     247646.43     -31509978       1132.0756      1132.0756      1132.0756      1933.9622      3066.0378      1933.9622      3066.0378      1933.9622      3066.0378      1.4508628e+09  0.5            7366300        2.0817296      5496.2703      10992.542      7.1294707    
  14727800   87023.965     -19.938408     -31756605       0.41430531     259142.51     -31497463       1132.0756      1132.0756      1132.0756      1933.9622      3066.0378      1933.9622      3066.0378      1933.9622      3066.0378      1.4508628e+09  0.5            7366400        2.1003458      5371.6655      10743.323      7.1117046    
  14728000   85829.023     -20.228188     -31755569       0.41430531     255584.17     -31499985       1132.0756      1132.0756      1132.0756      1933.9622      3066.0378      1933.9622      3066.0378      1933.9622      3066.0378      1.4508628e+09  0.5            7366500        2.118632       5468.6161      10937.173      7.0928192    
  14728200   83831.826     -20.420027     -31747157       0.41430531     249636.86     -31497520       1132.0756      1132.0756      1132.0756      1933.9622      3066.0378      1933.9622      3066.0378      1933.9622      3066.0378      1.4508628e+09  0.5            7366600        2.1373208      5350.8026      10701.633      7.0752758    
  14728400   87431.769     -20.00119      -31746094       0.41430531     260356.88     -31485737       1132.0756      1132.0756      1132.0756      1933.9622      3066.0378      1933.9622      3066.0378      1933.9622      3066.0378      1.4508628e+09  0.5            7366700        2.1558994      5382.5114      10765.021      7.0573532    
  14728600   91149.857     -19.406929     -31744977       0.41430531     271428.71     -31473548       1132.0756      1132.0756      1132.0756      1933.9622      3066.0378      1933.9622      3066.0378      1933.9622      3066.0378      1.4508628e+09  0.5            7366800        2.1746752      5326.0155      10651.977      7.040058     
  14728800   87556.937     -19.729074     -31743802       0.41430531     260729.61     -31483072       1132.0756      1132.0756      1132.0756      1933.9622      3066.0378      1933.9622      3066.0378      1933.9622      3066.0378      1.4508628e+09  0.5            7366900        2.1929945      5458.7161      10917.486      7.0212752    
  14729000   85730.864     -19.693121     -31744496       0.41430531     255291.87     -31489204       1132.0756      1132.0756      1132.0756      1933.9622      3066.0378      1933.9622      3066.0378      1933.9622      3066.0378      1.4508628e+09  0.5            7367000        2.2113079      5460.4992      10920.953      7.0024823    
  14729200   89958.968     -19.0746       -31743206       0.41430531     267882.44     -31475323       1132.0756      1132.0756      1132.0756      1933.9622      3066.0378      1933.9622      3066.0378      1933.9622      3066.0378      1.4508628e+09  0.5            7367100        2.2299783      5356.0671      10712.173      6.984815     
  14729400   91711.66      -18.744321     -31741812       0.41430531     273101.66     -31468711       1132.0756      1132.0756      1132.0756      1933.9622      3066.0378      1933.9622      3066.0378      1933.9622      3066.0378      1.4508628e+09  0.5            7367200        2.2483833      5433.3124      10866.619      6.9663092    
  14729600   90592.746     -18.74883      -31732946       0.41430531     269769.73     -31463176       1132.0756      1132.0756      1132.0756      1933.9622      3066.0378      1933.9622      3066.0378      1933.9622      3066.0378      1.4508628e+09  0.5            7367300        2.2672539      5299.2407      10598.457      6.9492326    
  14729800   90768.107     -18.28321      -31723981       0.41430531     270291.92     -31453689       1132.0756      1132.0756      1132.0756      1933.9622      3066.0378      1933.9622      3066.0378      1933.9622      3066.0378      1.4508628e+09  0.5            7367400        2.2855364      5469.73        10939.503      6.9303427    
  14730000   95217.43      -17.599305     -31728108       0.41430531     283541.25     -31444567       1132.0756      1132.0756      1132.0756      1933.9622      3066.0378      1933.9622      3066.0378      1933.9622      3066.0378      1.4508628e+09  0.5            7367500        2.3045167      5268.6017      10536.969      6.9135582    
  14730200   96644.551     -17.027787     -31724337       0.41430531     287790.97     -31436546       1132.0756      1132.0756      1132.0756      1933.9622      3066.0378      1933.9622      3066.0378      1933.9622      3066.0378      1.4508628e+09  0.5            7367600        2.3227942      5471.2323      10942.709      6.8946496    
  14730400   92461.534     -17.180446     -31740902       0.41430531     275334.66     -31465567       1132.0756      1132.0756      1132.0756      1933.9622      3066.0378      1933.9622      3066.0378      1933.9622      3066.0378      1.4508628e+09  0.5            7367700        2.341316       5398.9547      10797.888      6.8764707    
  14730600   91477.254     -16.806156     -31738854       0.41430531     272403.64     -31466450       1132.0756      1132.0756      1132.0756      1933.9622      3066.0378      1933.9622      3066.0378      1933.9622      3066.0378      1.4508628e+09  0.5            7367800        2.3597876      5413.7927      10827.606      6.858139     
  14730800   93135.346     -16.103158     -31721962       0.41430531     277341.16     -31444620       1132.0756      1132.0756      1132.0756      1933.9622      3066.0378      1933.9622      3066.0378      1933.9622      3066.0378      1.4508628e+09  0.5            7367900        2.3781457      5447.188       10894.336      6.8394797    
  14731000   95975.032     -15.452807     -31727091       0.41430531     285797.26     -31441294       1132.0756      1132.0756      1132.0756      1933.9622      3066.0378      1933.9622      3066.0378      1933.9622      3066.0378      1.4508628e+09  0.5            7368000        2.3967507      5374.8891      10749.792      6.8215279    
  14731200   98782.579     -14.692021     -31739495       0.41430531     294157.65     -31445337       1132.0756      1132.0756      1132.0756      1933.9622      3066.0378      1933.9622      3066.0378      1933.9622      3066.0378      1.4508628e+09  0.5            7368100        2.4149961      5480.8594      10961.732      6.8025524    
  14731400   98669.285     -14.160512     -31737060       0.41430531     293820.28     -31443239       1132.0756      1132.0756      1132.0756      1933.9622      3066.0378      1933.9622      3066.0378      1933.9622      3066.0378      1.4508628e+09  0.5            7368200        2.4336116      5371.8488      10743.704      6.7846202    
  14731600   96795.182     -13.705419     -31749362       0.41430531     288239.52     -31461122       1132.0756      1132.0756      1132.0756      1933.9622      3066.0378      1933.9622      3066.0378      1933.9622      3066.0378      1.4508628e+09  0.5            7368300        2.4520863      5412.8128      10825.668      6.7662891    
  14731800   97933.402     -13.207571     -31746928       0.41430531     291628.95     -31455299       1132.0756      1132.0756      1132.0756      1933.9622      3066.0378      1933.9622      3066.0378      1933.9622      3066.0378      1.4508628e+09  0.5            7368400        2.47085        5329.4129      10658.754      6.7487461    
  14732000   102699.61     -12.43172      -31759273       0.41430531     305821.91     -31453451       1132.0756      1132.0756      1132.0756      1933.9622      3066.0378      1933.9622      3066.0378      1933.9622      3066.0378      1.4508628e+09  0.5            7368500        2.4891308      5470.2414      10940.488      6.7298785    
  14732200   101923.14     -11.790805     -31757246       0.41430531     303509.72     -31453736       1132.0756      1132.0756      1132.0756      1933.9622      3066.0378      1933.9622      3066.0378      1933.9622      3066.0378      1.4508628e+09  0.5            7368600        2.5078041      5355.2416      10710.531      6.7120698    
  14732400   98634.9       -11.662164     -31756860       0.41430531     293717.89     -31463142       1132.0756      1132.0756      1132.0756      1933.9622      3066.0378      1933.9622      3066.0378      1933.9622      3066.0378      1.4508628e+09  0.5            7368700        2.5260536      5479.6133      10959.245      6.6931257    
  14732600   99334.404     -11.0948       -31754713       0.41430531     295800.89     -31458912       1132.0756      1132.0756      1132.0756      1933.9622      3066.0378      1933.9622      3066.0378      1933.9622      3066.0378      1.4508628e+09  0.5            7368800        2.5446607      5374.2813      10748.57       6.67513      
  14732800   105625.43     -9.7362579     -31745280       0.41430531     314534.49     -31430746       1132.0756      1132.0756      1132.0756      1933.9622      3066.0378      1933.9622      3066.0378      1933.9622      3066.0378      1.4508628e+09  0.5            7368900        2.56331        5362.1143      10724.162      6.6572357    
  14733000   104979.2      -9.2410298     -31747121       0.41430531     312610.13     -31434510       1132.0756      1132.0756      1132.0756      1933.9622      3066.0378      1933.9622      3066.0378      1933.9622      3066.0378      1.4508628e+09  0.5            7369000        2.5816675      5447.3714      10894.747      6.6385796    
  14733200   101855.55     -8.6063866     -31743456       0.41430531     303308.45     -31440147       1132.0756      1132.0756      1132.0756      1933.9622      3066.0378      1933.9622      3066.0378      1933.9622      3066.0378      1.4508628e+09  0.5            7369100        2.6004027      5337.563       10675.145      6.6208889    
  14733400   103152.35     -8.1054954     -31758531       0.41430531     307170.07     -31451361       1132.0756      1132.0756      1132.0756      1933.9622      3066.0378      1933.9622      3066.0378      1933.9622      3066.0378      1.4508628e+09  0.5            7369200        2.6186954      5466.6508      10933.361      6.6020683    
  14733600   109405.35     -7.0981247     -31757066       0.41430531     325790.45     -31431276       1132.0756      1132.0756      1132.0756      1933.9622      3066.0378      1933.9622      3066.0378      1933.9622      3066.0378      1.4508628e+09  0.5            7369300        2.6373173      5370.0369      10740.062      6.5840769    
  14733800   107893.15     -6.7560843     -31733595       0.41430531     321287.36     -31412307       1132.0756      1132.0756      1132.0756      1933.9622      3066.0378      1933.9622      3066.0378      1933.9622      3066.0378      1.4508628e+09  0.5            7369400        2.655825       5403.1533      10806.3        6.5657947    
  14734000   105047.43     -6.5764875     -31728426       0.41430531     312813.31     -31415613       1132.0756      1132.0756      1132.0756      1933.9622      3066.0378      1933.9622      3066.0378      1933.9622      3066.0378      1.4508628e+09  0.5            7369500        2.6746372      5315.7079      10631.369      6.548255     
  14734200   107250.95     -5.7543699     -31736597       0.41430531     319375.01     -31417222       1132.0756      1132.0756      1132.0756      1933.9622      3066.0378      1933.9622      3066.0378      1933.9622      3066.0378      1.4508628e+09  0.5            7369600        2.6929783      5452.2363      10904.515      6.5295552    
  14734400   114334.37     -4.6501708     -31735527       0.41430531     340468.24     -31395058       1132.0756      1132.0756      1132.0756      1933.9622      3066.0378      1933.9622      3066.0378      1933.9622      3066.0378      1.4508628e+09  0.5            7369700        2.7116367      5359.5054      10719.035      6.5116223    
  14734600   111084.72     -4.5831809     -31725167       0.41430531     330791.34     -31394376       1132.0756      1132.0756      1132.0756      1933.9622      3066.0378      1933.9622      3066.0378      1933.9622      3066.0378      1.4508628e+09  0.5            7369800        2.7299827      5450.7857      10901.521      6.4929368    
  14734800   107915.6      -4.4222955     -31731459       0.41430531     321354.23     -31410105       1132.0756      1132.0756      1132.0756      1933.9622      3066.0378      1933.9622      3066.0378      1933.9622      3066.0378      1.4508628e+09  0.5            7369900        2.7487729      5321.9262      10643.888      6.4753022    
  14735000   109734.61     -3.9915917     -31752502       0.41430531     326770.92     -31425731       1132.0756      1132.0756      1132.0756      1933.9622      3066.0378      1933.9622      3066.0378      1933.9622      3066.0378      1.4508628e+09  0.5            7370000        2.7687059      5016.7995      10033.549      6.460319     
  14735200   114989.01     -3.1112926     -31758718       0.41430531     342417.62     -31416301       1132.0756      1132.0756      1132.0756      1933.9622      3066.0378      1933.9622      3066.0378      1933.9622      3066.0378      1.4508628e+09  0.5            7370100        2.7874605      5332.009       10664.054      6.4425461    
  14735400   114652.51     -2.5299169     -31757419       0.41430531     341415.61     -31416003       1132.0756      1132.0756      1132.0756      1933.9622      3066.0378      1933.9622      3066.0378      1933.9622      3066.0378      1.4508628e+09  0.5            7370200        2.8058221      5446.1138      10892.224      6.4238611    
  14735600   112932.36     -2.1382583     -31748623       0.41430531     336293.28     -31412330       1132.0756      1132.0756      1132.0756      1933.9622      3066.0378      1933.9622      3066.0378      1933.9622      3066.0378      1.4508628e+09  0.5            7370300        2.8245199      5348.2814      10696.587      6.4059419    
  14735800   112862.4      -2.0908539     -31763737       0.41430531     336084.97     -31427652       1132.0756      1132.0756      1132.0756      1933.9622      3066.0378      1933.9622      3066.0378      1933.9622      3066.0378      1.4508628e+09  0.5            7370400        2.8428553      5453.9146      10907.818      6.3871992    
  14736000   115738.68     -1.2569663     -31769453       0.41430531     344650.04     -31424803       1132.0756      1132.0756      1132.0756      1933.9622      3066.0378      1933.9622      3066.0378      1933.9622      3066.0378      1.4508628e+09  0.5            7370500        2.8617544      5291.2685      10582.486      6.3697165    
  14736200   119296.84     -0.35028555    -31767611       0.41430531     355245.62     -31412365       1132.0756      1132.0756      1132.0756      1933.9622      3066.0378      1933.9622      3066.0378      1933.9622      3066.0378      1.4508628e+09  0.5            7370600        2.8802695      5400.9906      10802.034      6.3513682    
  14736400   117355.43     -0.38464017    -31787749       0.41430531     349464.42     -31438284       1132.0756      1132.0756      1132.0756      1933.9622      3066.0378      1933.9622      3066.0378      1933.9622      3066.0378      1.4508628e+09  0.5            7370700        2.8989809      5344.3207      10688.647      6.3334472    
  14736600   110327.94     -0.7249812     -31793080       0.41430531     328537.75     -31464542       1132.0756      1132.0756      1132.0756      1933.9622      3066.0378      1933.9622      3066.0378      1933.9622      3066.0378      1.4508628e+09  0.5            7370800        2.9172471      5474.6215      10949.247      6.3145521    
  14736800   114289.08      0.2389248     -31798371       0.41430531     340333.37     -31458037       1132.0756      1132.0756      1132.0756      1933.9622      3066.0378      1933.9622      3066.0378      1933.9622      3066.0378      1.4508628e+09  0.5            7370900        2.9359257      5353.7131      10707.433      6.2965503    
  14737000   118650.08      1.401574      -31788814       0.41430531     353319.68     -31435495       1132.0756      1132.0756      1132.0756      1933.9622      3066.0378      1933.9622      3066.0378      1933.9622      3066.0378      1.4508628e+09  0.5            7371000        2.9544973      5384.5683      10769.091      6.2783115    
  14737200   119722.96      2.2328604     -31786566       0.41430531     356514.53     -31430051       1132.0756      1132.0756      1132.0756      1933.9622      3066.0378      1933.9622      3066.0378      1933.9622      3066.0378      1.4508628e+09  0.5            7371100        2.9733634      5300.4923      10600.973      6.2606893    
  14737400   120366.12      2.8271127     -31769527       0.41430531     358429.75     -31411097       1132.0756      1132.0756      1132.0756      1933.9622      3066.0378      1933.9622      3066.0378      1933.9622      3066.0378      1.4508628e+09  0.5            7371200        2.9917801      5429.8877      10859.824      6.2421139    
  14737600   122319.6       3.2577748     -31767236       0.41430531     364246.89     -31402989       1132.0756      1132.0756      1132.0756      1933.9622      3066.0378      1933.9622      3066.0378      1933.9622      3066.0378      1.4508628e+09  0.5            7371300        3.0104032      5369.6424      10739.279      6.2239676    
  14737800   125261.13      3.7228208     -31779710       0.41430531     373006.26     -31406703       1132.0756      1132.0756      1132.0756      1933.9622      3066.0378      1933.9622      3066.0378      1933.9622      3066.0378      1.4508628e+09  0.5            7371400        3.0286788      5471.7811      10943.575      6.2051024    
  14738000   122962.58      4.0278317     -31777474       0.41430531     366161.55     -31411312       1132.0756      1132.0756      1132.0756      1933.9622      3066.0378      1933.9622      3066.0378      1933.9622      3066.0378      1.4508628e+09  0.5            7371500        3.0473054      5368.6683      10737.278      6.186958     
  14738200   117258.2       3.8042533     -31773464       0.41430531     349174.89     -31424289       1132.0756      1132.0756      1132.0756      1933.9622      3066.0378      1933.9622      3066.0378      1933.9622      3066.0378      1.4508628e+09  0.5            7371600        3.0661766      5299.0854      10598.241      6.1692992    
  14738400   121233.39      4.3305215     -31766016       0.41430531     361012.32     -31405003       1132.0756      1132.0756      1132.0756      1933.9622      3066.0378      1933.9622      3066.0378      1933.9622      3066.0378      1.4508628e+09  0.5            7371700        3.0848752      5347.9822      10695.931      6.1512824    
  14738600   126347.04      5.4823729     -31764166       0.41430531     376239.91     -31387926       1132.0756      1132.0756      1132.0756      1933.9622      3066.0378      1933.9622      3066.0378      1933.9622      3066.0378      1.4508628e+09  0.5            7371800        3.1032154      5452.527       10905.053      6.1325488    
  14738800   125244.21      5.5133793     -31760526       0.41430531     372955.86     -31387570       1132.0756      1132.0756      1132.0756      1933.9622      3066.0378      1933.9622      3066.0378      1933.9622      3066.0378      1.4508628e+09  0.5            7371900        3.122517       5180.8986      10361.786      6.1157033    
  14739000   124038.14      5.5264225     -31758917       0.41430531     369364.41     -31389553       1132.0756      1132.0756      1132.0756      1933.9622      3066.0378      1933.9622      3066.0378      1933.9622      3066.0378      1.4508628e+09  0.5            7372000        3.1409198      5433.9731      10867.908      6.097084     
  14739200   127735.71      6.2442185     -31742701       0.41430531     380375.15     -31362326       1132.0756      1132.0756      1132.0756      1933.9622      3066.0378      1933.9622      3066.0378      1933.9622      3066.0378      1.4508628e+09  0.5            7372100        3.1599259      5261.4579      10522.988      6.0796277    
  14739400   132854.43      6.5232257     -31748735       0.41430531     395617.82     -31353117       1132.0756      1132.0756      1132.0756      1933.9622      3066.0378      1933.9622      3066.0378      1933.9622      3066.0378      1.4508628e+09  0.5            7372200        3.1784685      5393.0067      10786.018      6.0612694    
  14739600   128131.28      5.9997315     -31761874       0.41430531     381553.08     -31380321       1132.0756      1132.0756      1132.0756      1933.9622      3066.0378      1933.9622      3066.0378      1933.9622      3066.0378      1.4508628e+09  0.5            7372300        3.1971845      5343.0077      10686.011      6.043237     
  14739800   123240.86      5.1024102     -31790286       0.41430531     366990.23     -31423295       1132.0756      1132.0756      1132.0756      1933.9622      3066.0378      1933.9622      3066.0378      1933.9622      3066.0378      1.4508628e+09  0.5            7372400        3.2155385      5448.4226      10896.84       6.0245185    
  14740000   126186.69      5.2790817     -31791220       0.41430531     375762.42     -31415457       1132.0756      1132.0756      1132.0756      1933.9622      3066.0378      1933.9622      3066.0378      1933.9622      3066.0378      1.4508628e+09  0.5            7372500        3.23431        5327.1606      10654.282      6.0065803    
  14740200   129661.32      5.4311983     -31807010       0.41430531     386109.26     -31420901       1132.0756      1132.0756      1132.0756      1933.9622      3066.0378      1933.9622      3066.0378      1933.9622      3066.0378      1.4508628e+09  0.5            7372600        3.2529843      5355.0205      10710.045      5.9884521    
  14740400   132980.71      5.2869127     -31819075       0.41430531     395993.85     -31423081       1132.0756      1132.0756      1132.0756      1933.9622      3066.0378      1933.9622      3066.0378      1933.9622      3066.0378      1.4508628e+09  0.5            7372700        3.271891       5289.0679      10578.154      5.9707433    
  14740600   133384.07      5.4344959     -31818303       0.41430531     397194.98     -31421108       1132.0756      1132.0756      1132.0756      1933.9622      3066.0378      1933.9622      3066.0378      1933.9622      3066.0378      1.4508628e+09  0.5            7372800        3.2902671      5441.8739      10883.78       5.9520601    
  14740800   129361.1       4.8892491     -31815649       0.41430531     385215.27     -31430434       1132.0756      1132.0756      1132.0756      1933.9622      3066.0378      1933.9622      3066.0378      1933.9622      3066.0378      1.4508628e+09  0.5            7372900        3.3089999      5338.2337      10676.444      5.9340204    
  14741000   126922.35      4.2243973     -31822277       0.41430531     377953.09     -31444324       1132.0756      1132.0756      1132.0756      1933.9622      3066.0378      1933.9622      3066.0378      1933.9622      3066.0378      1.4508628e+09  0.5            7373000        3.327747       5334.1692      10668.269      5.9159988    
  14741200   135366.66      4.7427701     -31812243       0.41430531     403098.81     -31409144       1132.0756      1132.0756      1132.0756      1933.9622      3066.0378      1933.9622      3066.0378      1933.9622      3066.0378      1.4508628e+09  0.5            7373100        3.3462005      5419.0318      10838.154      5.8974509    
  14741400   137384.12      4.7468346     -31811402       0.41430531     409106.44     -31402296       1132.0756      1132.0756      1132.0756      1933.9622      3066.0378      1933.9622      3066.0378      1933.9622      3066.0378      1.4508628e+09  0.5            7373200        3.3652603      5246.636       10493.243      5.8799642    
  14741600   134394.47      4.1753811     -31797590       0.41430531     400203.8      -31397386       1132.0756      1132.0756      1132.0756      1933.9622      3066.0378      1933.9622      3066.0378      1933.9622      3066.0378      1.4508628e+09  0.5            7373300        3.3836344      5442.4781      10884.976      5.8612719    
  14741800   132492.73      3.6857988     -31794668       0.41430531     394540.72     -31400128       1132.0756      1132.0756      1132.0756      1933.9622      3066.0378      1933.9622      3066.0378      1933.9622      3066.0378      1.4508628e+09  0.5            7373400        3.4023482      5343.6421      10687.28       5.8431668    
  14742000   139903.68      3.8482711     -31793543       0.41430531     416609.28     -31376934       1132.0756      1132.0756      1132.0756      1933.9622      3066.0378      1933.9622      3066.0378      1933.9622      3066.0378      1.4508628e+09  0.5            7373500        3.4207403      5437.1096      10874.226      5.8245073    
  14742200   142693.47      4.5144137     -31792249       0.41430531     424916.77     -31367332       1132.0756      1132.0756      1132.0756      1933.9622      3066.0378      1933.9622      3066.0378      1933.9622      3066.0378      1.4508628e+09  0.5            7373600        3.4395523      5315.7531      10631.488      5.8065595    
  14742400   136958.03      3.4614106     -31798197       0.41430531     407837.61     -31390359       1132.0756      1132.0756      1132.0756      1933.9622      3066.0378      1933.9622      3066.0378      1933.9622      3066.0378      1.4508628e+09  0.5            7373700        3.4581858      5366.6861      10733.38       5.7883038    
  14742600   135176.51      3.1175928     -31789324       0.41430531     402532.56     -31386791       1132.0756      1132.0756      1132.0756      1933.9622      3066.0378      1933.9622      3066.0378      1933.9622      3066.0378      1.4508628e+09  0.5            7373800        3.4770401      5303.8246      10607.633      5.7704105    
  14742800   140001.76      3.9048121     -31787745       0.41430531     416901.33     -31370843       1132.0756      1132.0756      1132.0756      1933.9622      3066.0378      1933.9622      3066.0378      1933.9622      3066.0378      1.4508628e+09  0.5            7373900        3.4954079      5444.3146      10888.645      5.7517065    
  14743000   141702.63      3.9326583     -31793435       0.41430531     421966.22     -31371469       1132.0756      1132.0756      1132.0756      1933.9622      3066.0378      1933.9622      3066.0378      1933.9622      3066.0378      1.4508628e+09  0.5            7374000        3.5141557      5333.9441      10667.851      5.7336261    
  14743200   140751.51      3.9534681     -31776873       0.41430531     419133.95     -31357739       1132.0756      1132.0756      1132.0756      1933.9622      3066.0378      1933.9622      3066.0378      1933.9622      3066.0378      1.4508628e+09  0.5            7374100        3.5326191      5416.1337      10832.311      5.7150782    
  14743400   141318.14      4.1104257     -31758390       0.41430531     420821.3      -31337568       1132.0756      1132.0756      1132.0756      1933.9622      3066.0378      1933.9622      3066.0378      1933.9622      3066.0378      1.4508628e+09  0.5            7374200        3.5515205      5290.6005      10581.213      5.6972343    
  14743600   145408.48      4.7788933     -31739846       0.41430531     433001.63     -31306845       1132.0756      1132.0756      1132.0756      1933.9622      3066.0378      1933.9622      3066.0378      1933.9622      3066.0378      1.4508628e+09  0.5            7374300        3.5701305      5373.4661      10746.892      5.6789157    
  14743800   148717.3       4.9963464     -31732425       0.41430531     442854.73     -31289570       1132.0756      1132.0756      1132.0756      1933.9622      3066.0378      1933.9622      3066.0378      1933.9622      3066.0378      1.4508628e+09  0.5            7374400        3.5888412      5344.5252      10689.065      5.6607528    
  14744000   142478.17      4.4873579     -31721172       0.41430531     424275.67     -31296896       1132.0756      1132.0756      1132.0756      1933.9622      3066.0378      1933.9622      3066.0378      1933.9622      3066.0378      1.4508628e+09  0.5            7374500        3.6072213      5440.6659      10881.282      5.6420677    
  14744200   137155.02      3.9491234     -31734005       0.41430531     408424.23     -31325581       1132.0756      1132.0756      1132.0756      1933.9622      3066.0378      1933.9622      3066.0378      1933.9622      3066.0378      1.4508628e+09  0.5            7374600        3.6260014      5324.7822      10649.618      5.6240055    
  14744400   144042.88      4.6418792     -31737594       0.41430531     428935.11     -31308659       1132.0756      1132.0756      1132.0756      1933.9622      3066.0378      1933.9622      3066.0378      1933.9622      3066.0378      1.4508628e+09  0.5            7374700        3.644734       5338.2867      10676.527      5.6058635    
  14744600   147094.05      4.8738111     -31741168       0.41430531     438020.96     -31303147       1132.0756      1132.0756      1132.0756      1933.9622      3066.0378      1933.9622      3066.0378      1933.9622      3066.0378      1.4508628e+09  0.5            7374800        3.6633867      5361.1875      10722.435      5.5875929    
  14744800   147660.39      5.2056076     -31748345       0.41430531     439707.43     -31308637       1132.0756      1132.0756      1132.0756      1933.9622      3066.0378      1933.9622      3066.0378      1933.9622      3066.0378      1.4508628e+09  0.5            7374900        3.6822518      5300.7713      10601.563      5.5696402    
  14745000   148293.29      5.2229422     -31746463       0.41430531     441592.11     -31304871       1132.0756      1132.0756      1132.0756      1933.9622      3066.0378      1933.9622      3066.0378      1933.9622      3066.0378      1.4508628e+09  0.5            7375000        3.700672       5428.8009      10857.52       5.5510115    
  14745200   151358.21      6.1280907     -31744589       0.41430531     450718.92     -31293870       1132.0756      1132.0756      1132.0756      1933.9622      3066.0378      1933.9622      3066.0378      1933.9622      3066.0378      1.4508628e+09  0.5            7375100        3.7194753      5318.2253      10636.447      5.5329543    
  14745400   154063.85      6.4114508     -31740804       0.41430531     458775.85     -31282028       1132.0756      1132.0756      1132.0756      1933.9622      3066.0378      1933.9622      3066.0378      1933.9622      3066.0378      1.4508628e+09  0.5            7375200        3.7382793      5318.0307      10636.14       5.5148903    
  14745600   148911.62      6.4194214     -31746299       0.41430531     443433.38     -31302865       1132.0756      1132.0756      1132.0756      1933.9622      3066.0378      1933.9622      3066.0378      1933.9622      3066.0378      1.4508628e+09  0.5            7375300        3.7572312      5276.5222      10553.031      5.4970359    
  14745800   143932.31      6.1287356     -31761116       0.41430531     428605.83     -31332510       1132.0756      1132.0756      1132.0756      1933.9622      3066.0378      1933.9622      3066.0378      1933.9622      3066.0378      1.4508628e+09  0.5            7375400        3.7757203      5408.5824      10817.123      5.4784992    
  14746000   151975.65      7.0258303     -31759338       0.41430531     452557.53     -31306780       1132.0756      1132.0756      1132.0756      1933.9622      3066.0378      1933.9622      3066.0378      1933.9622      3066.0378      1.4508628e+09  0.5            7375500        3.7944936      5326.6992      10653.374      5.4603723    
  14746200   155213.59      7.6833891     -31757508       0.41430531     462199.58     -31295308       1132.0756      1132.0756      1132.0756      1933.9622      3066.0378      1933.9622      3066.0378      1933.9622      3066.0378      1.4508628e+09  0.5            7375600        3.8129079      5430.5636      10861.168      5.441726     
  14746400   152520.32      7.5416641     -31761142       0.41430531     454179.48     -31306963       1132.0756      1132.0756      1132.0756      1933.9622      3066.0378      1933.9622      3066.0378      1933.9622      3066.0378      1.4508628e+09  0.5            7375700        3.8316538      5334.5368      10669.092      5.4235514    
  14746600   151045.44      7.9365415     -31751913       0.41430531     449787.51     -31302126       1132.0756      1132.0756      1132.0756      1933.9622      3066.0378      1933.9622      3066.0378      1933.9622      3066.0378      1.4508628e+09  0.5            7375800        3.8504838      5310.651       10621.291      5.4054898    
  14746800   157697.82      8.8028944     -31748165       0.41430531     469597.19     -31278568       1132.0756      1132.0756      1132.0756      1933.9622      3066.0378      1933.9622      3066.0378      1933.9622      3066.0378      1.4508628e+09  0.5            7375900        3.8691477      5357.9358      10715.876      5.3871894    
  14747000   161910.47      9.3873418     -31755516       0.41430531     482141.72     -31273374       1132.0756      1132.0756      1132.0756      1933.9622      3066.0378      1933.9622      3066.0378      1933.9622      3066.0378      1.4508628e+09  0.5            7376000        3.8879057      5331.0403      10662.06       5.3690158    
  14747200   155139.99      9.2976531     -31744322       0.41430531     461980.41     -31282342       1132.0756      1132.0756      1132.0756      1933.9622      3066.0378      1933.9622      3066.0378      1933.9622      3066.0378      1.4508628e+09  0.5            7376100        3.9063293      5427.8388      10855.714      5.3503781    
  14747400   152733.3       9.3810817     -31742084       0.41430531     454813.7      -31287270       1132.0756      1132.0756      1132.0756      1933.9622      3066.0378      1933.9622      3066.0378      1933.9622      3066.0378      1.4508628e+09  0.5            7376200        3.9250616      5338.3819      10676.747      5.332162     
  14747600   155489.89      9.7024841     -31732871       0.41430531     463022.33     -31269848       1132.0756      1132.0756      1132.0756      1933.9622      3066.0378      1933.9622      3066.0378      1933.9622      3066.0378      1.4508628e+09  0.5            7376300        3.9434212      5446.7533      10893.539      5.3134388    
  14747800   158989.77      10.849991     -31731044       0.41430531     473444.39     -31257600       1132.0756      1132.0756      1132.0756      1933.9622      3066.0378      1933.9622      3066.0378      1933.9622      3066.0378      1.4508628e+09  0.5            7376400        3.9623627      5279.3973      10558.773      5.2954969    
  14748000   161009.22      10.519839     -31749478       0.41430531     479457.95     -31270020       1132.0756      1132.0756      1132.0756      1933.9622      3066.0378      1933.9622      3066.0378      1933.9622      3066.0378      1.4508628e+09  0.5            7376500        3.9808928      5396.611       10793.145      5.2770004    
  14748200   160498.87      10.247996     -31762125       0.41430531     477938.22     -31284186       1132.0756      1132.0756      1132.0756      1933.9622      3066.0378      1933.9622      3066.0378      1933.9622      3066.0378      1.4508628e+09  0.5            7376600        3.9996333      5336.0309      10672.146      5.2587799    
  14748400   157225.98      10.138511     -31753075       0.41430531     468192.13     -31284883       1132.0756      1132.0756      1132.0756      1933.9622      3066.0378      1933.9622      3066.0378      1933.9622      3066.0378      1.4508628e+09  0.5            7376700        4.0183319      5348.0025      10695.972      5.2405002    
  14748600   158749.41      10.217791     -31753420       0.41430531     472728.62     -31280692       1132.0756      1132.0756      1132.0756      1933.9622      3066.0378      1933.9622      3066.0378      1933.9622      3066.0378      1.4508628e+09  0.5            7376800        4.0366969      5445.1616      10890.343      5.2217849    
  14748800   165951.17      10.590731     -31761238       0.41430531     494174.25     -31267064       1132.0756      1132.0756      1132.0756      1933.9622      3066.0378      1933.9622      3066.0378      1933.9622      3066.0378      1.4508628e+09  0.5            7376900        4.0556712      5270.2755      10540.546      5.2038549    
  14749000   166140         10.575329     -31759844       0.41430531     494736.55     -31265107       1132.0756      1132.0756      1132.0756      1933.9622      3066.0378      1933.9622      3066.0378      1933.9622      3066.0378      1.4508628e+09  0.5            7377000        4.0741803      5402.7321      10805.417      5.1853233    
  14749200   158600.61      9.6372663     -31758527       0.41430531     472285.52     -31286241       1132.0756      1132.0756      1132.0756      1933.9622      3066.0378      1933.9622      3066.0378      1933.9622      3066.0378      1.4508628e+09  0.5            7377100        4.0929607      5324.7175      10649.488      5.167134     
  14749400   155365.07      8.34907       -31781420       0.41430531     462650.64     -31318770       1132.0756      1132.0756      1132.0756      1933.9622      3066.0378      1933.9622      3066.0378      1933.9622      3066.0378      1.4508628e+09  0.5            7377200        4.1113207      5446.6068      10893.203      5.1484133    
  14749600   168764.65      9.7219247     -31789697       0.41430531     502552.3      -31287145       1132.0756      1132.0756      1132.0756      1933.9622      3066.0378      1933.9622      3066.0378      1933.9622      3066.0378      1.4508628e+09  0.5            7377300        4.1300542      5338.0197      10676.038      5.1301598    
  14749800   168966.24      9.5037449     -31788759       0.41430531     503152.61     -31285606       1132.0756      1132.0756      1132.0756      1933.9622      3066.0378      1933.9622      3066.0378      1933.9622      3066.0378      1.4508628e+09  0.5            7377400        4.148744       5350.5186      10701.05       5.1118479    
[...]
  15394400   307.51204      1.3439616     -32536650       0.42716115     915.71836     -32535734       1120.6028      1120.6028      1120.6028      1939.6986      3060.3014      1939.6986      3060.3014      1939.6986      3060.3014      1.4071976e+09  0.5            7699700        32.284721      4428.6568      8857.3265      1.1825089    
  15394600   307.39259      0.2717195     -32536742       0.42713016     915.36265     -32535827       1120.6299      1120.6299      1120.6299      1939.6851      3060.3149      1939.6851      3060.3149      1939.6851      3060.3149      1.4072997e+09  0.5            7699800        32.306828      4523.4334      9046.8427      1.16019      
  15394800   307.51668      1.9006578     -32536831       0.42718801     915.73215     -32535915       1120.5793      1120.5793      1120.5793      1939.7104      3060.2896      1939.7104      3060.2896      1939.7104      3060.2896      1.4071091e+09  0.5            7699900        32.328935      4523.3888      9046.7883      1.1378715    
  15395000   307.4194       0.52705775    -32536925       0.42714737     915.44248     -32536010       1120.6148      1120.6148      1120.6148      1939.6926      3060.3074      1939.6926      3060.3074      1939.6926      3060.3074      1.407243e+09   0.5            7700000        32.351051      4521.6338      9043.2307      1.1155536    
  15395200   307.45996      0.43359707    -32537016       0.4271487      915.56325     -32536101       1120.6137      1120.6137      1120.6137      1939.6932      3060.3068      1939.6932      3060.3068      1939.6932      3060.3068      1.4072386e+09  0.5            7700100        32.373509      4452.6843      8905.4122      1.0932475    
  15395400   307.54115      2.3538577     -32537103       0.4272163      915.80502     -32536188       1120.5546      1120.5546      1120.5546      1939.7227      3060.2773      1939.7227      3060.2773      1939.7227      3060.2773      1.407016e+09   0.5            7700200        32.395705      4505.4287      9010.8469      1.0709325    
  15395600   307.5079       0.61727893    -32537199       0.42716388     915.70601     -32536283       1120.6004      1120.6004      1120.6004      1939.6998      3060.3002      1939.6998      3060.3002      1939.6998      3060.3002      1.4071886e+09  0.5            7700300        32.417736      4538.9684      9077.9231      1.0486123    
  15395800   307.54744     -0.5025503     -32537290       0.42713198     915.82376     -32536374       1120.6283      1120.6283      1120.6283      1939.6859      3060.3141      1939.6859      3060.3141      1939.6859      3060.3141      1.4072937e+09  0.5            7700400        32.439725      4547.7772      9095.5772      1.0262912    
  15396000   307.42875      0.53817801    -32537014       0.42716966     915.47031     -32536098       1120.5953      1120.5953      1120.5953      1939.7023      3060.2977      1939.7023      3060.2977      1939.7023      3060.2977      1.4071696e+09  0.5            7700500        32.462214      4446.5818      8893.1307      1.0039861    
  15396200   307.42517      1.6661744     -32537103       0.42721107     915.45967     -32536187       1120.5591      1120.5591      1120.5591      1939.7204      3060.2796      1939.7204      3060.2796      1939.7204      3060.2796      1.4070332e+09  0.5            7700600        32.484822      4423.1907      8846.3998      0.98168426   
  15396400   307.58674      2.5653995     -32537191       0.42724561     915.94078     -32536275       1120.5289      1120.5289      1120.5289      1939.7355      3060.2645      1939.7355      3060.2645      1939.7355      3060.2645      1.4069194e+09  0.5            7700700        32.506946      4520.0862      9040.1846      0.95936772   
  15396600   307.7168       0.42458658    -32537289       0.42717993     916.32807     -32536372       1120.5864      1120.5864      1120.5864      1939.7068      3060.2932      1939.7068      3060.2932      1939.7068      3060.2932      1.4071357e+09  0.5            7700800        32.529032      4527.6399      9055.2758      0.93705038   
  15396800   307.71989     -0.5151086     -32537381       0.42715395     916.33728     -32536465       1120.6091      1120.6091      1120.6091      1939.6955      3060.3045      1939.6955      3060.3045      1939.6955      3060.3045      1.4072213e+09  0.5            7700900        32.551098      4531.8678      9063.7381      0.91473278   
  15397000   307.63028      0.99325572    -32537475       0.42720832     916.07046     -32536559       1120.5615      1120.5615      1120.5615      1939.7192      3060.2808      1939.7192      3060.2808      1939.7192      3060.2808      1.4070422e+09  0.5            7701000        32.573501      4463.6777      8927.3268      0.89242476   
  15397200   307.61002     -0.12597781    -32537569       0.42717506     916.01012     -32536653       1120.5906      1120.5906      1120.5906      1939.7047      3060.2953      1939.7047      3060.2953      1939.7047      3060.2953      1.4071518e+09  0.5            7701100        32.595735      4497.6013      8995.2313      0.8701121    
  15397400   307.58531      0.26721019    -32537662       0.42719191     915.93654     -32536746       1120.5759      1120.5759      1120.5759      1939.7121      3060.2879      1939.7121      3060.2879      1939.7121      3060.2879      1.4070963e+09  0.5            7701200        32.618347      4422.5162      8845.0282      0.84780935   
  15397600   307.7202       0.6980399     -32545133       0.42721356     916.3382      -32544217       1120.557       1120.557       1120.557       1939.7215      3060.2785      1939.7215      3060.2785      1939.7215      3060.2785      1.407025e+09   0.5            7701300        32.640396      4535.3897      9070.786       0.82549195   
  15397800   307.73886      1.0606431     -32552604       0.42723287     916.39378     -32551688       1120.5401      1120.5401      1120.5401      1939.73        3060.27        1939.73        3060.27        1939.73        3060.27        1.4069614e+09  0.5            7701400        32.662507      4522.5161      9045.0126      0.80317647   
  15398000   307.59007      0.67818414    -32552699       0.42722557     915.95069     -32551783       1120.5465      1120.5465      1120.5465      1939.7268      3060.2732      1939.7268      3060.2732      1939.7268      3060.2732      1.4069854e+09  0.5            7701500        32.685209      4404.9409      8809.8698      0.78087537   
  15398200   307.90627      0.91907103    -32552793       0.42723952     916.8923      -32551876       1120.5343      1120.5343      1120.5343      1939.7329      3060.2671      1939.7329      3060.2671      1939.7329      3060.2671      1.4069395e+09  0.5            7701600        32.707305      4525.7384      9051.5169      0.75855965   
  15398400   308.0656       1.2611184     -32552889       0.42725608     917.36674     -32551971       1120.5198      1120.5198      1120.5198      1939.7401      3060.2599      1939.7401      3060.2599      1939.7401      3060.2599      1.4068849e+09  0.5            7701700        32.72927       4552.5793      9105.1321      0.73624131   
  15398600   307.82439      1.1479516     -32552984       0.42725683     916.64847     -32552068       1120.5191      1120.5191      1120.5191      1939.7404      3060.2596      1939.7404      3060.2596      1939.7404      3060.2596      1.4068825e+09  0.5            7701800        32.751236      4552.622       9105.254       0.71392345   
  15398800   307.62057      0.78875867    -32553080       0.42724913     916.04152     -32552164       1120.5259      1120.5259      1120.5259      1939.7371      3060.2629      1939.7371      3060.2629      1939.7371      3060.2629      1.4069078e+09  0.5            7701900        32.773585      4474.4373      8948.8373      0.69161417   
  15399000   307.52538      0.73382878    -32553174       0.42725142     915.75807     -32552259       1120.5239      1120.5239      1120.5239      1939.7381      3060.2619      1939.7381      3060.2619      1939.7381      3060.2619      1.4069003e+09  0.5            7702000        32.79569       4523.9227      9047.8577      0.66929984   
  15399200   307.69778      0.87877049    -32553268       0.42726086     916.27146     -32552352       1120.5156      1120.5156      1120.5156      1939.7422      3060.2578      1939.7422      3060.2578      1939.7422      3060.2578      1.4068692e+09  0.5            7702100        32.817771      4528.629       9057.2823      0.64698535   
  15399400   307.93142      0.92955143    -32553363       0.42726813     916.96718     -32552446       1120.5092      1120.5092      1120.5092      1939.7454      3060.2546      1939.7454      3060.2546      1939.7454      3060.2546      1.4068453e+09  0.5            7702200        32.839787      4542.2058      9084.4063      0.62466991   
  15399600   308.0205       0.88505368    -32553458       0.42727233     917.23246     -32552541       1120.5056      1120.5056      1120.5056      1939.7472      3060.2528      1939.7472      3060.2528      1939.7472      3060.2528      1.4068314e+09  0.5            7702300        32.861837      4535.22        9070.4314      0.60235551   
  15399800   308.07933      0.79160586    -32553555       0.42727513     917.40763     -32552638       1120.5031      1120.5031      1120.5031      1939.7484      3060.2516      1939.7484      3060.2516      1939.7484      3060.2516      1.4068222e+09  0.5            7702400        32.884747      4364.8842      8729.7963      0.58005664   
  15400000   308.09376      0.75330258    -32553653       0.42727914     917.4506      -32552736       1120.4996      1120.4996      1120.4996      1939.7502      3060.2498      1939.7502      3060.2498      1939.7502      3060.2498      1.406809e+09   0.5            7702500        32.906865      4521.0922      9042.1129      0.55774353   
  15400200   308.0738       0.88133745    -32553752       0.42728733     917.39116     -32552834       1120.4925      1120.4925      1120.4925      1939.7538      3060.2462      1939.7538      3060.2462      1939.7538      3060.2462      1.406782e+09   0.5            7702600        32.928996      4518.6638      9037.3987      0.53543087   
  15400400   307.84855      1.2222297     -32553848       0.4273021      916.72042     -32552932       1120.4796      1120.4796      1120.4796      1939.7602      3060.2398      1939.7602      3060.2398      1939.7602      3060.2398      1.4067334e+09  0.5            7702700        32.951046      4535.1675      9070.3302      0.5131172    
  15400600   307.8448       1.5542855     -32553945       0.42731787     916.70923     -32553028       1120.4658      1120.4658      1120.4658      1939.7671      3060.2329      1939.7671      3060.2329      1939.7671      3060.2329      1.4066815e+09  0.5            7702800        32.973344      4484.7253      8969.4268      0.49080759   
  15400800   308.1434       1.6069893     -32554042       0.42732513     917.59842     -32553125       1120.4594      1120.4594      1120.4594      1939.7703      3060.2297      1939.7703      3060.2297      1939.7703      3060.2297      1.4066576e+09  0.5            7702900        32.995477      4517.9878      9035.9843      0.46849566   
  15401000   308.24535      0.89868631    -32554143       0.42730724     917.90201     -32553225       1120.4751      1120.4751      1120.4751      1939.7625      3060.2375      1939.7625      3060.2375      1939.7625      3060.2375      1.4067165e+09  0.5            7703000        33.017551      4530.2291      9060.4606      0.44618316   
  15401200   308.28806      0.98155315    -32554242       0.42731472     918.02919     -32553324       1120.4685      1120.4685      1120.4685      1939.7657      3060.2343      1939.7657      3060.2343      1939.7657      3060.2343      1.4066919e+09  0.5            7703100        33.039608      4533.7161      9067.4532      0.42387077   
  15401400   308.1224       0.55212074    -32561720       0.42730758     917.53589     -32560803       1120.4748      1120.4748      1120.4748      1939.7626      3060.2374      1939.7626      3060.2374      1939.7626      3060.2374      1.4067154e+09  0.5            7703200        33.061595      4548.2879      9096.5775      0.40155786   
  15401600   307.94724     -0.14614746    -32561820       0.42728834     917.01429     -32560903       1120.4916      1120.4916      1120.4916      1939.7542      3060.2458      1939.7542      3060.2458      1939.7542      3060.2458      1.4067787e+09  0.5            7703300        33.084094      4444.5557      8889.0959      0.37925128   
  15401800   307.97431      1.5079024     -32561916       0.42734658     917.09491     -32560999       1120.4407      1120.4407      1120.4407      1939.7797      3060.2203      1939.7797      3060.2203      1939.7797      3060.2203      1.406587e+09   0.5            7703400        33.10609       4546.358       9092.7148      0.356939     
  15402000   308.09554      1.4508714     -32562015       0.4273492      917.4559      -32561098       1120.4384      1120.4384      1120.4384      1939.7808      3060.2192      1939.7808      3060.2192      1939.7808      3060.2192      1.4065784e+09  0.5            7703500        33.128264      4509.7291      9019.4431      0.33462896   
  15402200   308.19431     -0.026963864   -32562116       0.42730468     917.75003     -32561199       1120.4773      1120.4773      1120.4773      1939.7614      3060.2386      1939.7614      3060.2386      1939.7614      3060.2386      1.4067249e+09  0.5            7703600        33.150406      4516.3983      9032.8264      0.31231878   
  15402400   308.10859      2.3014384     -32562211       0.42738449     917.49476     -32561293       1120.4075      1120.4075      1120.4075      1939.7962      3060.2038      1939.7962      3060.2038      1939.7962      3060.2038      1.4064622e+09  0.5            7703700        33.17281       4463.4066      8926.816       0.29001114   
  15402600   308.04207     -0.23110487    -32562314       0.42730585     917.29669     -32561397       1120.4763      1120.4763      1120.4763      1939.7619      3060.2381      1939.7619      3060.2381      1939.7619      3060.2381      1.4067211e+09  0.5            7703800        33.194926      4521.5968      9043.187       0.26770104   
  15402800   308.28593      1.685884      -32562412       0.42737315     918.02285     -32561494       1120.4175      1120.4175      1120.4175      1939.7913      3060.2087      1939.7913      3060.2087      1939.7913      3060.2087      1.4064995e+09  0.5            7703900        33.217011      4528.0618      9056.1073      0.24539096   
  15403000   308.26071      0.83358463    -32562514       0.42734897     917.94775     -32561596       1120.4386      1120.4386      1120.4386      1939.7807      3060.2193      1939.7807      3060.2193      1939.7807      3060.2193      1.4065791e+09  0.5            7704000        33.239188      4509.0328      9018.0608      0.22308182   
  15403200   308.11729      0.88505919    -32562614       0.42735391     917.52067     -32561696       1120.4343      1120.4343      1120.4343      1939.7829      3060.2171      1939.7829      3060.2171      1939.7829      3060.2171      1.4065629e+09  0.5            7704100        33.261338      4514.616       9029.2459      0.20077268   
  15403400   308.03115      1.2277292     -32562713       0.42736872     917.26416     -32561795       1120.4213      1120.4213      1120.4213      1939.7893      3060.2107      1939.7893      3060.2107      1939.7893      3060.2107      1.4065141e+09  0.5            7704200        33.283876      4437.1037      8874.1853      0.17846584   
  15403600   308.15747      0.34379906    -32562813       0.4273443      917.64033     -32561896       1120.4427      1120.4427      1120.4427      1939.7787      3060.2213      1939.7787      3060.2213      1939.7787      3060.2213      1.4065945e+09  0.5            7704300        33.305936      4533.012       9066.0249      0.15615644   
  15403800   308.40414      0.60555978    -32570292       0.42736007     918.37486     -32569373       1120.4289      1120.4289      1120.4289      1939.7856      3060.2144      1939.7856      3060.2144      1939.7856      3060.2144      1.4065426e+09  0.5            7704400        33.328007      4530.7872      9061.5911      0.13384743   
  15404000   308.19146      1.8530623     -32572284       0.42740541     917.74154     -32571367       1120.3893      1120.3893      1120.3893      1939.8054      3060.1946      1939.8054      3060.1946      1939.8054      3060.1946      1.4063934e+09  0.5            7704500        33.35011       4524.2261      9048.4165      0.11153884   
  15404200   308.01937      0.68239881    -32572387       0.42737117     917.22908     -32571469       1120.4192      1120.4192      1120.4192      1939.7904      3060.2096      1939.7904      3060.2096      1939.7904      3060.2096      1.4065061e+09  0.5            7704600        33.372517      4463.0898      8926.2303      0.089231334  
  15404400   308.07795      1.5839373     -32572484       0.42740476     917.40354     -32571567       1120.3898      1120.3898      1120.3898      1939.8051      3060.1949      1939.8051      3060.1949      1939.8051      3060.1949      1.4063955e+09  0.5            7704700        33.394727      4502.422       9004.8242      0.066923305  
  15404600   308.18545      0.35376015    -32572586       0.42736925     917.72364     -32571668       1120.4209      1120.4209      1120.4209      1939.7896      3060.2104      1939.7896      3060.2104      1939.7896      3060.2104      1.4065124e+09  0.5            7704800        33.416836      4523.0625      9046.1279      0.044615271  
  15404800   308.2001       1.6071614     -32572683       0.42741432     917.76728     -32571766       1120.3815      1120.3815      1120.3815      1939.8093      3060.1907      1939.8093      3060.1907      1939.8093      3060.1907      1.4063641e+09  0.5            7704900        33.438916      4529.0294      9058.0728      0.022307484  
  15405000   308.00047      0.52954061    -32572785       0.42738331     917.17282     -32571868       1120.4086      1120.4086      1120.4086      1939.7957      3060.2043      1939.7957      3060.2043      1939.7957      3060.2043      1.4064661e+09  0.5            7705000        33.461013      4525.3548      9050.6755      0            
Loop time of 33.4611 on 4 procs for 300000 steps with 1000 atoms

Performance: 387.316 ns/day, 0.062 hours/ns, 8965.637 timesteps/s
99.6% CPU use with 4 MPI tasks x no OpenMP threads

MPI task timing breakdown:
Section |  min time  |  avg time  |  max time  |%varavg| %total
---------------------------------------------------------------
Pair    | 1.3019     | 7.3744     | 16.857     | 212.3 | 22.04
Neigh   | 0.0030732  | 0.014225   | 0.031721   |   8.9 |  0.04
Comm    | 7.664      | 15.848     | 20.844     | 124.6 | 47.36
Output  | 0.056111   | 0.076139   | 0.13308    |  11.9 |  0.23
Modify  | 7.0434     | 7.6731     | 8.1378     |  15.6 | 22.93
Other   |            | 2.475      |            |       |  7.40

Nlocal:            250 ave         486 max          96 min
Histogram: 1 0 1 1 0 0 0 0 0 1
Nghost:         354.75 ave         450 max         256 min
Histogram: 1 0 0 0 1 0 1 0 0 1
Neighs:        1066.75 ave        2607 max         127 min
Histogram: 1 0 2 0 0 0 0 0 0 1

Total # of neighbors = 4267
Ave neighs/atom = 4.267
Neighbor list builds = 103
Dangerous builds = 26

# run_style
run_style verlet

# write restart
write_restart ${write_res}
write_restart ./pgnpmf/37/equpmf22.res
System init for write_restart ...
Generated 0 of 1 mixed pair_coeff terms from geometric mixing rule

Total wall time: 0:01:10
