LAMMPS (23 Jun 2022 - Update 1)
# Read restart
read_restart ${read_res}
read_restart ./pgnpmf/37/equpmf15.res
Reading restart file ...
  restart file = 23 Jun 2022, LAMMPS = 23 Jun 2022
  restoring atom style atomic from restart
  orthogonal box = (1894.1411 1894.1411 1894.1411) to (3105.8589 3105.8589 3105.8589)
  1 by 2 by 2 MPI processor grid
  restoring pair style table from restart
  1000 atoms
  read_restart CPU = 0.016 seconds

# Settings

pair_style table spline 9941

pair_coeff 1 1 ./pgnpmf/N20.txt DE_GNP 75.6
pair_coeff 2 2 ./pgnpmf/N100.txt DE_GNP 115.92
WARNING: 3 of 9941 force values in table DE_GNP are inconsistent with -dE/dr.
WARNING:  Should only be flagged at inflection points (../pair_table.cpp:463)
pair_coeff 1 2 ./pgnpmf/mixed_potential.txt DE_GNP 95.66
WARNING: 1562 of 9941 force values in table DE_GNP are inconsistent with -dE/dr.
WARNING:  Should only be flagged at inflection points (../pair_table.cpp:463)

#Neigh_list Calc Frequency

neigh_modify delay 0 every 1 check yes

# Saving Frequency (50 frames)

variable ts_save equal ${steps_equ}
variable ts_save equal 5000

# Dump
#dump 1 all custom ${ts_save} ./pgnpmf/${folder}/equilibration/trajectory/trajectory_${usic}_${trial}.equ.custom type x y z ix iy iz
#dump_modify 1 first no sort id
#dump 2 all cfg 50000 ./equilibration/trajectory/ovito/dumpgen.tens_*.cfg mass type xs ys zs fx fy fz

# thermo_style
thermo_style custom step temp press pe density ke etotal lx ly lz xlo xhi ylo yhi zlo zhi vol dt time cpu tpcpu spcpu cpuremain

# run info
timestep ${ts}
timestep 0.5
thermo 200

# fix

fix 1 all momentum 1000 linear 1 1 1 angular
variable T equal ${temp}
variable T equal 300
fix 2 all nvt temp ${T} 370000 100.0
fix 2 all nvt temp 300 370000 100.0

run 100000
Generated 0 of 1 mixed pair_coeff terms from geometric mixing rule
Unused restart file global fix info:
  fix style: npt, fix ID: 5
Neighbor list info ...
  update every 1 steps, delay 0 steps, check yes
  max neighbors/atom: 2000, page size: 100000
  master list distance cutoff = 117.92
  ghost atom cutoff = 117.92
  binsize = 58.96, bins = 21 21 21
  1 neighbor lists, perpetual/occasional/extra = 1 0 0
  (1) pair table, perpetual
      attributes: half, newton on
      pair build: half/bin/atomonly/newton
      stencil: half/bin/3d
      bin: standard
Per MPI rank memory allocation (min/avg/max) = 3.084 | 3.086 | 3.088 Mbytes
   Step          Temp          Press          PotEng        Density         KinEng         TotEng           Lx             Ly             Lz            Xlo            Xhi            Ylo            Yhi            Zlo            Zhi           Volume           Dt            Time           CPU           T/CPU          S/CPU         CPULeft    
  10505000   307.92469      1.3624392     -27567160       0.33786433     916.94716     -27566243       1211.7178      1211.7178      1211.7178      1894.1411      3105.8589      1894.1411      3105.8589      1894.1411      3105.8589      1.7791169e+09  0.5            5255000        0              0              0              0            
  10505200   400.33118      1.2306746     -27567267       0.33786433     1192.1179     -27566075       1211.7178      1211.7178      1211.7178      1894.1411      3105.8589      1894.1411      3105.8589      1894.1411      3105.8589      1.7791169e+09  0.5            5255100        0.017230942    5803.2583      11605.951      8.5994496    
  10505400   600.57025      1.0733352     -27567395       0.33786433     1788.3956     -27565606       1211.7178      1211.7178      1211.7178      1894.1411      3105.8589      1894.1411      3105.8589      1894.1411      3105.8589      1.7791169e+09  0.5            5255200        0.034399946    5824.4521      11648.965      8.5661889    
  10505600   940.14666      0.89243456    -27567554       0.33786433     2799.5962     -27564754       1211.7178      1211.7178      1211.7178      1894.1411      3105.8589      1894.1411      3105.8589      1894.1411      3105.8589      1.7791169e+09  0.5            5255300        0.051694702    5782.1122      11564.201      8.5644766    
  10505800   1483.1186      0.70864823    -27567753       0.33786433     4416.4739     -27563336       1211.7178      1211.7178      1211.7178      1894.1411      3105.8589      1894.1411      3105.8589      1894.1411      3105.8589      1.7791169e+09  0.5            5255400        0.069264344    5691.6683      11383.368      8.5890477    
  10506000   2304.5659      0.43930584    -27568002       0.33786433     6862.6036     -27561139       1211.7178      1211.7178      1211.7178      1894.1411      3105.8589      1894.1411      3105.8589      1894.1411      3105.8589      1.7791169e+09  0.5            5255500        0.08645339     5817.5759      11635.083      8.5591471    
  10506200   3457.412       0.12295578    -27570203       0.33786433     10295.583     -27559908       1211.7178      1211.7178      1211.7178      1894.1411      3105.8589      1894.1411      3105.8589      1894.1411      3105.8589      1.7791169e+09  0.5            5255600        0.1036318      5821.3551      11642.777      8.5325317    
  10506400   4882.8119     -0.25741281    -27570571       0.33786433     14540.18      -27556031       1211.7178      1211.7178      1211.7178      1894.1411      3105.8589      1894.1411      3105.8589      1894.1411      3105.8589      1.7791169e+09  0.5            5255700        0.12075142     5841.2631      11682.535      8.5044975    
  10506600   6314.9796     -0.55650057    -27570999       0.33786433     18804.931     -27552194       1211.7178      1211.7178      1211.7178      1894.1411      3105.8589      1894.1411      3105.8589      1894.1411      3105.8589      1.7791169e+09  0.5            5255800        0.13788036     5838.0954      11676.113      8.4797759    
  10506800   7300.0901     -1.0546796     -27571460       0.33786433     21738.422     -27549722       1211.7178      1211.7178      1211.7178      1894.1411      3105.8589      1894.1411      3105.8589      1894.1411      3105.8589      1.7791169e+09  0.5            5255900        0.15563726     5631.6092      11263.263      8.4909915    
  10507000   7680.3905     -1.6697378     -27571937       0.33786433     22870.891     -27549066       1211.7178      1211.7178      1211.7178      1894.1411      3105.8589      1894.1411      3105.8589      1894.1411      3105.8589      1.7791169e+09  0.5            5256000        0.17307413     5734.9463      11469.818      8.480749     
  10507200   8088.898      -2.3049105     -27572419       0.33786433     24087.357     -27548332       1211.7178      1211.7178      1211.7178      1894.1411      3105.8589      1894.1411      3105.8589      1894.1411      3105.8589      1.7791169e+09  0.5            5256100        0.19027266     5814.4666      11628.989      8.4585831    
  10507400   9075.7566     -2.6141706     -27565530       0.33786433     27026.053     -27538504       1211.7178      1211.7178      1211.7178      1894.1411      3105.8589      1894.1411      3105.8589      1894.1411      3105.8589      1.7791169e+09  0.5            5256200        0.20737909     5845.7537      11691.525      8.4335047    
  10507600   10206.025     -3.0857464     -27566036       0.33786433     30391.798     -27535644       1211.7178      1211.7178      1211.7178      1894.1411      3105.8589      1894.1411      3105.8589      1894.1411      3105.8589      1.7791169e+09  0.5            5256300        0.22451688     5835.0812      11670.122      8.4108269    
  10507800   10839.425     -3.6925089     -27566551       0.33786433     32277.958     -27534273       1211.7178      1211.7178      1211.7178      1894.1411      3105.8589      1894.1411      3105.8589      1894.1411      3105.8589      1.7791169e+09  0.5            5256400        0.24206011     5700.1695      11400.404      8.4030156    
  10508000   11159.184     -4.2130273     -27567059       0.33786433     33230.145     -27533829       1211.7178      1211.7178      1211.7178      1894.1411      3105.8589      1894.1411      3105.8589      1894.1411      3105.8589      1.7791169e+09  0.5            5256500        0.25952375     5726.1857      11452.29       8.3913445    
  10508200   11876.667     -4.8015357     -27569457       0.33786433     35366.685     -27534091       1211.7178      1211.7178      1211.7178      1894.1411      3105.8589      1894.1411      3105.8589      1894.1411      3105.8589      1.7791169e+09  0.5            5256600        0.27754134     5550.1623      11100.343      8.3956877    
  10508400   13033.152     -5.3430708     -27569963       0.33786433     38810.5       -27531152       1211.7178      1211.7178      1211.7178      1894.1411      3105.8589      1894.1411      3105.8589      1894.1411      3105.8589      1.7791169e+09  0.5            5256700        0.29468075     5834.5066      11669.056      8.3724595    
  10508600   13925.766     -5.6664094     -27563097       0.33786433     41468.552     -27521628       1211.7178      1211.7178      1211.7178      1894.1411      3105.8589      1894.1411      3105.8589      1894.1411      3105.8589      1.7791169e+09  0.5            5256800        0.31212672     5731.9683      11463.939      8.3581153    
  10508800   14289.282     -6.1358277     -27563595       0.33786433     42551.043     -27521044       1211.7178      1211.7178      1211.7178      1894.1411      3105.8589      1894.1411      3105.8589      1894.1411      3105.8589      1.7791169e+09  0.5            5256900        0.32925086     5839.7134      11679.38       8.3353007    
  10509000   14751.131     -6.6167434     -27564067       0.33786433     43926.349     -27520140       1211.7178      1211.7178      1211.7178      1894.1411      3105.8589      1894.1411      3105.8589      1894.1411      3105.8589      1.7791169e+09  0.5            5257000        0.346416       5825.7238      11651.43       8.3140427    
  10509200   15789.128     -7.0639874     -27564519       0.33786433     47017.327     -27517501       1211.7178      1211.7178      1211.7178      1894.1411      3105.8589      1894.1411      3105.8589      1894.1411      3105.8589      1.7791169e+09  0.5            5257100        0.36431547     5586.7785      11173.508      8.309917     
  10509400   16904.487     -7.492404      -27572328       0.33786433     50338.676     -27521989       1211.7178      1211.7178      1211.7178      1894.1411      3105.8589      1894.1411      3105.8589      1894.1411      3105.8589      1.7791169e+09  0.5            5257200        0.38165321     5767.7894      11535.669      8.2923289    
  10509600   17457.309     -7.9310814     -27572734       0.33786433     51984.885     -27520749       1211.7178      1211.7178      1211.7178      1894.1411      3105.8589      1894.1411      3105.8589      1894.1411      3105.8589      1.7791169e+09  0.5            5257300        0.39875736     5846.5391      11693.042      8.2699256    
  10509800   17753.437     -8.4935566     -27573108       0.33786433     52866.705     -27520241       1211.7178      1211.7178      1211.7178      1894.1411      3105.8589      1894.1411      3105.8589      1894.1411      3105.8589      1.7791169e+09  0.5            5257400        0.41585204     5849.7636      11699.594      8.247773     
  10510000   18541.946     -8.8223272     -27573444       0.33786433     55214.748     -27518230       1211.7178      1211.7178      1211.7178      1894.1411      3105.8589      1894.1411      3105.8589      1894.1411      3105.8589      1.7791169e+09  0.5            5257500        0.43331662     5725.8362      11451.597      8.2330603    
  10510200   19753.484     -9.1680021     -27566379       0.33786433     58822.501     -27507556       1211.7178      1211.7178      1211.7178      1894.1411      3105.8589      1894.1411      3105.8589      1894.1411      3105.8589      1.7791169e+09  0.5            5257600        0.4505255      5810.9794      11622.018      8.2134654    
  10510400   20588.185     -9.5242241     -27566655       0.33786433     61308.099     -27505347       1211.7178      1211.7178      1211.7178      1894.1411      3105.8589      1894.1411      3105.8589      1894.1411      3105.8589      1.7791169e+09  0.5            5257700        0.46801587     5717.4404      11434.842      8.1989816    
  10510600   20876.806     -9.8104329     -27566901       0.33786433     62167.562     -27504733       1211.7178      1211.7178      1211.7178      1894.1411      3105.8589      1894.1411      3105.8589      1894.1411      3105.8589      1.7791169e+09  0.5            5257800        0.48529834     5786.2036      11572.392      8.1807814    
  10510800   21376.38      -10.139338     -27574486       0.33786433     63655.21      -27510830       1211.7178      1211.7178      1211.7178      1894.1411      3105.8589      1894.1411      3105.8589      1894.1411      3105.8589      1.7791169e+09  0.5            5257900        0.50284219     5699.9996      11400.038      8.1668846    
  10511000   22501.617     -10.362286     -27567280       0.33786433     67005.972     -27500274       1211.7178      1211.7178      1211.7178      1894.1411      3105.8589      1894.1411      3105.8589      1894.1411      3105.8589      1.7791169e+09  0.5            5258000        0.51998227     5834.2884      11668.511      8.1464243    
  10511200   23607.951     -10.55119      -27560050       0.33786433     70300.447     -27489750       1211.7178      1211.7178      1211.7178      1894.1411      3105.8589      1894.1411      3105.8589      1894.1411      3105.8589      1.7791169e+09  0.5            5258100        0.53716132     5821.0589      11642.214      8.1267614    
  10511400   24070.624     -10.831909     -27567550       0.33786433     71678.207     -27495871       1211.7178      1211.7178      1211.7178      1894.1411      3105.8589      1894.1411      3105.8589      1894.1411      3105.8589      1.7791169e+09  0.5            5258200        0.55477028     5678.9106      11357.816      8.1135454    
  10511600   24350.745     -11.074035     -27569541       0.33786433     72512.36      -27497029       1211.7178      1211.7178      1211.7178      1894.1411      3105.8589      1894.1411      3105.8589      1894.1411      3105.8589      1.7791169e+09  0.5            5258300        0.57230592     5702.6738      11405.358      8.0990242    
  10511800   25232.124     -11.235182     -27569627       0.33786433     75136.955     -27494490       1211.7178      1211.7178      1211.7178      1894.1411      3105.8589      1894.1411      3105.8589      1894.1411      3105.8589      1.7791169e+09  0.5            5258400        0.58942883     5840.1257      11680.231      8.0786707    
  10512000   26479.953     -11.484813     -27569685       0.33786433     78852.778     -27490832       1211.7178      1211.7178      1211.7178      1894.1411      3105.8589      1894.1411      3105.8589      1894.1411      3105.8589      1.7791169e+09  0.5            5258500        0.60689965     5723.801       11447.473      8.0631284    
  10512200   27237.771     -11.643295     -27569727       0.33786433     81109.43      -27488618       1211.7178      1211.7178      1211.7178      1894.1411      3105.8589      1894.1411      3105.8589      1894.1411      3105.8589      1.7791169e+09  0.5            5258600        0.62409096     5816.9174      11633.963      8.0438663    
  10512400   27467.701     -11.683836     -27569759       0.33786433     81794.123     -27487965       1211.7178      1211.7178      1211.7178      1894.1411      3105.8589      1894.1411      3105.8589      1894.1411      3105.8589      1.7791169e+09  0.5            5258700        0.64127666     5818.7838      11637.478      8.0246528    
  10512600   28030.184     -11.855016     -27569788       0.33786433     83469.103     -27486318       1211.7178      1211.7178      1211.7178      1894.1411      3105.8589      1894.1411      3105.8589      1894.1411      3105.8589      1.7791169e+09  0.5            5258800        0.65924987     5563.8448      11127.694      8.0151186    
  10512800   29237.944     -12.045975     -27575300       0.33786433     87065.605     -27488234       1211.7178      1211.7178      1211.7178      1894.1411      3105.8589      1894.1411      3105.8589      1894.1411      3105.8589      1.7791169e+09  0.5            5258900        0.67657524     5771.8938      11543.896      7.9974907    
  10513000   30302.468     -12.282296     -27575331       0.33786433     90235.574     -27485095       1211.7178      1211.7178      1211.7178      1894.1411      3105.8589      1894.1411      3105.8589      1894.1411      3105.8589      1.7791169e+09  0.5            5259000        0.69373922     5826.1461      11652.238      7.978027     
  10513200   30666.781     -12.415275     -27577250       0.33786433     91320.437     -27485929       1211.7178      1211.7178      1211.7178      1894.1411      3105.8589      1894.1411      3105.8589      1894.1411      3105.8589      1.7791169e+09  0.5            5259100        0.71127532     5702.5173      11405.054      7.9628376    
  10513400   30957.636     -12.550984     -27577648       0.33786433     92186.552     -27485461       1211.7178      1211.7178      1211.7178      1894.1411      3105.8589      1894.1411      3105.8589      1894.1411      3105.8589      1.7791169e+09  0.5            5259200        0.72992343     5362.4901      10724.965      7.959664     
  10513600   31944.932     -12.557072     -27581473       0.33786433     95126.552     -27486347       1211.7178      1211.7178      1211.7178      1894.1411      3105.8589      1894.1411      3105.8589      1894.1411      3105.8589      1.7791169e+09  0.5            5259300        0.74707674     5829.7664      11659.546      7.9398846    
  10513800   33222.826     -12.55589      -27581525       0.33786433     98931.903     -27482593       1211.7178      1211.7178      1211.7178      1894.1411      3105.8589      1894.1411      3105.8589      1894.1411      3105.8589      1.7791169e+09  0.5            5259400        0.76461124     5703.0393      11406.07       7.9241757    
  10514000   33873.037     -12.769657     -27581576       0.33786433     100868.12     -27480708       1211.7178      1211.7178      1211.7178      1894.1411      3105.8589      1894.1411      3105.8589      1894.1411      3105.8589      1.7791169e+09  0.5            5259500        0.78243465     5610.5861      11221.164      7.9113072    
  10514200   34032.312     -12.864145     -27581630       0.33786433     101342.42     -27480287       1211.7178      1211.7178      1211.7178      1894.1411      3105.8589      1894.1411      3105.8589      1894.1411      3105.8589      1.7791169e+09  0.5            5259600        0.79983855     5745.8468      11491.657      7.8940815    
  10514400   34678.612     -12.891725     -27581668       0.33786433     103266.98     -27478401       1211.7178      1211.7178      1211.7178      1894.1411      3105.8589      1894.1411      3105.8589      1894.1411      3105.8589      1.7791169e+09  0.5            5259700        0.8171948      5761.6096      11523.27       7.8763881    
  10514600   35992.715     -12.912617     -27572425       0.33786433     107180.16     -27465245       1211.7178      1211.7178      1211.7178      1894.1411      3105.8589      1894.1411      3105.8589      1894.1411      3105.8589      1.7791169e+09  0.5            5259800        0.83445721     5792.9524      11585.877      7.8578253    
  10514800   37002.486     -12.732089     -27559582       0.33786433     110187.08     -27449395       1211.7178      1211.7178      1211.7178      1894.1411      3105.8589      1894.1411      3105.8589      1894.1411      3105.8589      1.7791169e+09  0.5            5259900        0.85208892     5671.5832      11343.219      7.8427154    
  10515000   37239.518     -12.839493     -27559590       0.33786433     110892.93     -27448697       1211.7178      1211.7178      1211.7178      1894.1411      3105.8589      1894.1411      3105.8589      1894.1411      3105.8589      1.7791169e+09  0.5            5260000        0.86969022     5681.3876      11362.667      7.8272344    
  10515200   37532.057     -12.941685     -27565043       0.33786433     111764.06     -27453279       1211.7178      1211.7178      1211.7178      1894.1411      3105.8589      1894.1411      3105.8589      1894.1411      3105.8589      1.7791169e+09  0.5            5260100        0.88711297     5739.6339      11479.327      7.8100929    
  10515400   38667.042     -12.911865     -27557605       0.33786433     115143.85     -27442461       1211.7178      1211.7178      1211.7178      1894.1411      3105.8589      1894.1411      3105.8589      1894.1411      3105.8589      1.7791169e+09  0.5            5260200        0.90477513     5661.83        11323.637      7.795005     
  10515600   39976.95      -12.967371     -27559394       0.33786433     119044.53     -27440350       1211.7178      1211.7178      1211.7178      1894.1411      3105.8589      1894.1411      3105.8589      1894.1411      3105.8589      1.7791169e+09  0.5            5260300        0.92202422     5797.3912      11594.692      7.7763383    
  10515800   40495.444     -12.861289     -27551860       0.33786433     120588.52     -27431272       1211.7178      1211.7178      1211.7178      1894.1411      3105.8589      1894.1411      3105.8589      1894.1411      3105.8589      1.7791169e+09  0.5            5260400        0.93933108     5778.0757      11556.28       7.7581964    
  10516000   40574.591     -13.030652     -27551662       0.33786433     120824.2      -27430838       1211.7178      1211.7178      1211.7178      1894.1411      3105.8589      1894.1411      3105.8589      1894.1411      3105.8589      1.7791169e+09  0.5            5260500        0.95711355     5623.4781      11246.93       7.7439381    
  10516200   41353.98      -13.074049     -27558790       0.33786433     123145.09     -27435645       1211.7178      1211.7178      1211.7178      1894.1411      3105.8589      1894.1411      3105.8589      1894.1411      3105.8589      1.7791169e+09  0.5            5260600        0.97485174     5637.5782      11275.177      7.729199     
  10516400   42805.768     -13.008137     -27551134       0.33786433     127468.27     -27423666       1211.7178      1211.7178      1211.7178      1894.1411      3105.8589      1894.1411      3105.8589      1894.1411      3105.8589      1.7791169e+09  0.5            5260700        0.9921698      5774.3208      11548.632      7.7110911    
  10516600   43697.046     -13.031998     -27550439       0.33786433     130122.34     -27420316       1211.7178      1211.7178      1211.7178      1894.1411      3105.8589      1894.1411      3105.8589      1894.1411      3105.8589      1.7791169e+09  0.5            5260800        1.0095206      5763.4287      11526.844      7.6932595    
  10516800   43789.688     -13.096391     -27550084       0.33786433     130398.21     -27419686       1211.7178      1211.7178      1211.7178      1894.1411      3105.8589      1894.1411      3105.8589      1894.1411      3105.8589      1.7791169e+09  0.5            5260900        1.0271976      5657.0672      11314.155      7.6778828    
  10517000   44191.188     -13.188217     -27557096       0.33786433     131593.81     -27425502       1211.7178      1211.7178      1211.7178      1894.1411      3105.8589      1894.1411      3105.8589      1894.1411      3105.8589      1.7791169e+09  0.5            5261000        1.0445389      5766.5967      11533.14       7.6599689    
  10517200   45734.344     -13.168308     -27556733       0.33786433     136189.07     -27420544       1211.7178      1211.7178      1211.7178      1894.1411      3105.8589      1894.1411      3105.8589      1894.1411      3105.8589      1.7791169e+09  0.5            5261100        1.0622532      5645.1622      11290.405      7.6447547    
  10517400   46947.947     -13.450261     -27556373       0.33786433     139802.97     -27416570       1211.7178      1211.7178      1211.7178      1894.1411      3105.8589      1894.1411      3105.8589      1894.1411      3105.8589      1.7791169e+09  0.5            5261200        1.0807374      5409.9948      10820.01       7.6349023    
  10517600   46924.76      -13.701097     -27570804       0.33786433     139733.92     -27431070       1211.7178      1211.7178      1211.7178      1894.1411      3105.8589      1894.1411      3105.8589      1894.1411      3105.8589      1.7791169e+09  0.5            5261300        1.098026       5784.157       11568.309      7.6164811    
  10517800   46377.644     -13.646975     -27563149       0.33786433     138104.71     -27425044       1211.7178      1211.7178      1211.7178      1894.1411      3105.8589      1894.1411      3105.8589      1894.1411      3105.8589      1.7791169e+09  0.5            5261400        1.115342       5775.0341      11550.069      7.5982812    
  10518000   47975.991     -13.522223     -27555558       0.33786433     142864.31     -27412694       1211.7178      1211.7178      1211.7178      1894.1411      3105.8589      1894.1411      3105.8589      1894.1411      3105.8589      1.7791169e+09  0.5            5261500        1.1329753      5671.0583      11342.038      7.582235     
  10518200   50138.834     -13.568205     -27562783       0.33786433     149304.88     -27413478       1211.7178      1211.7178      1211.7178      1894.1411      3105.8589      1894.1411      3105.8589      1894.1411      3105.8589      1.7791169e+09  0.5            5261600        1.1503442      5757.4359      11514.892      7.5643991    
  10518400   50092.672     -14.002509     -27575571       0.33786433     149167.42     -27426403       1211.7178      1211.7178      1211.7178      1894.1411      3105.8589      1894.1411      3105.8589      1894.1411      3105.8589      1.7791169e+09  0.5            5261700        1.167947       5680.9386      11361.946      7.5480885    
  10518600   49148.04      -14.448081     -27582949       0.33786433     146354.47     -27436595       1211.7178      1211.7178      1211.7178      1894.1411      3105.8589      1894.1411      3105.8589      1894.1411      3105.8589      1.7791169e+09  0.5            5261800        1.185667       5643.3119      11286.587      7.5324868    
  10518800   50204.177     -14.695974     -27583030       0.33786433     149499.47     -27433530       1211.7178      1211.7178      1211.7178      1894.1411      3105.8589      1894.1411      3105.8589      1894.1411      3105.8589      1.7791169e+09  0.5            5261900        1.2028744      5811.4644      11622.951      7.51362      
  10519000   53338.76      -14.766812     -27594346       0.33786433     158833.72     -27435513       1211.7178      1211.7178      1211.7178      1894.1411      3105.8589      1894.1411      3105.8589      1894.1411      3105.8589      1.7791169e+09  0.5            5262000        1.2201436      5790.6653      11581.254      7.4951814    
  10519200   53354.249     -14.886953     -27594559       0.33786433     158879.84     -27435679       1211.7178      1211.7178      1211.7178      1894.1411      3105.8589      1894.1411      3105.8589      1894.1411      3105.8589      1.7791169e+09  0.5            5262100        1.2378077      5661.1861      11322.396      7.4791618    
  10519400   52092.036     -15.10713      -27594805       0.33786433     155121.19     -27439683       1211.7178      1211.7178      1211.7178      1894.1411      3105.8589      1894.1411      3105.8589      1894.1411      3105.8589      1.7791169e+09  0.5            5262200        1.2552537      5731.9654      11463.93       7.4617997    
  10519600   53030.642     -15.338871     -27602462       0.33786433     157916.2      -27444546       1211.7178      1211.7178      1211.7178      1894.1411      3105.8589      1894.1411      3105.8589      1894.1411      3105.8589      1.7791169e+09  0.5            5262300        1.2732489      5557.0547      11114.154      7.4476461    
  10519800   56764.038     -14.948999     -27588017       0.33786433     169033.61     -27418984       1211.7178      1211.7178      1211.7178      1894.1411      3105.8589      1894.1411      3105.8589      1894.1411      3105.8589      1.7791169e+09  0.5            5262400        1.2904816      5802.9         11605.729      7.4290014    
  10520000   56302.273     -15.120358     -27595690       0.33786433     167658.56     -27428031       1211.7178      1211.7178      1211.7178      1894.1411      3105.8589      1894.1411      3105.8589      1894.1411      3105.8589      1.7791169e+09  0.5            5262500        1.3077299      5797.6879      11595.36       7.4104827    
  10520200   54896.682     -15.527937     -27603680       0.33786433     163472.94     -27440207       1211.7178      1211.7178      1211.7178      1894.1411      3105.8589      1894.1411      3105.8589      1894.1411      3105.8589      1.7791169e+09  0.5            5262600        1.3253318      5681.1994      11362.465      7.3939682    
  10520400   56560.548     -15.486877     -27603861       0.33786433     168427.65     -27435433       1211.7178      1211.7178      1211.7178      1894.1411      3105.8589      1894.1411      3105.8589      1894.1411      3105.8589      1.7791169e+09  0.5            5262700        1.3426288      5781.3427      11562.695      7.3757517    
  10520600   60130.05      -15.216352     -27603954       0.33786433     179057.02     -27424897       1211.7178      1211.7178      1211.7178      1894.1411      3105.8589      1894.1411      3105.8589      1894.1411      3105.8589      1.7791169e+09  0.5            5262800        1.3602197      5684.7717      11369.537      7.3591488    
  10520800   58930.874     -15.310787     -27603944       0.33786433     175486.08     -27428458       1211.7178      1211.7178      1211.7178      1894.1411      3105.8589      1894.1411      3105.8589      1894.1411      3105.8589      1.7791169e+09  0.5            5262900        1.3779239      5648.367       11296.678      7.3431261    
  10521000   57794.328     -15.303845     -27603826       0.33786433     172101.64     -27431724       1211.7178      1211.7178      1211.7178      1894.1411      3105.8589      1894.1411      3105.8589      1894.1411      3105.8589      1.7791169e+09  0.5            5263000        1.3952677      5765.7511      11531.504      7.3251676    
  10521200   60044.861     -15.15024      -27603584       0.33786433     178803.34     -27424781       1211.7178      1211.7178      1211.7178      1894.1411      3105.8589      1894.1411      3105.8589      1894.1411      3105.8589      1.7791169e+09  0.5            5263100        1.4129022      5670.6801      11341.417      7.3087279    
  10521400   62875.713     -15.026809     -27605103       0.33786433     187233.14     -27417869       1211.7178      1211.7178      1211.7178      1894.1411      3105.8589      1894.1411      3105.8589      1894.1411      3105.8589      1.7791169e+09  0.5            5263200        1.4301714      5790.6703      11581.357      7.2903969    
  10521600   61749.395     -14.893031     -27606477       0.33786433     183879.15     -27422597       1211.7178      1211.7178      1211.7178      1894.1411      3105.8589      1894.1411      3105.8589      1894.1411      3105.8589      1.7791169e+09  0.5            5263300        1.4477741      5680.9589      11361.927      7.2737672    
  10521800   61044.728     -14.894681     -27615099       0.33786433     181780.77     -27433319       1211.7178      1211.7178      1211.7178      1894.1411      3105.8589      1894.1411      3105.8589      1894.1411      3105.8589      1.7791169e+09  0.5            5263400        1.4654293      5664.0751      11328.093      7.2573745    
  10522000   63234.005     -14.557264     -27621724       0.33786433     188300.07     -27433424       1211.7178      1211.7178      1211.7178      1894.1411      3105.8589      1894.1411      3105.8589      1894.1411      3105.8589      1.7791169e+09  0.5            5263500        1.4828757      5731.8284      11463.638      7.2399336    
  10522200   65925.921     -14.199365     -27628225       0.33786433     196316.14     -27431908       1211.7178      1211.7178      1211.7178      1894.1411      3105.8589      1894.1411      3105.8589      1894.1411      3105.8589      1.7791169e+09  0.5            5263600        1.5005469      5658.9099      11317.864      7.2235733    
  10522400   64834.2       -13.935247     -27619858       0.33786433     193065.18     -27426793       1211.7178      1211.7178      1211.7178      1894.1411      3105.8589      1894.1411      3105.8589      1894.1411      3105.8589      1.7791169e+09  0.5            5263700        1.5178526      5778.4663      11556.956      7.2054479    
  10522600   64229.064     -13.63028      -27616918       0.33786433     191263.18     -27425655       1211.7178      1211.7178      1211.7178      1894.1411      3105.8589      1894.1411      3105.8589      1894.1411      3105.8589      1.7791169e+09  0.5            5263800        1.535488       5670.3521      11340.638      7.1888869    
  10522800   65577.9       -13.414314     -27615813       0.33786433     195279.79     -27420533       1211.7178      1211.7178      1211.7178      1894.1411      3105.8589      1894.1411      3105.8589      1894.1411      3105.8589      1.7791169e+09  0.5            5263900        1.5527758      5784.4695      11569.003      7.1706934    
  10523000   67961.416     -12.797912     -27609148       0.33786433     202377.49     -27406771       1211.7178      1211.7178      1211.7178      1894.1411      3105.8589      1894.1411      3105.8589      1894.1411      3105.8589      1.7791169e+09  0.5            5264000        1.5709327      5507.5071      11014.974      7.1564819    
  10523200   68167.077     -12.159598     -27607916       0.33786433     202989.92     -27404926       1211.7178      1211.7178      1211.7178      1894.1411      3105.8589      1894.1411      3105.8589      1894.1411      3105.8589      1.7791169e+09  0.5            5264100        1.5883734      5733.7779      11467.571      7.1389622    
  10523400   67457.73      -11.799457     -27614055       0.33786433     200877.6      -27413178       1211.7178      1211.7178      1211.7178      1894.1411      3105.8589      1894.1411      3105.8589      1894.1411      3105.8589      1.7791169e+09  0.5            5264200        1.6059568      5687.1796      11374.383      7.1220786    
  10523600   67755.439     -11.408886     -27612819       0.33786433     201764.13     -27411054       1211.7178      1211.7178      1211.7178      1894.1411      3105.8589      1894.1411      3105.8589      1894.1411      3105.8589      1.7791169e+09  0.5            5264300        1.623183       5805.098       11610.194      7.1036163    
  10523800   69709.044     -10.903069     -27618956       0.33786433     207581.63     -27411374       1211.7178      1211.7178      1211.7178      1894.1411      3105.8589      1894.1411      3105.8589      1894.1411      3105.8589      1.7791169e+09  0.5            5264400        1.640481       5780.9907      11561.933      7.0854918    
  10524000   71688.449     -10.610211     -27627007       0.33786433     213475.96     -27413531       1211.7178      1211.7178      1211.7178      1894.1411      3105.8589      1894.1411      3105.8589      1894.1411      3105.8589      1.7791169e+09  0.5            5264500        1.658371       5589.7121      11179.426      7.0699074    
  10524200   71763.246     -10.133694     -27625803       0.33786433     213698.69     -27412104       1211.7178      1211.7178      1211.7178      1894.1411      3105.8589      1894.1411      3105.8589      1894.1411      3105.8589      1.7791169e+09  0.5            5264600        1.6760548      5654.9194      11309.886      7.0534059    
  10524400   70589.769     -9.6455396     -27617235       0.33786433     210204.28     -27407031       1211.7178      1211.7178      1211.7178      1894.1411      3105.8589      1894.1411      3105.8589      1894.1411      3105.8589      1.7791169e+09  0.5            5264700        1.6940941      5543.4278      11086.867      7.0383588    
  10524600   71464.359     -9.148736      -27616086       0.33786433     212808.66     -27403278       1211.7178      1211.7178      1211.7178      1894.1411      3105.8589      1894.1411      3105.8589      1894.1411      3105.8589      1.7791169e+09  0.5            5264800        1.7113351      5800.1549      11600.303      7.0199749    
  10524800   75070.443     -8.4609712     -27614918       0.33786433     223546.96     -27391371       1211.7178      1211.7178      1211.7178      1894.1411      3105.8589      1894.1411      3105.8589      1894.1411      3105.8589      1.7791169e+09  0.5            5264900        1.7289093      5690.1465      11380.299      7.0029646    
  10525000   75160.591     -7.9636348     -27613741       0.33786433     223815.4      -27389926       1211.7178      1211.7178      1211.7178      1894.1411      3105.8589      1894.1411      3105.8589      1894.1411      3105.8589      1.7791169e+09  0.5            5265000        1.7462146      5778.6005      11557.16       6.9848675    
  10525200   73134.86      -7.7453502     -27619962       0.33786433     217783.12     -27402178       1211.7178      1211.7178      1211.7178      1894.1411      3105.8589      1894.1411      3105.8589      1894.1411      3105.8589      1.7791169e+09  0.5            5265100        1.7642298      5550.8407      11101.711      6.9695907    
  10525400   73002.786     -7.2748271     -27620714       0.33786433     217389.83     -27403324       1211.7178      1211.7178      1211.7178      1894.1411      3105.8589      1894.1411      3105.8589      1894.1411      3105.8589      1.7791169e+09  0.5            5265200        1.7817495      5707.8619      11415.755      6.9523247    
  10525600   77872.412     -6.4872723     -27621426       0.33786433     231890.75     -27389535       1211.7178      1211.7178      1211.7178      1894.1411      3105.8589      1894.1411      3105.8589      1894.1411      3105.8589      1.7791169e+09  0.5            5265300        1.799393       5667.7766      11335.51       6.9355333    
  10525800   78288.659     -5.973611      -27620181       0.33786433     233130.26     -27387051       1211.7178      1211.7178      1211.7178      1894.1411      3105.8589      1894.1411      3105.8589      1894.1411      3105.8589      1.7791169e+09  0.5            5265400        1.816671       5787.7528      11575.514      6.9173323    
  10526000   76462.949     -5.6781524     -27618896       0.33786433     227693.61     -27391203       1211.7178      1211.7178      1211.7178      1894.1411      3105.8589      1894.1411      3105.8589      1894.1411      3105.8589      1.7791169e+09  0.5            5265500        1.8342487      5689.0086      11377.938      6.900278     
  10526200   76807.505     -5.126722      -27602812       0.33786433     228719.64     -27374092       1211.7178      1211.7178      1211.7178      1894.1411      3105.8589      1894.1411      3105.8589      1894.1411      3105.8589      1.7791169e+09  0.5            5265600        1.851573       5772.266       11544.552      6.88227      
  10526400   81608.004     -4.3081042     -27595914       0.33786433     243014.7      -27352900       1211.7178      1211.7178      1211.7178      1894.1411      3105.8589      1894.1411      3105.8589      1894.1411      3105.8589      1.7791169e+09  0.5            5265700        1.8691637      5684.8101      11369.68       6.8652538    
  10526600   81124.255     -3.7662192     -27601788       0.33786433     241574.18     -27360213       1211.7178      1211.7178      1211.7178      1894.1411      3105.8589      1894.1411      3105.8589      1894.1411      3105.8589      1.7791169e+09  0.5            5265800        1.8868687      5648.1041      11296.166      6.8486433    
  10526800   78960.782     -3.4959854     -27600255       0.33786433     235131.73     -27365124       1211.7178      1211.7178      1211.7178      1894.1411      3105.8589      1894.1411      3105.8589      1894.1411      3105.8589      1.7791169e+09  0.5            5265900        1.9041579      5783.9794      11567.983      6.8305192    
  10527000   80731.483     -3.0869541     -27598688       0.33786433     240404.57     -27358283       1211.7178      1211.7178      1211.7178      1894.1411      3105.8589      1894.1411      3105.8589      1894.1411      3105.8589      1.7791169e+09  0.5            5266000        1.9217693      5678.1251      11356.213      6.813554     
  10527200   85356.193     -2.3285272     -27604431       0.33786433     254176.17     -27350255       1211.7178      1211.7178      1211.7178      1894.1411      3105.8589      1894.1411      3105.8589      1894.1411      3105.8589      1.7791169e+09  0.5            5266100        1.9390799      5776.8373      11553.681      6.7955218    
  10527400   83196.406     -1.9170876     -27610164       0.33786433     247744.69     -27362419       1211.7178      1211.7178      1211.7178      1894.1411      3105.8589      1894.1411      3105.8589      1894.1411      3105.8589      1.7791169e+09  0.5            5266200        1.9567507      5659.0489      11318.066      6.7787512    
  10527600   81168.065     -2.0224506     -27608565       0.33786433     241704.64     -27366861       1211.7178      1211.7178      1211.7178      1894.1411      3105.8589      1894.1411      3105.8589      1894.1411      3105.8589      1.7791169e+09  0.5            5266300        1.9743955      5667.3841      11334.771      6.7618756    
  10527800   84876.449     -1.4226664     -27612489       0.33786433     252747.57     -27359741       1211.7178      1211.7178      1211.7178      1894.1411      3105.8589      1894.1411      3105.8589      1894.1411      3105.8589      1.7791169e+09  0.5            5266400        1.991999       5680.6678      11361.407      6.7448461    
  10528000   87566.056     -1.0240745     -27603575       0.33786433     260756.76     -27342818       1211.7178      1211.7178      1211.7178      1894.1411      3105.8589      1894.1411      3105.8589      1894.1411      3105.8589      1.7791169e+09  0.5            5266500        2.0092283      5804.094       11608.111      6.7265545    
  10528200   85605.728     -0.87491657    -27602094       0.33786433     254919.24     -27347175       1211.7178      1211.7178      1211.7178      1894.1411      3105.8589      1894.1411      3105.8589      1894.1411      3105.8589      1.7791169e+09  0.5            5266600        2.0265021      5789.1145      11578.331      6.7084278    
  10528400   84809.163     -0.64471914    -27609975       0.33786433     252547.21     -27357427       1211.7178      1211.7178      1211.7178      1894.1411      3105.8589      1894.1411      3105.8589      1894.1411      3105.8589      1.7791169e+09  0.5            5266700        2.0440199      5708.4657      11416.921      6.6911151    
  10528600   89135.801     -0.11190868    -27608667       0.33786433     265431.19     -27343236       1211.7178      1211.7178      1211.7178      1894.1411      3105.8589      1894.1411      3105.8589      1894.1411      3105.8589      1.7791169e+09  0.5            5266800        2.0615278      5711.7243      11423.385      6.6737669    
  10528800   91194.303      0.19493526    -27607392       0.33786433     271561.06     -27335831       1211.7178      1211.7178      1211.7178      1894.1411      3105.8589      1894.1411      3105.8589      1894.1411      3105.8589      1.7791169e+09  0.5            5266900        2.0792107      5655.1772      11310.411      6.6569753    
  10529000   88775.128     -0.17950348    -27615460       0.33786433     264357.17     -27351103       1211.7178      1211.7178      1211.7178      1894.1411      3105.8589      1894.1411      3105.8589      1894.1411      3105.8589      1.7791169e+09  0.5            5267000        2.0964384      5804.5966      11609.168      6.6387285    
  10529200   88107.763     -0.03859911    -27610550       0.33786433     262369.87     -27348181       1211.7178      1211.7178      1211.7178      1894.1411      3105.8589      1894.1411      3105.8589      1894.1411      3105.8589      1.7791169e+09  0.5            5267100        2.1136638      5805.4         11610.77       6.6204909    
  10529400   90109.7        0.29642562    -27611402       0.33786433     268331.3      -27343071       1211.7178      1211.7178      1211.7178      1894.1411      3105.8589      1894.1411      3105.8589      1894.1411      3105.8589      1.7791169e+09  0.5            5267200        2.1311695      5712.4267      11424.923      6.6031381    
  10529600   92503.382      0.46151329    -27610400       0.33786433     275459.27     -27334941       1211.7178      1211.7178      1211.7178      1894.1411      3105.8589      1894.1411      3105.8589      1894.1411      3105.8589      1.7791169e+09  0.5            5267300        2.1483316      5826.807       11653.588      6.5847302    
  10529800   92527.053      0.31827238    -27611696       0.33786433     275529.76     -27336166       1211.7178      1211.7178      1211.7178      1894.1411      3105.8589      1894.1411      3105.8589      1894.1411      3105.8589      1.7791169e+09  0.5            5267400        2.1661869      5600.535       11201.047      6.5684447    
  10530000   88093.474      0.043144005   -27603414       0.33786433     262327.32     -27341087       1211.7178      1211.7178      1211.7178      1894.1411      3105.8589      1894.1411      3105.8589      1894.1411      3105.8589      1.7791169e+09  0.5            5267500        2.1836387      5730.0732      11460.1        6.550923     
  10530200   88002.13      -0.021669876   -27600696       0.33786433     262055.32     -27338641       1211.7178      1211.7178      1211.7178      1894.1411      3105.8589      1894.1411      3105.8589      1894.1411      3105.8589      1.7791169e+09  0.5            5267600        2.2009088      5790.3591      11580.815      6.5328625    
  10530400   94310.866      0.47385308    -27599911       0.33786433     280841.66     -27319069       1211.7178      1211.7178      1211.7178      1894.1411      3105.8589      1894.1411      3105.8589      1894.1411      3105.8589      1.7791169e+09  0.5            5267700        2.218451       5700.5438      11401.054      6.5156143    
  10530600   96737.657      0.61240254    -27599145       0.33786433     288068.22     -27311077       1211.7178      1211.7178      1211.7178      1894.1411      3105.8589      1894.1411      3105.8589      1894.1411      3105.8589      1.7791169e+09  0.5            5267800        2.2356957      5798.905       11597.819      6.4974968    
  10530800   95773.925      0.49168559    -27598401       0.33786433     285198.39     -27313203       1211.7178      1211.7178      1211.7178      1894.1411      3105.8589      1894.1411      3105.8589      1894.1411      3105.8589      1.7791169e+09  0.5            5267900        2.2529257      5803.8248      11607.682      6.4793501    
  10531000   93850.444      0.27089291    -27595780       0.33786433     279470.6      -27316310       1211.7178      1211.7178      1211.7178      1894.1411      3105.8589      1894.1411      3105.8589      1894.1411      3105.8589      1.7791169e+09  0.5            5268000        2.2712028      5471.3086      10942.555      6.464199     
  10531200   96583.518      0.39449738    -27595061       0.33786433     287609.22     -27307451       1211.7178      1211.7178      1211.7178      1894.1411      3105.8589      1894.1411      3105.8589      1894.1411      3105.8589      1.7791169e+09  0.5            5268100        2.2898466      5363.7292      10727.507      6.4500317    
  10531400   101169.04      0.63872994    -27586950       0.33786433     301264.13     -27285686       1211.7178      1211.7178      1211.7178      1894.1411      3105.8589      1894.1411      3105.8589      1894.1411      3105.8589      1.7791169e+09  0.5            5268200        2.3074455      5679.1093      11358.166      6.4329111    
  10531600   99234.23       0.27254063    -27576907       0.33786433     295502.59     -27281405       1211.7178      1211.7178      1211.7178      1894.1411      3105.8589      1894.1411      3105.8589      1894.1411      3105.8589      1.7791169e+09  0.5            5268300        2.3252798      5610.1564      11220.389      6.4163792    
  10531800   96748.156      0.027457363   -27576126       0.33786433     288099.49     -27288027       1211.7178      1211.7178      1211.7178      1894.1411      3105.8589      1894.1411      3105.8589      1894.1411      3105.8589      1.7791169e+09  0.5            5268400        2.3425462      5791.6097      11583.144      6.3983036    
  10532000   100299.02     -0.072974014   -27584590       0.33786433     298673.37     -27285916       1211.7178      1211.7178      1211.7178      1894.1411      3105.8589      1894.1411      3105.8589      1894.1411      3105.8589      1.7791169e+09  0.5            5268500        2.3602923      5635.0082      11269.94       6.3815377    
  10532200   106072.31      0.38109921    -27576684       0.33786433     315865.21     -27260818       1211.7178      1211.7178      1211.7178      1894.1411      3105.8589      1894.1411      3105.8589      1894.1411      3105.8589      1.7791169e+09  0.5            5268600        2.3780267      5638.7751      11277.569      6.3647248    
  10532400   101685.35      0.086194415   -27575672       0.33786433     302801.6      -27272870       1211.7178      1211.7178      1211.7178      1894.1411      3105.8589      1894.1411      3105.8589      1894.1411      3105.8589      1.7791169e+09  0.5            5268700        2.395652       5673.6568      11347.404      6.3476091    
  10532600   99065.959     -0.046434283   -27563639       0.33786433     295001.51     -27268638       1211.7178      1211.7178      1211.7178      1894.1411      3105.8589      1894.1411      3105.8589      1894.1411      3105.8589      1.7791169e+09  0.5            5268800        2.4128693      5808.1339      11616.304      6.3294159    
  10532800   102523.31      0.074183327   -27584655       0.33786433     305296.91     -27279358       1211.7178      1211.7178      1211.7178      1894.1411      3105.8589      1894.1411      3105.8589      1894.1411      3105.8589      1.7791169e+09  0.5            5268900        2.4304291      5694.7962      11389.565      6.3121272    
  10533000   106007.03      0.23276696    -27594398       0.33786433     315670.83     -27278727       1211.7178      1211.7178      1211.7178      1894.1411      3105.8589      1894.1411      3105.8589      1894.1411      3105.8589      1.7791169e+09  0.5            5269000        2.447729       5780.3502      11560.597      6.2941666    
  10533200   104759.71      0.18084736    -27600416       0.33786433     311956.53     -27288460       1211.7178      1211.7178      1211.7178      1894.1411      3105.8589      1894.1411      3105.8589      1894.1411      3105.8589      1.7791169e+09  0.5            5269100        2.4654607      5639.6544      11279.418      6.2773131    
  10533400   103868.37      0.21765971    -27589682       0.33786433     309302.26     -27280379       1211.7178      1211.7178      1211.7178      1894.1411      3105.8589      1894.1411      3105.8589      1894.1411      3105.8589      1.7791169e+09  0.5            5269200        2.4832528      5620.4827      11240.983      6.2606001    
  10533600   105509.75      0.43972038    -27580718       0.33786433     314190.03     -27266528       1211.7178      1211.7178      1211.7178      1894.1411      3105.8589      1894.1411      3105.8589      1894.1411      3105.8589      1.7791169e+09  0.5            5269300        2.5004869      5802.4293      11604.828      6.2424795    
  10533800   111147.62      1.0177877     -27593723       0.33786433     330978.64     -27262744       1211.7178      1211.7178      1211.7178      1894.1411      3105.8589      1894.1411      3105.8589      1894.1411      3105.8589      1.7791169e+09  0.5            5269400        2.5180939      5679.5731      11359.157      6.2252929    
  10534000   114399.8       1.5120777     -27591778       0.33786433     340663.06     -27251115       1211.7178      1211.7178      1211.7178      1894.1411      3105.8589      1894.1411      3105.8589      1894.1411      3105.8589      1.7791169e+09  0.5            5269500        2.5354026      5777.422       11554.785      6.2073707    
  10534200   104239.55      0.76564321    -27591645       0.33786433     310407.59     -27281238       1211.7178      1211.7178      1211.7178      1894.1411      3105.8589      1894.1411      3105.8589      1894.1411      3105.8589      1.7791169e+09  0.5            5269600        2.5527462      5765.8296      11531.687      6.1895404    
  10534400   105215.73      1.1882212     -27589601       0.33786433     313314.48     -27276286       1211.7178      1211.7178      1211.7178      1894.1411      3105.8589      1894.1411      3105.8589      1894.1411      3105.8589      1.7791169e+09  0.5            5269700        2.5707846      5543.7249      11087.458      6.1733858    
  10534600   110597.81      1.8340489     -27587477       0.33786433     329341.38     -27258136       1211.7178      1211.7178      1211.7178      1894.1411      3105.8589      1894.1411      3105.8589      1894.1411      3105.8589      1.7791169e+09  0.5            5269800        2.5881949      5743.7469      11487.493      6.1557117    
  10534800   112208.73      2.6234718     -27583383       0.33786433     334138.44     -27249245       1211.7178      1211.7178      1211.7178      1894.1411      3105.8589      1894.1411      3105.8589      1894.1411      3105.8589      1.7791169e+09  0.5            5269900        2.6058105      5676.7671      11353.55       6.138525     
  10535000   110472.83      2.7376881     -27583088       0.33786433     328969.21     -27254118       1211.7178      1211.7178      1211.7178      1894.1411      3105.8589      1894.1411      3105.8589      1894.1411      3105.8589      1.7791169e+09  0.5            5270000        2.6231606      5763.6542      11527.194      6.1207135    
  10535200   108774.68      2.5823577     -27590220       0.33786433     323912.43     -27266308       1211.7178      1211.7178      1211.7178      1894.1411      3105.8589      1894.1411      3105.8589      1894.1411      3105.8589      1.7791169e+09  0.5            5270100        2.6405459      5752.0157      11504.078      6.1029884    
  10535400   113690.8       3.1188972     -27595485       0.33786433     338551.8      -27256933       1211.7178      1211.7178      1211.7178      1894.1411      3105.8589      1894.1411      3105.8589      1894.1411      3105.8589      1.7791169e+09  0.5            5270200        2.6583189      5626.4868      11253.016      6.0861561    
  10535600   116532         3.5465696     -27610019       0.33786433     347012.41     -27263006       1211.7178      1211.7178      1211.7178      1894.1411      3105.8589      1894.1411      3105.8589      1894.1411      3105.8589      1.7791169e+09  0.5            5270300        2.6760309      5645.9137      11291.844      6.0691727    
  10535800   113284.75      3.2425925     -27615347       0.33786433     337342.65     -27278004       1211.7178      1211.7178      1211.7178      1894.1411      3105.8589      1894.1411      3105.8589      1894.1411      3105.8589      1.7791169e+09  0.5            5270400        2.6936622      5671.6984      11343.395      6.0519991    
  10536000   110283.61      3.583963      -27615297       0.33786433     328405.75     -27286891       1211.7178      1211.7178      1211.7178      1894.1411      3105.8589      1894.1411      3105.8589      1894.1411      3105.8589      1.7791169e+09  0.5            5270500        2.7109767      5775.5077      11550.959      6.0341145    
  10536200   117019.99      4.2179119     -27615317       0.33786433     348465.55     -27266851       1211.7178      1211.7178      1211.7178      1894.1411      3105.8589      1894.1411      3105.8589      1894.1411      3105.8589      1.7791169e+09  0.5            5270600        2.7283424      5758.4753      11517.01       6.0163496    
  10536400   119608.24      4.6857595     -27613435       0.33786433     356172.93     -27257262       1211.7178      1211.7178      1211.7178      1894.1411      3105.8589      1894.1411      3105.8589      1894.1411      3105.8589      1.7791169e+09  0.5            5270700        2.7459727      5672.0783      11344.132      5.9991678    
  10536600   115699.55      4.3661137     -27620863       0.33786433     344533.5      -27276329       1211.7178      1211.7178      1211.7178      1894.1411      3105.8589      1894.1411      3105.8589      1894.1411      3105.8589      1.7791169e+09  0.5            5270800        2.7636111      5669.4453      11338.919      5.9819982    
  10536800   113789.82      4.391016      -27626455       0.33786433     338846.65     -27287608       1211.7178      1211.7178      1211.7178      1894.1411      3105.8589      1894.1411      3105.8589      1894.1411      3105.8589      1.7791169e+09  0.5            5270900        2.7813863      5625.8107      11251.61       5.965116     
  10537000   120799.1       5.0458462     -27639411       0.33786433     359719.08     -27279692       1211.7178      1211.7178      1211.7178      1894.1411      3105.8589      1894.1411      3105.8589      1894.1411      3105.8589      1.7791169e+09  0.5            5271000        2.7987584      5756.3502      11512.637      5.9473666    
  10537200   122133.41      5.5016067     -27635651       0.33786433     363692.43     -27271958       1211.7178      1211.7178      1211.7178      1894.1411      3105.8589      1894.1411      3105.8589      1894.1411      3105.8589      1.7791169e+09  0.5            5271100        2.8161102      5763.1194      11526.329      5.9295778    
  10537400   118824.8       5.504419      -27646619       0.33786433     353839.96     -27292779       1211.7178      1211.7178      1211.7178      1894.1411      3105.8589      1894.1411      3105.8589      1894.1411      3105.8589      1.7791169e+09  0.5            5271200        2.8337793      5659.5821      11319.15       5.9124575    
  10537600   118120.13      5.6350199     -27652073       0.33786433     351741.58     -27300332       1211.7178      1211.7178      1211.7178      1894.1411      3105.8589      1894.1411      3105.8589      1894.1411      3105.8589      1.7791169e+09  0.5            5271300        2.851092       5776.0865      11552.134      5.8945936    
  10537800   125380.51      6.2816274     -27657479       0.33786433     373361.74     -27284117       1211.7178      1211.7178      1211.7178      1894.1411      3105.8589      1894.1411      3105.8589      1894.1411      3105.8589      1.7791169e+09  0.5            5271400        2.8690647      5564.0228      11128.068      5.878088     
  10538000   126396.2       6.6266237     -27655373       0.33786433     376386.3      -27278987       1211.7178      1211.7178      1211.7178      1894.1411      3105.8589      1894.1411      3105.8589      1894.1411      3105.8589      1.7791169e+09  0.5            5271500        2.8865247      5727.3726      11454.684      5.8605245    
  10538200   122201.33      6.6702057     -27660564       0.33786433     363894.7      -27296669       1211.7178      1211.7178      1211.7178      1894.1411      3105.8589      1894.1411      3105.8589      1894.1411      3105.8589      1.7791169e+09  0.5            5271600        2.9041674      5668.0458      11336.16       5.8433291    
  10538400   121215.77      6.6812937     -27660270       0.33786433     360959.85     -27299310       1211.7178      1211.7178      1211.7178      1894.1411      3105.8589      1894.1411      3105.8589      1894.1411      3105.8589      1.7791169e+09  0.5            5271700        2.9214998      5769.5804      11539.143      5.8255097    
  10538600   125051.04      7.0976888     -27672807       0.33786433     372380.64     -27300426       1211.7178      1211.7178      1211.7178      1894.1411      3105.8589      1894.1411      3105.8589      1894.1411      3105.8589      1.7791169e+09  0.5            5271800        2.9388055      5778.4159      11556.84       5.8076436    
  10538800   129103.44      7.5352164     -27665075       0.33786433     384448.01     -27280627       1211.7178      1211.7178      1211.7178      1894.1411      3105.8589      1894.1411      3105.8589      1894.1411      3105.8589      1.7791169e+09  0.5            5271900        2.9564596      5664.4188      11328.803      5.7904664    
  10539000   124709.97      7.5833187     -27655484       0.33786433     371364.99     -27284119       1211.7178      1211.7178      1211.7178      1894.1411      3105.8589      1894.1411      3105.8589      1894.1411      3105.8589      1.7791169e+09  0.5            5272000        2.9741605      5649.4159      11298.843      5.7733748    
  10539200   116949.53      7.2312652     -27651544       0.33786433     348255.73     -27303288       1211.7178      1211.7178      1211.7178      1894.1411      3105.8589      1894.1411      3105.8589      1894.1411      3105.8589      1.7791169e+09  0.5            5272100        2.9920549      5588.3527      11176.745      5.7566476    
  10539400   124295.91      8.0229385     -27648101       0.33786433     370131.99     -27277969       1211.7178      1211.7178      1211.7178      1894.1411      3105.8589      1894.1411      3105.8589      1894.1411      3105.8589      1.7791169e+09  0.5            5272200        3.0093797      5772.0401      11544.104      5.7388211    
  10539600   129351.95      8.4085573     -27646248       0.33786433     385188.01     -27261060       1211.7178      1211.7178      1211.7178      1894.1411      3105.8589      1894.1411      3105.8589      1894.1411      3105.8589      1.7791169e+09  0.5            5272300        3.0266982      5774.1935      11548.364      5.7209884    
  10539800   130748.01      9.1130612     -27633319       0.33786433     389345.26     -27243974       1211.7178      1211.7178      1211.7178      1894.1411      3105.8589      1894.1411      3105.8589      1894.1411      3105.8589      1.7791169e+09  0.5            5272400        3.0443514      5664.6899      11329.366      5.7037888    
  10540000   128878.6       9.212261      -27631675       0.33786433     383778.45     -27247897       1211.7178      1211.7178      1211.7178      1894.1411      3105.8589      1894.1411      3105.8589      1894.1411      3105.8589      1.7791169e+09  0.5            5272500        3.0618815      5704.4753      11408.914      5.6863555    
  10540200   126997.53      8.7950732     -27630175       0.33786433     378176.95     -27251998       1211.7178      1211.7178      1211.7178      1894.1411      3105.8589      1894.1411      3105.8589      1894.1411      3105.8589      1.7791169e+09  0.5            5272600        3.0799039      5548.6269      11097.243      5.6698274    
  10540400   132155.58      9.1101081     -27628791       0.33786433     393536.75     -27235254       1211.7178      1211.7178      1211.7178      1894.1411      3105.8589      1894.1411      3105.8589      1894.1411      3105.8589      1.7791169e+09  0.5            5272700        3.0972674      5759.2228      11518.449      5.6520797    
  10540600   136266.93      9.5776856     -27621983       0.33786433     405779.65     -27216203       1211.7178      1211.7178      1211.7178      1894.1411      3105.8589      1894.1411      3105.8589      1894.1411      3105.8589      1.7791169e+09  0.5            5272800        3.1149671      5649.8126      11299.697      5.6349444    
  10540800   132128.99      9.2593833     -27628091       0.33786433     393457.58     -27234633       1211.7178      1211.7178      1211.7178      1894.1411      3105.8589      1894.1411      3105.8589      1894.1411      3105.8589      1.7791169e+09  0.5            5272900        3.1322621      5782.042       11563.997      5.6170772    
  10541000   128208.55      9.0069127     -27621419       0.33786433     381783.16     -27239636       1211.7178      1211.7178      1211.7178      1894.1411      3105.8589      1894.1411      3105.8589      1894.1411      3105.8589      1.7791169e+09  0.5            5273000        3.1496154      5762.5847      11525.189      5.5993203    
  10541200   136962.45      9.6502198     -27620633       0.33786433     407850.79     -27212782       1211.7178      1211.7178      1211.7178      1894.1411      3105.8589      1894.1411      3105.8589      1894.1411      3105.8589      1.7791169e+09  0.5            5273100        3.1677432      5516.3877      11032.772      5.5829325    
  10541400   139693.27      9.9446699     -27612046       0.33786433     415982.69     -27196063       1211.7178      1211.7178      1211.7178      1894.1411      3105.8589      1894.1411      3105.8589      1894.1411      3105.8589      1.7791169e+09  0.5            5273200        3.1852062      5726.3995      11452.863      5.5653639    
  10541600   133563.26      9.417774      -27612289       0.33786433     397728.58     -27214560       1211.7178      1211.7178      1211.7178      1894.1411      3105.8589      1894.1411      3105.8589      1894.1411      3105.8589      1.7791169e+09  0.5            5273300        3.202838       5671.5376      11343.069      5.5480893    
  10541800   131911.32      9.1029728     -27612853       0.33786433     392809.4      -27220043       1211.7178      1211.7178      1211.7178      1894.1411      3105.8589      1894.1411      3105.8589      1894.1411      3105.8589      1.7791169e+09  0.5            5273400        3.2201623      5772.283       11544.487      5.5302826    
  10542000   138571.42      9.7827649     -27605968       0.33786433     412642.01     -27193326       1211.7178      1211.7178      1211.7178      1894.1411      3105.8589      1894.1411      3105.8589      1894.1411      3105.8589      1.7791169e+09  0.5            5273500        3.2378596      5650.5542      11301.114      5.5131162    
  10542200   140637.62      9.7193943     -27611802       0.33786433     418794.83     -27193007       1211.7178      1211.7178      1211.7178      1894.1411      3105.8589      1894.1411      3105.8589      1894.1411      3105.8589      1.7791169e+09  0.5            5273600        3.2552909      5736.819       11473.584      5.4954952    
  10542400   138125.2       9.6776441     -27610112       0.33786433     411313.25     -27198798       1211.7178      1211.7178      1211.7178      1894.1411      3105.8589      1894.1411      3105.8589      1894.1411      3105.8589      1.7791169e+09  0.5            5273700        3.2730349      5635.711       11271.533      5.4783988    
  10542600   137289.39      9.7689942     -27600902       0.33786433     408824.37     -27192078       1211.7178      1211.7178      1211.7178      1894.1411      3105.8589      1894.1411      3105.8589      1894.1411      3105.8589      1.7791169e+09  0.5            5273800        3.2908062      5627.0431      11254.115      5.4613414    
  10542800   141180.54      10.0628       -27593440       0.33786433     420411.55     -27173029       1211.7178      1211.7178      1211.7178      1894.1411      3105.8589      1894.1411      3105.8589      1894.1411      3105.8589      1.7791169e+09  0.5            5273900        3.3081192      5776.0225      11552.025      5.4435222    
  10543000   149479.51      10.639394     -27593521       0.33786433     445124.46     -27148397       1211.7178      1211.7178      1211.7178      1894.1411      3105.8589      1894.1411      3105.8589      1894.1411      3105.8589      1.7791169e+09  0.5            5274000        3.3258058      5653.9657      11307.926      5.4263183    
  10543200   143807.47      10.268666     -27583770       0.33786433     428234.1      -27155536       1211.7178      1211.7178      1211.7178      1894.1411      3105.8589      1894.1411      3105.8589      1894.1411      3105.8589      1.7791169e+09  0.5            5274100        3.3432041      5747.6963      11495.325      5.4086427    
  10543400   139538.04      9.9174774     -27579447       0.33786433     415520.46     -27163927       1211.7178      1211.7178      1211.7178      1894.1411      3105.8589      1894.1411      3105.8589      1894.1411      3105.8589      1.7791169e+09  0.5            5274200        3.3610928      5590.1199      11180.292      5.3917565    
  10543600   141574.01      10.279256     -27560333       0.33786433     421583.22     -27138750       1211.7178      1211.7178      1211.7178      1894.1411      3105.8589      1894.1411      3105.8589      1894.1411      3105.8589      1.7791169e+09  0.5            5274300        3.3788052      5645.7601      11291.483      5.3745799    
  10543800   145931.06      10.012451     -27585430       0.33786433     434557.78     -27150872       1211.7178      1211.7178      1211.7178      1894.1411      3105.8589      1894.1411      3105.8589      1894.1411      3105.8589      1.7791169e+09  0.5            5274400        3.3964942      5653.2289      11306.411      5.3573606    
  10544000   146781.04      10.262897     -27584767       0.33786433     437088.88     -27147678       1211.7178      1211.7178      1211.7178      1894.1411      3105.8589      1894.1411      3105.8589      1894.1411      3105.8589      1.7791169e+09  0.5            5274500        3.4139283      5735.8779      11471.771      5.3397377    
  10544200   141897.92      9.7202822     -27584122       0.33786433     422547.78     -27161575       1211.7178      1211.7178      1211.7178      1894.1411      3105.8589      1894.1411      3105.8589      1894.1411      3105.8589      1.7791169e+09  0.5            5274600        3.4313313      5746.145       11492.337      5.3220682    
  10544400   137410.08      9.1382492     -27575839       0.33786433     409183.76     -27166655       1211.7178      1211.7178      1211.7178      1894.1411      3105.8589      1894.1411      3105.8589      1894.1411      3105.8589      1.7791169e+09  0.5            5274700        3.4494928      5506.1795      11012.407      5.3055682    
  10544600   146434.05      9.7140284     -27575394       0.33786433     436055.61     -27139339       1211.7178      1211.7178      1211.7178      1894.1411      3105.8589      1894.1411      3105.8589      1894.1411      3105.8589      1.7791169e+09  0.5            5274800        3.467252       5630.8405      11261.68       5.2884383    
  10544800   149280.88      9.6392516     -27576899       0.33786433     444532.96     -27132366       1211.7178      1211.7178      1211.7178      1894.1411      3105.8589      1894.1411      3105.8589      1894.1411      3105.8589      1.7791169e+09  0.5            5274900        3.4851181      5597.2094      11194.379      5.2714635    
  10545000   147750.55      9.1585065     -27576609       0.33786433     439975.91     -27136633       1211.7178      1211.7178      1211.7178      1894.1411      3105.8589      1894.1411      3105.8589      1894.1411      3105.8589      1.7791169e+09  0.5            5275000        3.5025195      5746.5462      11493.065      5.2537832    
  10545200   146429.21      8.6561561     -27587826       0.33786433     436041.18     -27151785       1211.7178      1211.7178      1211.7178      1894.1411      3105.8589      1894.1411      3105.8589      1894.1411      3105.8589      1.7791169e+09  0.5            5275100        3.5202646      5635.4881      11271.064      5.2366155    
  10545400   151481.79      8.9031679     -27587843       0.33786433     451086.9      -27136756       1211.7178      1211.7178      1211.7178      1894.1411      3105.8589      1894.1411      3105.8589      1894.1411      3105.8589      1.7791169e+09  0.5            5275200        3.5376601      5748.6072      11497.171      5.2189274    
  10545600   156129.68      8.8733379     -27578697       0.33786433     464927.52     -27113770       1211.7178      1211.7178      1211.7178      1894.1411      3105.8589      1894.1411      3105.8589      1894.1411      3105.8589      1.7791169e+09  0.5            5275300        3.5553405      5655.9985      11311.832      5.2016592    
  10545800   149942.19      8.2519145     -27567771       0.33786433     446502.24     -27121268       1211.7178      1211.7178      1211.7178      1894.1411      3105.8589      1894.1411      3105.8589      1894.1411      3105.8589      1.7791169e+09  0.5            5275400        3.5731043      5629.4255      11258.992      5.1845073    
  10546000   144784.56      7.9063901     -27566657       0.33786433     431143.7      -27135514       1211.7178      1211.7178      1211.7178      1894.1411      3105.8589      1894.1411      3105.8589      1894.1411      3105.8589      1.7791169e+09  0.5            5275500        3.5906568      5697.1776      11394.336      5.167046     
  10546200   150447.01      8.0861436     -27557931       0.33786433     448005.52     -27109926       1211.7178      1211.7178      1211.7178      1894.1411      3105.8589      1894.1411      3105.8589      1894.1411      3105.8589      1.7791169e+09  0.5            5275600        3.6084396      5623.3959      11246.842      5.149912     
  10546400   152784.25      7.8741499     -27556651       0.33786433     454965.4      -27101686       1211.7178      1211.7178      1211.7178      1894.1411      3105.8589      1894.1411      3105.8589      1894.1411      3105.8589      1.7791169e+09  0.5            5275700        3.6258774      5734.6904      11469.374      5.1322835    
  10546600   154356.03      7.805343      -27555424       0.33786433     459645.89     -27095778       1211.7178      1211.7178      1211.7178      1894.1411      3105.8589      1894.1411      3105.8589      1894.1411      3105.8589      1.7791169e+09  0.5            5275800        3.6436515      5626.1437      11252.285      5.1151293    
  10546800   156131.84      7.414917      -27569000       0.33786433     464933.96     -27104066       1211.7178      1211.7178      1211.7178      1894.1411      3105.8589      1894.1411      3105.8589      1894.1411      3105.8589      1.7791169e+09  0.5            5275900        3.6611721      5707.5879      11415.22       5.0976157    
  10547000   156691.36      7.2299759     -27567830       0.33786433     466600.12     -27101230       1211.7178      1211.7178      1211.7178      1894.1411      3105.8589      1894.1411      3105.8589      1894.1411      3105.8589      1.7791169e+09  0.5            5276000        3.6794176      5480.7786      10961.46       5.0811038    
  10547200   155184.9       7.0029754     -27566649       0.33786433     462114.12     -27104535       1211.7178      1211.7178      1211.7178      1894.1411      3105.8589      1894.1411      3105.8589      1894.1411      3105.8589      1.7791169e+09  0.5            5276100        3.696899       5720.3814      11440.759      5.0635283    
  10547400   154457.49      6.6984136     -27558071       0.33786433     459948.02     -27098123       1211.7178      1211.7178      1211.7178      1894.1411      3105.8589      1894.1411      3105.8589      1894.1411      3105.8589      1.7791169e+09  0.5            5276200        3.7146795      5624.1527      11248.375      5.0463599    
  10547600   159661.52      6.767482      -27566111       0.33786433     475444.75     -27090666       1211.7178      1211.7178      1211.7178      1894.1411      3105.8589      1894.1411      3105.8589      1894.1411      3105.8589      1.7791169e+09  0.5            5276300        3.7320624      5752.7721      11505.562      5.0286502    
  10547800   163573.71      6.8663759     -27550000       0.33786433     487094.56     -27062906       1211.7178      1211.7178      1211.7178      1894.1411      3105.8589      1894.1411      3105.8589      1894.1411      3105.8589      1.7791169e+09  0.5            5276400        3.7497758      5645.4487      11290.865      5.0113855    
  10548000   157377.45      6.3728574     -27552353       0.33786433     468643.17     -27083709       1211.7178      1211.7178      1211.7178      1894.1411      3105.8589      1894.1411      3105.8589      1894.1411      3105.8589      1.7791169e+09  0.5            5276500        3.7675573      5623.8222      11247.611      4.9942068    
  10548200   150843.55      5.5089261     -27565616       0.33786433     449186.34     -27116429       1211.7178      1211.7178      1211.7178      1894.1411      3105.8589      1894.1411      3105.8589      1894.1411      3105.8589      1.7791169e+09  0.5            5276600        3.7854811      5579.1759      11158.415      4.9772094    
  10548400   158948.09      6.2014024     -27564046       0.33786433     473320.27     -27090725       1211.7178      1211.7178      1211.7178      1894.1411      3105.8589      1894.1411      3105.8589      1894.1411      3105.8589      1.7791169e+09  0.5            5276700        3.8029466      5725.5451      11451.021      4.9596062    
  10548600   161826.5       6.6045217     -27558528       0.33786433     481891.68     -27076637       1211.7178      1211.7178      1211.7178      1894.1411      3105.8589      1894.1411      3105.8589      1894.1411      3105.8589      1.7791169e+09  0.5            5276800        3.8203593      5742.9506      11485.903      4.9419355    
  10548800   162095.46      6.6709906     -27556318       0.33786433     482692.61     -27073626       1211.7178      1211.7178      1211.7178      1894.1411      3105.8589      1894.1411      3105.8589      1894.1411      3105.8589      1.7791169e+09  0.5            5276900        3.8386822      5457.6698      10915.362      4.9254351    
  10549000   162972.06      6.7968804     -27550762       0.33786433     485302.96     -27065459       1211.7178      1211.7178      1211.7178      1894.1411      3105.8589      1894.1411      3105.8589      1894.1411      3105.8589      1.7791169e+09  0.5            5277000        3.8561174      5735.5002      11470.972      4.9077887    
  10549200   165560.04      7.0829365     -27563411       0.33786433     493009.52     -27070401       1211.7178      1211.7178      1211.7178      1894.1411      3105.8589      1894.1411      3105.8589      1894.1411      3105.8589      1.7791169e+09  0.5            5277100        3.8742987      5500.1568      11000.307      4.8910858    
  10549400   168058.09      7.3481107     -27563428       0.33786433     500448.29     -27062979       1211.7178      1211.7178      1211.7178      1894.1411      3105.8589      1894.1411      3105.8589      1894.1411      3105.8589      1.7791169e+09  0.5            5277200        3.8918874      5685.4633      11370.937      4.8736276    
  10549600   165164.61      7.3200959     -27561038       0.33786433     491832.01     -27069206       1211.7178      1211.7178      1211.7178      1894.1411      3105.8589      1894.1411      3105.8589      1894.1411      3105.8589      1.7791169e+09  0.5            5277300        3.9096291      5636.4515      11272.947      4.856358     
  10549800   159122.95      7.038639      -27556672       0.33786433     473840.99     -27082831       1211.7178      1211.7178      1211.7178      1894.1411      3105.8589      1894.1411      3105.8589      1894.1411      3105.8589      1.7791169e+09  0.5            5277400        3.9270235      5748.9615      11497.863      4.8386568    
[...]
  11194400   307.94582      1.3866431     -28465566       0.35101486     917.01007     -28464649       1196.3928      1196.3928      1196.3928      1901.8036      3098.1964      1901.8036      3098.1964      1901.8036      3098.1964      1.7124635e+09  0.5            5599700        32.76828       4424.5859      8849.1707      1.2002204    
  11194600   307.72782      0.84436279    -28467558       0.35099933     916.36089     -28466642       1196.4104      1196.4104      1196.4104      1901.7948      3098.2052      1901.7948      3098.2052      1901.7948      3098.2052      1.7125393e+09  0.5            5599800        32.790828      4434.9599      8869.9313      1.1775712    
  11194800   307.56147     -0.038328123   -28467653       0.35097104     915.86553     -28466738       1196.4426      1196.4426      1196.4426      1901.7787      3098.2213      1901.7787      3098.2213      1901.7787      3098.2213      1.7126773e+09  0.5            5599900        32.81326       4457.7609      8913.4524      1.1549183    
  11195000   307.56841      0.46344842    -28467748       0.35099241     915.88619     -28466832       1196.4183      1196.4183      1196.4183      1901.7909      3098.2091      1901.7909      3098.2091      1901.7909      3098.2091      1.712573e+09   0.5            5600000        32.836103      4377.7183      8757.4071      1.1322795    
  11195200   307.8768       1.8508837     -28467838       0.35104544     916.80454     -28466921       1196.358       1196.358       1196.358       1901.821       3098.179       1901.821       3098.179       1901.821       3098.179       1.7123143e+09  0.5            5600100        32.859863      4208.849       8417.7206      1.1096715    
  11195400   307.91612      1.5969998     -28467934       0.35104007     916.92163     -28467017       1196.3641      1196.3641      1196.3641      1901.8179      3098.1821      1901.8179      3098.1821      1901.8179      3098.1821      1.7123405e+09  0.5            5600200        32.882283      4460.2378      8920.4729      1.0870177    
  11195600   307.78272      1.8684689     -28475405       0.35105554     916.52437     -28474489       1196.3466      1196.3466      1196.3466      1901.8267      3098.1733      1901.8267      3098.1733      1901.8267      3098.1733      1.7122651e+09  0.5            5600300        32.905372      4331.1011      8662.207       1.0643858    
  11195800   307.6947       1.5063543     -28482879       0.35104823     916.26227     -28481963       1196.3548      1196.3548      1196.3548      1901.8226      3098.1774      1901.8226      3098.1774      1901.8226      3098.1774      1.7123007e+09  0.5            5600400        32.927754      4467.9243      8935.8438      1.0417309    
  11196000   307.50612      0.2561701     -28482976       0.35100655     915.70071     -28482061       1196.4022      1196.4022      1196.4022      1901.7989      3098.2011      1901.7989      3098.2011      1901.7989      3098.2011      1.7125041e+09  0.5            5600500        32.950572      4382.531       8765.0135      1.0190899    
  11196200   307.54337      0.75837119    -28483069       0.35102698     915.81163     -28482153       1196.379       1196.379       1196.379       1901.8105      3098.1895      1901.8105      3098.1895      1901.8105      3098.1895      1.7124044e+09  0.5            5600600        32.973048      4449.026       8898.0717      0.99643835   
  11196400   307.67028      1.7869363     -28483159       0.35106705     916.18956     -28482242       1196.3335      1196.3335      1196.3335      1901.8333      3098.1667      1901.8333      3098.1667      1901.8333      3098.1667      1.712209e+09   0.5            5600700        32.995508      4452.3833      8904.7917      0.97378652   
  11196600   307.76715      0.52985669    -28483256       0.35102669     916.47801     -28482339       1196.3793      1196.3793      1196.3793      1901.8103      3098.1897      1901.8103      3098.1897      1901.8103      3098.1897      1.7124058e+09  0.5            5600800        33.017946      4456.8948      8913.8048      0.9511343    
  11196800   307.76032      0.66258139    -28483349       0.35103525     916.45769     -28482433       1196.3696      1196.3696      1196.3696      1901.8152      3098.1848      1901.8152      3098.1848      1901.8152      3098.1848      1.7123641e+09  0.5            5600900        33.040969      4343.3204      8686.5973      0.92849887   
  11197000   307.52186      1.780816      -28483439       0.35107819     915.7476      -28482524       1196.3208      1196.3208      1196.3208      1901.8396      3098.1604      1901.8396      3098.1604      1901.8396      3098.1604      1.7121546e+09  0.5            5601000        33.064249      4295.578       8591.1505      0.90586991   
  11197200   307.46334      0.77004143    -28483536       0.35104565     915.57333     -28482620       1196.3578      1196.3578      1196.3578      1901.8211      3098.1789      1901.8211      3098.1789      1901.8211      3098.1789      1.7123133e+09  0.5            5601100        33.086691      4455.9638      8911.9828      0.88321769   
  11197400   307.51161      0.43857171    -28483628       0.35103723     915.71708     -28482713       1196.3673      1196.3673      1196.3673      1901.8163      3098.1837      1901.8163      3098.1837      1901.8163      3098.1837      1.7123544e+09  0.5            5601200        33.10904       4474.4903      8948.9707      0.86056334   
  11197600   307.58266      1.7809189     -28483716       0.35108847     915.92863     -28482800       1196.3091      1196.3091      1196.3091      1901.8454      3098.1546      1901.8454      3098.1546      1901.8454      3098.1546      1.7121045e+09  0.5            5601300        33.131419      4468.4354      8936.8771      0.83791018   
  11197800   307.56928      0.50391185    -28483812       0.35104692     915.88881     -28482896       1196.3563      1196.3563      1196.3563      1901.8218      3098.1782      1901.8218      3098.1782      1901.8218      3098.1782      1.7123072e+09  0.5            5601400        33.154084      4412.1446      8824.2678      0.81526442   
  11198000   307.43865      1.0220999     -28483903       0.35106904     915.4998      -28482988       1196.3312      1196.3312      1196.3312      1901.8344      3098.1656      1901.8344      3098.1656      1901.8344      3098.1656      1.7121992e+09  0.5            5601500        33.177         4363.6959      8727.3808      0.79262464   
  11198200   307.49408      1.4043183     -28483994       0.35108643     915.66488     -28483078       1196.3115      1196.3115      1196.3115      1901.8443      3098.1557      1901.8443      3098.1557      1901.8443      3098.1557      1.7121144e+09  0.5            5601600        33.200208      4308.9374      8617.877       0.76999123   
  11198400   307.52518      0.32121798    -28484088       0.35105181     915.75747     -28483172       1196.3508      1196.3508      1196.3508      1901.8246      3098.1754      1901.8246      3098.1754      1901.8246      3098.1754      1.7122833e+09  0.5            5601700        33.22271       4443.9246      8887.8496      0.74734119   
  11198600   307.52158      1.8109929     -28484175       0.35110878     915.74675     -28483259       1196.2861      1196.2861      1196.2861      1901.857       3098.143       1901.857       3098.143       1901.857       3098.143       1.7120055e+09  0.5            5601800        33.245215      4443.4724      8886.9342      0.7246914    
  11198800   307.42093      0.16756975    -28484270       0.3510543      915.44703     -28483355       1196.348       1196.348       1196.348       1901.826       3098.174       1901.826       3098.174       1901.826       3098.174       1.7122711e+09  0.5            5601900        33.267926      4403.2694      8806.5702      0.70204613   
  11199000   307.30714      1.7974973     -28484357       0.35111655     915.10818     -28483442       1196.2773      1196.2773      1196.2773      1901.8614      3098.1386      1901.8614      3098.1386      1901.8614      3098.1386      1.7119676e+09  0.5            5602000        33.290324      4464.5494      8929.0733      0.67939443   
  11199200   307.36612      0.24318384    -28484452       0.35106539     915.28381     -28483537       1196.3354      1196.3354      1196.3354      1901.8323      3098.1677      1901.8323      3098.1677      1901.8323      3098.1677      1.712217e+09   0.5            5602100        33.312732      4462.7289      8925.4937      0.65674324   
  11199400   307.46525      1.7543696     -28484538       0.35112365     915.57902     -28483623       1196.2692      1196.2692      1196.2692      1901.8654      3098.1346      1901.8654      3098.1346      1901.8654      3098.1346      1.711933e+09   0.5            5602200        33.335673      4359.1236      8718.2601      0.63410251   
  11199600   307.41198      0.15244216    -28484633       0.35107096     915.42038     -28483717       1196.329       1196.329       1196.329       1901.8355      3098.1645      1901.8355      3098.1645      1901.8355      3098.1645      1.7121899e+09  0.5            5602300        33.358506      4379.4862      8758.9573      0.61145943   
  11199800   307.43624      2.0134363     -28484717       0.3511423      915.49262     -28483802       1196.248       1196.248       1196.248       1901.876       3098.124       1901.876       3098.124       1901.876       3098.124       1.711842e+09   0.5            5602400        33.380948      4456.0931      8912.1484      0.58880916   
  11200000   307.29833      0.70973058    -28484812       0.35110032     915.08195     -28483897       1196.2957      1196.2957      1196.2957      1901.8522      3098.1478      1901.8522      3098.1478      1901.8522      3098.1478      1.7120467e+09  0.5            5602500        33.40331       4471.7189      8943.4283      0.56615784   
  11200200   307.35701      0.046641347   -28486798       0.3510822      915.2567      -28485883       1196.3163      1196.3163      1196.3163      1901.8419      3098.1581      1901.8419      3098.1581      1901.8419      3098.1581      1.7121351e+09  0.5            5602600        33.425725      4461.392       8922.8146      0.54350776   
  11200400   307.3824       1.4032847     -28486885       0.35113512     915.3323      -28485970       1196.2562      1196.2562      1196.2562      1901.8719      3098.1281      1901.8719      3098.1281      1901.8719      3098.1281      1.711877e+09   0.5            5602700        33.448299      4429.8305      8859.6823      0.52086048   
  11200600   307.34614      1.5208375     -28486974       0.3511439      915.22433     -28486059       1196.2462      1196.2462      1196.2462      1901.8769      3098.1231      1901.8769      3098.1231      1901.8769      3098.1231      1.7118342e+09  0.5            5602800        33.470969      4411.2059      8822.4219      0.49821472   
  11200800   307.37871     -0.25923238    -28487067       0.35108486     915.32131     -28486152       1196.3132      1196.3132      1196.3132      1901.8434      3098.1566      1901.8434      3098.1566      1901.8434      3098.1566      1.7121221e+09  0.5            5602900        33.493486      4441.0641      8882.1085      0.47556677   
  11201000   307.40394      2.1187633     -28487152       0.3511751      915.39644     -28486236       1196.2108      1196.2108      1196.2108      1901.8946      3098.1054      1901.8946      3098.1054      1901.8946      3098.1054      1.7116821e+09  0.5            5603000        33.515983      4445.0061      8889.9727      0.45291872   
  11201200   307.58981      0.94816784    -28479870       0.35113496     915.94993     -28478954       1196.2563      1196.2563      1196.2563      1901.8718      3098.1282      1901.8718      3098.1282      1901.8718      3098.1282      1.7118778e+09  0.5            5603100        33.538627      4416.0814      8832.1843      0.43027277   
  11201400   307.63578      1.9028936     -28479957       0.3511732      916.08681     -28479041       1196.2129      1196.2129      1196.2129      1901.8935      3098.1065      1901.8935      3098.1065      1901.8935      3098.1065      1.7116914e+09  0.5            5603200        33.561456      4380.4486      8760.875       0.40762905   
  11201600   307.34969     -0.1421109     -28480053       0.35110329     915.23491     -28479138       1196.2923      1196.2923      1196.2923      1901.8538      3098.1462      1901.8538      3098.1462      1901.8538      3098.1462      1.7120322e+09  0.5            5603300        33.583891      4457.2687      8914.5823      0.38498058   
  11201800   307.26366      1.9708291     -28480138       0.35118268     914.97871     -28479223       1196.2022      1196.2022      1196.2022      1901.8989      3098.1011      1901.8989      3098.1011      1901.8989      3098.1011      1.7116452e+09  0.5            5603400        33.606307      4461.1193      8922.21        0.36233218   
  11202000   307.20755      0.6537431     -28480232       0.35113959     914.81162     -28479318       1196.2511      1196.2511      1196.2511      1901.8745      3098.1255      1901.8745      3098.1255      1901.8745      3098.1255      1.7118553e+09  0.5            5603500        33.628746      4456.5363      8913.0611      0.33968433   
  11202200   307.4687       0.54000483    -28480323       0.35114025     915.5893      -28479407       1196.2503      1196.2503      1196.2503      1901.8748      3098.1252      1901.8748      3098.1252      1901.8748      3098.1252      1.711852e+09   0.5            5603600        33.651539      4387.4337      8774.9017      0.31704009   
  11202400   307.59352      1.5932986     -28480410       0.35118293     915.96098     -28479494       1196.2019      1196.2019      1196.2019      1901.8991      3098.1009      1901.8991      3098.1009      1901.8991      3098.1009      1.7116439e+09  0.5            5603700        33.674032      4445.7301      8891.4465      0.29439304   
  11202600   307.48144      1.0111998     -28480503       0.35116673     915.62722     -28479587       1196.2203      1196.2203      1196.2203      1901.8899      3098.1101      1901.8899      3098.1101      1901.8899      3098.1101      1.7117229e+09  0.5            5603800        33.696489      4453.0479      8906.101       0.27174589   
  11202800   307.46413      0.49036554    -28480595       0.35115298     915.57569     -28479679       1196.2359      1196.2359      1196.2359      1901.8821      3098.1179      1901.8821      3098.1179      1901.8821      3098.1179      1.71179e+09    0.5            5603900        33.718967      4448.7146      8897.4055      0.24909917   
  11203000   307.46429      1.3881879     -28480684       0.35119018     915.57615     -28479769       1196.1936      1196.1936      1196.1936      1901.9032      3098.0968      1901.9032      3098.0968      1901.9032      3098.0968      1.7116086e+09  0.5            5604000        33.741359      4465.8573      8931.7187      0.22645209   
  11203200   307.61702      0.89731267    -28480778       0.35117688     916.03095     -28479862       1196.2087      1196.2087      1196.2087      1901.8956      3098.1044      1901.8956      3098.1044      1901.8956      3098.1044      1.7116735e+09  0.5            5604100        33.76473       4278.8792      8557.7742      0.20381126   
  11203400   307.58839      0.98784573    -28480870       0.35118371     915.94571     -28479954       1196.201       1196.201       1196.201       1901.8995      3098.1005      1901.8995      3098.1005      1901.8995      3098.1005      1.7116402e+09  0.5            5604200        33.787069      4476.5122      8953.022       0.18116392   
  11203600   307.49421      1.3919338     -28482855       0.35120264     915.66525     -28481939       1196.1795      1196.1795      1196.1795      1901.9103      3098.0897      1901.9103      3098.0897      1901.9103      3098.0897      1.7115479e+09  0.5            5604300        33.810051      4351.1106      8702.2481      0.15852001   
  11203800   307.47307      0.64513575    -28482949       0.35117942     915.60231     -28482033       1196.2059      1196.2059      1196.2059      1901.8971      3098.1029      1901.8971      3098.1029      1901.8971      3098.1029      1.7116611e+09  0.5            5604400        33.833173      4324.908       8649.7644      0.13587621   
  11204000   307.38004      1.3312108     -28483039       0.35120748     915.32528     -28482123       1196.174       1196.174       1196.174       1901.913       3098.087       1901.913       3098.087       1901.913       3098.087       1.7115243e+09  0.5            5604500        33.85591       4398.1667      8796.325       0.11323048   
  11204200   307.45641      0.66640682    -28483132       0.35118721     915.55269     -28482216       1196.197       1196.197       1196.197       1901.9015      3098.0985      1901.9015      3098.0985      1901.9015      3098.0985      1.7116231e+09  0.5            5604600        33.878506      4425.4389      8850.8973      0.090584248  
  11204400   307.44784      1.3755207     -28483220       0.35121579     915.52715     -28482305       1196.1646      1196.1646      1196.1646      1901.9177      3098.0823      1901.9177      3098.0823      1901.9177      3098.0823      1.7114838e+09  0.5            5604700        33.900835      4478.4943      8957.0123      0.06793755   
  11204600   307.32339      0.51559346    -28483313       0.35118844     915.15658     -28482398       1196.1956      1196.1956      1196.1956      1901.9022      3098.0978      1901.9022      3098.0978      1901.9022      3098.0978      1.7116171e+09  0.5            5604800        33.923287      4454.0966      8908.1642      0.045291441  
  11204800   307.45004      1.6657972     -28483400       0.35123378     915.53372     -28482484       1196.1441      1196.1441      1196.1441      1901.9279      3098.0721      1901.9279      3098.0721      1901.9279      3098.0721      1.7113962e+09  0.5            5604900        33.945662      4469.2408      8938.5155      0.02264554   
  11205000   307.47742      0.21258816    -28483495       0.3511858      915.61526     -28482579       1196.1986      1196.1986      1196.1986      1901.9007      3098.0993      1901.9007      3098.0993      1901.9007      3098.0993      1.71163e+09    0.5            5605000        33.96844       4390.1232      8780.2225      0            
Loop time of 33.9685 on 4 procs for 300000 steps with 1000 atoms

Performance: 381.530 ns/day, 0.063 hours/ns, 8831.708 timesteps/s
99.6% CPU use with 4 MPI tasks x no OpenMP threads

MPI task timing breakdown:
Section |  min time  |  avg time  |  max time  |%varavg| %total
---------------------------------------------------------------
Pair    | 1.3733     | 6.6948     | 17.633     | 247.7 | 19.71
Neigh   | 0.0030427  | 0.011848   | 0.029432   |   9.5 |  0.03
Comm    | 7.09       | 16.756     | 21.018     | 137.2 | 49.33
Output  | 0.056657   | 0.076917   | 0.13503    |  12.1 |  0.23
Modify  | 7.2249     | 7.7697     | 8.3106     |  14.0 | 22.87
Other   |            | 2.659      |            |       |  7.83

Nlocal:            250 ave         514 max         101 min
Histogram: 1 1 1 0 0 0 0 0 0 1
Nghost:         339.25 ave         401 max         265 min
Histogram: 1 0 0 0 0 1 1 0 0 1
Neighs:            934 ave        2545 max         137 min
Histogram: 1 2 0 0 0 0 0 0 0 1

Total # of neighbors = 3736
Ave neighs/atom = 3.736
Neighbor list builds = 96
Dangerous builds = 22

# run_style
run_style verlet

# write restart
write_restart ${write_res}
write_restart ./pgnpmf/37/equpmf16.res
System init for write_restart ...
Generated 0 of 1 mixed pair_coeff terms from geometric mixing rule

Total wall time: 0:01:10
