LAMMPS (23 Jun 2022 - Update 1)
OMP_NUM_THREADS environment is not set. Defaulting to 1 thread. (src/comm.cpp:98)
  using 1 OpenMP thread(s) per MPI task
# Read restart
read_restart ${read_res}
read_restart ./pgnpmf/37/equpmf73.res
Reading restart file ...
  restart file = 23 Jun 2022, LAMMPS = 23 Jun 2022
  restoring atom style atomic from restart
  orthogonal box = (2146.1249 2146.1249 2146.1249) to (2853.8751 2853.8751 2853.8751)
  1 by 1 by 1 MPI processor grid
  restoring pair style table from restart
  1000 atoms
  read_restart CPU = 0.004 seconds

# Settings

pair_style table spline 9941

pair_coeff 1 1 ./pgnpmf/N20.txt DE_GNP 75.6
pair_coeff 2 2 ./pgnpmf/N100.txt DE_GNP 115.92
WARNING: 3 of 9941 force values in table DE_GNP are inconsistent with -dE/dr.
WARNING:  Should only be flagged at inflection points (src/pair_table.cpp:463)
pair_coeff 1 2 ./pgnpmf/mixed_potential.txt DE_GNP 95.66
WARNING: 1562 of 9941 force values in table DE_GNP are inconsistent with -dE/dr.
WARNING:  Should only be flagged at inflection points (src/pair_table.cpp:463)

#Neigh_list Calc Frequency

neigh_modify delay 0 every 1 check yes

# Saving Frequency (50 frames)

variable ts_save equal ${steps_equ}
variable ts_save equal 5000

# Dump
#dump 1 all custom ${ts_save} ./pgnpmf/${folder}/equilibration/trajectory/trajectory_${usic}_${trial}.equ.custom type x y z ix iy iz
#dump_modify 1 first no sort id
#dump 2 all cfg 50000 ./equilibration/trajectory/ovito/dumpgen.tens_*.cfg mass type xs ys zs fx fy fz

# thermo_style
thermo_style custom step temp press pe density ke etotal lx ly lz xlo xhi ylo yhi zlo zhi vol dt time cpu tpcpu spcpu cpuremain

# run info
timestep ${ts}
timestep 0.1
thermo 200

# fix

fix 1 all momentum 1000 linear 1 1 1 angular
variable T equal ${temp}
variable T equal 300
fix 2 all nvt temp ${T} 370000 100.0
fix 2 all nvt temp 300 370000 100.0

run 100000
Generated 0 of 1 mixed pair_coeff terms from geometric mixing rule
Unused restart file global fix info:
  fix style: npt, fix ID: 5
Neighbor list info ...
  update every 1 steps, delay 0 steps, check yes
  max neighbors/atom: 2000, page size: 100000
  master list distance cutoff = 117.92
  ghost atom cutoff = 117.92
  binsize = 58.96, bins = 13 13 13
  1 neighbor lists, perpetual/occasional/extra = 1 0 0
  (1) pair table, perpetual
      attributes: half, newton on
      pair build: half/bin/atomonly/newton
      stencil: half/bin/3d
      bin: standard
Per MPI rank memory allocation (min/avg/max) = 3.114 | 3.114 | 3.114 Mbytes
   Step          Temp          Press          PotEng        Density         KinEng         TotEng           Lx             Ly             Lz            Xlo            Xhi            Ylo            Yhi            Zlo            Zhi           Volume           Dt            Time           CPU           T/CPU          S/CPU         CPULeft    
  51105000   305.25481      3.724115      -43637155       1.6955349      908.99671     -43636246       707.75026      707.75026      707.75026      2146.1249      2853.8751      2146.1249      2853.8751      2146.1249      2853.8751      3.5451948e+08  0.1            16035000       0              0              0              0            
  51105200   332.0679       3.5443349     -43637220       1.6955349      988.84151     -43636232       707.75026      707.75026      707.75026      2146.1249      2853.8751      2146.1249      2853.8751      2146.1249      2853.8751      3.5451948e+08  0.1            16035020       0.040761243    490.6524       4906.4083      20.341167    
  51105400   372.31321      3.5199746     -43635394       1.6955349      1108.6852     -43634286       707.75026      707.75026      707.75026      2146.1249      2853.8751      2146.1249      2853.8751      2146.1249      2853.8751      3.5451948e+08  0.1            16035040       0.08144074     491.64847      4916.4818      20.279416    
  51105600   415.89436      3.3273709     -43635468       1.6955349      1238.4624     -43634229       707.75026      707.75026      707.75026      2146.1249      2853.8751      2146.1249      2853.8751      2146.1249      2853.8751      3.5451948e+08  0.1            16035060       0.12213728     491.44401      4914.4481      20.234479    
  51105800   468.83797      3.1278878     -43635545       1.6955349      1396.1194     -43634149       707.75026      707.75026      707.75026      2146.1249      2853.8751      2146.1249      2853.8751      2146.1249      2853.8751      3.5451948e+08  0.1            16035080       0.1628235      491.5644       4915.646       20.190435    
  51106000   530.63627      2.9206049     -43635627       1.6955349      1580.1442     -43634047       707.75026      707.75026      707.75026      2146.1249      2853.8751      2146.1249      2853.8751      2146.1249      2853.8751      3.5451948e+08  0.1            16035100       0.20355403     491.03409      4910.3306      20.152101    
  51106200   601.59398      2.7060442     -43635714       1.6955349      1791.4442     -43633923       707.75026      707.75026      707.75026      2146.1249      2853.8751      2146.1249      2853.8751      2146.1249      2853.8751      3.5451948e+08  0.1            16035120       0.24425528     491.38633      4913.8709      20.110546    
  51106400   682.68173      2.4839323     -43635807       1.6955349      2032.9096     -43633774       707.75026      707.75026      707.75026      2146.1249      2853.8751      2146.1249      2853.8751      2146.1249      2853.8751      3.5451948e+08  0.1            16035140       0.28490669     491.98817      4919.8822      20.065733    
  51106600   775.00499      2.2546671     -43635906       1.6955349      2307.8325     -43633598       707.75026      707.75026      707.75026      2146.1249      2853.8751      2146.1249      2853.8751      2146.1249      2853.8751      3.5451948e+08  0.1            16035160       0.32557698     491.7595       4917.5939      20.023126    
  51106800   879.86179      2.019018      -43636012       1.6955349      2620.0782     -43633392       707.75026      707.75026      707.75026      2146.1249      2853.8751      2146.1249      2853.8751      2146.1249      2853.8751      3.5451948e+08  0.1            16035180       0.36629197     491.2191       4912.1952      19.983388    
  51107000   998.63525      1.7779032     -43636124       1.6955349      2973.7653     -43633150       707.75026      707.75026      707.75026      2146.1249      2853.8751      2146.1249      2853.8751      2146.1249      2853.8751      3.5451948e+08  0.1            16035200       0.40699357     491.38168      4913.812       19.942801    
  51107200   1133.1476      1.5330431     -43636243       1.6955349      3374.32       -43632869       707.75026      707.75026      707.75026      2146.1249      2853.8751      2146.1249      2853.8751      2146.1249      2853.8751      3.5451948e+08  0.1            16035220       0.4477721      490.45384      4904.5419      19.905608    
  51107400   1285.2174      1.2853848     -43636370       1.6955349      3827.1581     -43632543       707.75026      707.75026      707.75026      2146.1249      2853.8751      2146.1249      2853.8751      2146.1249      2853.8751      3.5451948e+08  0.1            16035240       0.48945518     479.81127      4798.1054      19.904606    
  51107600   1456.9547      1.1495549     -43636137       1.6955349      4338.5624     -43631798       707.75026      707.75026      707.75026      2146.1249      2853.8751      2146.1249      2853.8751      2146.1249      2853.8751      3.5451948e+08  0.1            16035260       0.53017795     491.12564      4911.2622      19.861369    
  51107800   1650.682       0.90033294    -43636281       1.6955349      4915.4492     -43631365       707.75026      707.75026      707.75026      2146.1249      2853.8751      2146.1249      2853.8751      2146.1249      2853.8751      3.5451948e+08  0.1            16035280       0.57088157     491.35697      4913.5373      19.817833    
  51108000   1868.8746      0.65337745    -43636434       1.6955349      5565.1896     -43630868       707.75026      707.75026      707.75026      2146.1249      2853.8751      2146.1249      2853.8751      2146.1249      2853.8751      3.5451948e+08  0.1            16035300       0.61166884     490.34809      4903.5146      19.777368    
  51108200   2114.5345      0.41118963    -43636596       1.6955349      6296.7226     -43630299       707.75026      707.75026      707.75026      2146.1249      2853.8751      2146.1249      2853.8751      2146.1249      2853.8751      3.5451948e+08  0.1            16035320       0.65372874     475.51246      4755.1261      19.775366    
  51108400   2390.7376      0.17679086    -43636768       1.6955349      7119.2082     -43629649       707.75026      707.75026      707.75026      2146.1249      2853.8751      2146.1249      2853.8751      2146.1249      2853.8751      3.5451948e+08  0.1            16035340       0.69450205     490.51399      4905.1406      19.732103    
  51108600   2700.9154     -0.043599005   -43636951       1.6955349      8042.8649     -43628909       707.75026      707.75026      707.75026      2146.1249      2853.8751      2146.1249      2853.8751      2146.1249      2853.8751      3.5451948e+08  0.1            16035360       0.73529783     490.25058      4902.5063      19.689702    
  51108800   3048.8064     -0.24289434    -43637146       1.6955349      9078.8248     -43628067       707.75026      707.75026      707.75026      2146.1249      2853.8751      2146.1249      2853.8751      2146.1249      2853.8751      3.5451948e+08  0.1            16035380       0.77609798     490.19493      4901.9401      19.64759     
  51109000   3438.3921     -0.57612153    -43639246       1.6955349      10238.945     -43629007       707.75026      707.75026      707.75026      2146.1249      2853.8751      2146.1249      2853.8751      2146.1249      2853.8751      3.5451948e+08  0.1            16035400       0.81689952     490.17722      4901.7861      19.605641    
  51109200   3874.1953     -0.72457644    -43639465       1.6955349      11536.692     -43627928       707.75026      707.75026      707.75026      2146.1249      2853.8751      2146.1249      2853.8751      2146.1249      2853.8751      3.5451948e+08  0.1            16035420       0.85765344     490.75012      4907.5048      19.562714    
  51109400   4360.8198     -1.2371019     -43647073       1.6955349      12985.777     -43634087       707.75026      707.75026      707.75026      2146.1249      2853.8751      2146.1249      2853.8751      2146.1249      2853.8751      3.5451948e+08  0.1            16035440       0.89878273     486.27067      4862.6994      19.528148    
  51109600   4903.2948     -1.3725317     -43647317       1.6955349      14601.175     -43632716       707.75026      707.75026      707.75026      2146.1249      2853.8751      2146.1249      2853.8751      2146.1249      2853.8751      3.5451948e+08  0.1            16035460       0.93949308     491.27596      4912.7638      19.484316    
  51109800   5506.7617     -1.5260227     -43647575       1.6955349      16398.196     -43631177       707.75026      707.75026      707.75026      2146.1249      2853.8751      2146.1249      2853.8751      2146.1249      2853.8751      3.5451948e+08  0.1            16035480       0.98013915     492.05306      4920.5323      19.43947     
  51110000   6176.5556     -1.7104428     -43647848       1.6955349      18392.728     -43629455       707.75026      707.75026      707.75026      2146.1249      2853.8751      2146.1249      2853.8751      2146.1249      2853.8751      3.5451948e+08  0.1            16035500       1.0208778      490.93545      4909.3554      19.396718    
  51110200   6918.3814     -1.9323297     -43648135       1.6955349      20601.758     -43627533       707.75026      707.75026      707.75026      2146.1249      2853.8751      2146.1249      2853.8751      2146.1249      2853.8751      3.5451948e+08  0.1            16035520       1.061556       491.66286      4916.6186      19.353023    
  51110400   7737.7745     -2.3671374     -43650333       1.6955349      23041.771     -43627291       707.75026      707.75026      707.75026      2146.1249      2853.8751      2146.1249      2853.8751      2146.1249      2853.8751      3.5451948e+08  0.1            16035540       1.1022965      490.91281      4909.1411      19.310638    
  51110600   8640.2544     -2.7197264     -43650652       1.6955349      25729.202     -43624923       707.75026      707.75026      707.75026      2146.1249      2853.8751      2146.1249      2853.8751      2146.1249      2853.8751      3.5451948e+08  0.1            16035560       1.143016       491.16435      4911.6368      19.268021    
  51110800   9631.0526     -3.1600712     -43650988       1.6955349      28679.63      -43622308       707.75026      707.75026      707.75026      2146.1249      2853.8751      2146.1249      2853.8751      2146.1249      2853.8751      3.5451948e+08  0.1            16035580       1.1837657      490.80046      4908.0112      19.226023    
  51111000   10714.835     -3.6775422     -43651342       1.6955349      31906.95      -43619435       707.75026      707.75026      707.75026      2146.1249      2853.8751      2146.1249      2853.8751      2146.1249      2853.8751      3.5451948e+08  0.1            16035600       1.2244717      491.32957      4913.2772      19.183425    
  51111200   11895.716     -4.2493899     -43651714       1.6955349      35423.411     -43616290       707.75026      707.75026      707.75026      2146.1249      2853.8751      2146.1249      2853.8751      2146.1249      2853.8751      3.5451948e+08  0.1            16035620       1.265202       491.03269      4910.3405      19.141316    
  51111400   13176.48      -4.8360178     -43652105       1.6955349      39237.309     -43612867       707.75026      707.75026      707.75026      2146.1249      2853.8751      2146.1249      2853.8751      2146.1249      2853.8751      3.5451948e+08  0.1            16035640       1.3058492      492.04039      4920.4052      19.098076    
  51111600   14558.461     -5.3970464     -43652515       1.6955349      43352.61      -43609162       707.75026      707.75026      707.75026      2146.1249      2853.8751      2146.1249      2853.8751      2146.1249      2853.8751      3.5451948e+08  0.1            16035660       1.3465697      491.15021      4911.4972      19.056036    
  51111800   16041.081     -5.9142397     -43652944       1.6955349      47767.599     -43605177       707.75026      707.75026      707.75026      2146.1249      2853.8751      2146.1249      2853.8751      2146.1249      2853.8751      3.5451948e+08  0.1            16035680       1.3872623      491.49402      4914.908       19.013687    
  51112000   17621.312     -6.3881785     -43653393       1.6955349      52473.259     -43600920       707.75026      707.75026      707.75026      2146.1249      2853.8751      2146.1249      2853.8751      2146.1249      2853.8751      3.5451948e+08  0.1            16035700       1.4279594      491.43527      4914.3757      18.97149     
  51112200   19293.45      -6.7854439     -43653861       1.6955349      57452.598     -43596409       707.75026      707.75026      707.75026      2146.1249      2853.8751      2146.1249      2853.8751      2146.1249      2853.8751      3.5451948e+08  0.1            16035720       1.4686781      491.17327      4911.7328      18.929659    
  51112400   21048.125     -7.1396162     -43654348       1.6955349      62677.722     -43591670       707.75026      707.75026      707.75026      2146.1249      2853.8751      2146.1249      2853.8751      2146.1249      2853.8751      3.5451948e+08  0.1            16035740       1.5103058      480.44799      4804.484       18.899262    
  51112600   22872.351     -7.59001       -43654852       1.6955349      68109.957     -43586742       707.75026      707.75026      707.75026      2146.1249      2853.8751      2146.1249      2853.8751      2146.1249      2853.8751      3.5451948e+08  0.1            16035760       1.5510338      491.06531      4910.6552      18.857332    
  51112800   24749.165     -8.1862377     -43655376       1.6955349      73698.788     -43581677       707.75026      707.75026      707.75026      2146.1249      2853.8751      2146.1249      2853.8751      2146.1249      2853.8751      3.5451948e+08  0.1            16035780       1.5917612      491.06714      4910.6718      18.815462    
  51113000   26657.033     -8.8227888     -43657446       1.6955349      79380.093     -43578066       707.75026      707.75026      707.75026      2146.1249      2853.8751      2146.1249      2853.8751      2146.1249      2853.8751      3.5451948e+08  0.1            16035800       1.6326235      489.38937      4893.8933      18.775255    
  51113200   28569.289     -9.1539513     -43658011       1.6955349      85074.465     -43572936       707.75026      707.75026      707.75026      2146.1249      2853.8751      2146.1249      2853.8751      2146.1249      2853.8751      3.5451948e+08  0.1            16035820       1.673404       490.49078      4904.909       18.733987    
  51113400   30453.108     -9.312623      -43658592       1.6955349      90684.155     -43567908       707.75026      707.75026      707.75026      2146.1249      2853.8751      2146.1249      2853.8751      2146.1249      2853.8751      3.5451948e+08  0.1            16035840       1.7140975      491.47972      4914.7922      18.69185     
  51113600   32271.429     -9.7032847     -43661083       1.6955349      96098.804     -43564984       707.75026      707.75026      707.75026      2146.1249      2853.8751      2146.1249      2853.8751      2146.1249      2853.8751      3.5451948e+08  0.1            16035860       1.7549238      489.8811       4898.8141      18.65119     
  51113800   33984.195     -10.208679     -43661691       1.6955349      101199.13     -43560492       707.75026      707.75026      707.75026      2146.1249      2853.8751      2146.1249      2853.8751      2146.1249      2853.8751      3.5451948e+08  0.1            16035880       1.7955988      491.70009      4917.0057      18.608957    
  51114000   35549.316     -10.836639     -43662312       1.6955349      105859.79     -43556453       707.75026      707.75026      707.75026      2146.1249      2853.8751      2146.1249      2853.8751      2146.1249      2853.8751      3.5451948e+08  0.1            16035900       1.8363121      491.23224      4912.2503      18.567192    
  51114200   36925.002     -11.535842     -43662942       1.6955349      109956.35     -43552986       707.75026      707.75026      707.75026      2146.1249      2853.8751      2146.1249      2853.8751      2146.1249      2853.8751      3.5451948e+08  0.1            16035920       1.8770452      491.01182      4910.1897      18.52564     
  51114400   38073.951     -12.117814     -43658096       1.6955349      113377.72     -43544719       707.75026      707.75026      707.75026      2146.1249      2853.8751      2146.1249      2853.8751      2146.1249      2853.8751      3.5451948e+08  0.1            16035940       1.9177091      491.83646      4918.3575      18.483472    
  51114600   38967.834     -13.079636     -43658737       1.6955349      116039.56     -43542698       707.75026      707.75026      707.75026      2146.1249      2853.8751      2146.1249      2853.8751      2146.1249      2853.8751      3.5451948e+08  0.1            16035960       1.9583888      491.64644      4916.4635      18.441515    
  51114800   39593.903     -14.229618     -43659380       1.6955349      117903.88     -43541476       707.75026      707.75026      707.75026      2146.1249      2853.8751      2146.1249      2853.8751      2146.1249      2853.8751      3.5451948e+08  0.1            16035980       1.9990275      492.14032      4921.406       18.399233    
  51115000   39959.745     -15.705027     -43661916       1.6955349      118993.3      -43542923       707.75026      707.75026      707.75026      2146.1249      2853.8751      2146.1249      2853.8751      2146.1249      2853.8751      3.5451948e+08  0.1            16036000       2.0405415      481.76311      4817.6337      18.364895    
  51115200   40096.151     -17.089779     -43662555       1.6955349      119399.49     -43543156       707.75026      707.75026      707.75026      2146.1249      2853.8751      2146.1249      2853.8751      2146.1249      2853.8751      3.5451948e+08  0.1            16036020       2.0811595      492.39445      4923.9383      18.322385    
  51115400   40055.432     -18.540454     -43663188       1.6955349      119278.24     -43543910       707.75026      707.75026      707.75026      2146.1249      2853.8751      2146.1249      2853.8751      2146.1249      2853.8751      3.5451948e+08  0.1            16036040       2.1218559      491.44513      4914.4606      18.280623    
  51115600   39905.701     -20.242589     -43665708       1.6955349      118832.36     -43546875       707.75026      707.75026      707.75026      2146.1249      2853.8751      2146.1249      2853.8751      2146.1249      2853.8751      3.5451948e+08  0.1            16036060       2.162525       491.77321      4917.7245      18.238673    
  51115800   39722.371     -22.299944     -43673703       1.6955349      118286.44     -43555417       707.75026      707.75026      707.75026      2146.1249      2853.8751      2146.1249      2853.8751      2146.1249      2853.8751      3.5451948e+08  0.1            16036080       2.2031318      492.52962      4925.295       18.196256    
  51116000   39579.01      -23.663547     -43672421       1.6955349      117859.53     -43554562       707.75026      707.75026      707.75026      2146.1249      2853.8751      2146.1249      2853.8751      2146.1249      2853.8751      3.5451948e+08  0.1            16036100       2.243811       491.65006      4916.5075      18.154489    
  51116200   39541.537     -24.534699     -43672660       1.6955349      117747.94     -43554912       707.75026      707.75026      707.75026      2146.1249      2853.8751      2146.1249      2853.8751      2146.1249      2853.8751      3.5451948e+08  0.1            16036120       2.2843944      492.81135      4928.1168      18.112002    
  51116400   39665.525     -25.327686     -43675158       1.6955349      118117.16     -43557041       707.75026      707.75026      707.75026      2146.1249      2853.8751      2146.1249      2853.8751      2146.1249      2853.8751      3.5451948e+08  0.1            16036140       2.3249499      493.15355      4931.5352      18.069364    
  51116600   39995.54      -26.030305     -43677653       1.6955349      119099.89     -43558553       707.75026      707.75026      707.75026      2146.1249      2853.8751      2146.1249      2853.8751      2146.1249      2853.8751      3.5451948e+08  0.1            16036160       2.3655502      492.60745      4926.0676      18.02714     
  51116800   40563.288     -26.395129     -43678253       1.6955349      120790.55     -43557462       707.75026      707.75026      707.75026      2146.1249      2853.8751      2146.1249      2853.8751      2146.1249      2853.8751      3.5451948e+08  0.1            16036180       2.4061337      492.81075      4928.1095      17.984846    
  51117000   41383.97      -26.499374     -43676957       1.6955349      123234.4      -43553722       707.75026      707.75026      707.75026      2146.1249      2853.8751      2146.1249      2853.8751      2146.1249      2853.8751      3.5451948e+08  0.1            16036200       2.4470454      488.85638      4888.5595      17.945016    
  51117200   42453.924     -26.767702     -43677557       1.6955349      126420.54     -43551137       707.75026      707.75026      707.75026      2146.1249      2853.8751      2146.1249      2853.8751      2146.1249      2853.8751      3.5451948e+08  0.1            16036220       2.4885738      481.59692      4815.9699      17.909589    
  51117400   43747.583     -27.168534     -43678161       1.6955349      130272.83     -43547888       707.75026      707.75026      707.75026      2146.1249      2853.8751      2146.1249      2853.8751      2146.1249      2853.8751      3.5451948e+08  0.1            16036240       2.5291413      493.00878      4930.0896      17.867174    
  51117600   45219.538     -27.774659     -43678768       1.6955349      134656.06     -43544112       707.75026      707.75026      707.75026      2146.1249      2853.8751      2146.1249      2853.8751      2146.1249      2853.8751      3.5451948e+08  0.1            16036260       2.5696913      493.21777      4932.1753      17.824699    
  51117800   46809.95      -28.90643      -43686758       1.6955349      139392.04     -43547366       707.75026      707.75026      707.75026      2146.1249      2853.8751      2146.1249      2853.8751      2146.1249      2853.8751      3.5451948e+08  0.1            16036280       2.6102646      492.93419      4929.3433      17.782443    
  51118000   48450.924     -29.684541     -43687375       1.6955349      144278.58     -43543096       707.75026      707.75026      707.75026      2146.1249      2853.8751      2146.1249      2853.8751      2146.1249      2853.8751      3.5451948e+08  0.1            16036300       2.6508884      492.32179      4923.2188      17.740576    
  51118200   50073.275     -30.323307     -43687996       1.6955349      149109.66     -43538886       707.75026      707.75026      707.75026      2146.1249      2853.8751      2146.1249      2853.8751      2146.1249      2853.8751      3.5451948e+08  0.1            16036320       2.6914603      492.95258      4929.5315      17.698405    
  51118400   51610.444     -30.697633     -43686727       1.6955349      153687.09     -43533040       707.75026      707.75026      707.75026      2146.1249      2853.8751      2146.1249      2853.8751      2146.1249      2853.8751      3.5451948e+08  0.1            16036340       2.7320896      492.25502      4922.5536      17.656653    
  51118600   53001.686     -31.037617     -43687355       1.6955349      157829.97     -43529525       707.75026      707.75026      707.75026      2146.1249      2853.8751      2146.1249      2853.8751      2146.1249      2853.8751      3.5451948e+08  0.1            16036360       2.7727507      491.87137      4918.7139      17.615136    
  51118800   54195.194     -31.313112     -43687980       1.6955349      161384.03     -43526596       707.75026      707.75026      707.75026      2146.1249      2853.8751      2146.1249      2853.8751      2146.1249      2853.8751      3.5451948e+08  0.1            16036380       2.8134099      491.89362      4918.9261      17.573632    
  51119000   55153.588     -31.888533     -43688602       1.6955349      164237.97     -43524364       707.75026      707.75026      707.75026      2146.1249      2853.8751      2146.1249      2853.8751      2146.1249      2853.8751      3.5451948e+08  0.1            16036400       2.854081       491.74846      4917.4937      17.532227    
  51119200   55857.475     -32.56208      -43689222       1.6955349      166334.02     -43522888       707.75026      707.75026      707.75026      2146.1249      2853.8751      2146.1249      2853.8751      2146.1249      2853.8751      3.5451948e+08  0.1            16036420       2.8952192      486.16745      4861.6624      17.493722    
  51119400   56306.512     -33.238137     -43689836       1.6955349      167671.18     -43522164       707.75026      707.75026      707.75026      2146.1249      2853.8751      2146.1249      2853.8751      2146.1249      2853.8751      3.5451948e+08  0.1            16036440       2.9367492      481.57778      4815.7767      17.457357    
  51119600   56523.465     -33.530174     -43675688       1.6955349      168317.23     -43507370       707.75026      707.75026      707.75026      2146.1249      2853.8751      2146.1249      2853.8751      2146.1249      2853.8751      3.5451948e+08  0.1            16036460       2.9773507      492.59503      4925.9628      17.415474    
  51119800   56553.1       -35.614752     -43685565       1.6955349      168405.48     -43517160       707.75026      707.75026      707.75026      2146.1249      2853.8751      2146.1249      2853.8751      2146.1249      2853.8751      3.5451948e+08  0.1            16036480       3.0179444      492.68584      4926.8483      17.373585    
  51120000   56455.295     -37.280565     -43686166       1.6955349      168114.23     -43518052       707.75026      707.75026      707.75026      2146.1249      2853.8751      2146.1249      2853.8751      2146.1249      2853.8751      3.5451948e+08  0.1            16036500       3.0585872      492.09356      4920.939       17.332006    
  51120200   56298.549     -38.551563     -43684862       1.6955349      167647.47     -43517215       707.75026      707.75026      707.75026      2146.1249      2853.8751      2146.1249      2853.8751      2146.1249      2853.8751      3.5451948e+08  0.1            16036520       3.0992602      491.72514      4917.2487      17.290622    
  51120400   56154.433     -39.668969     -43685442       1.6955349      167218.31     -43518224       707.75026      707.75026      707.75026      2146.1249      2853.8751      2146.1249      2853.8751      2146.1249      2853.8751      3.5451948e+08  0.1            16036540       3.1398991      492.13998      4921.3955      17.249069    
  51120600   56091.824     -40.678904     -43686014       1.6955349      167031.87     -43518982       707.75026      707.75026      707.75026      2146.1249      2853.8751      2146.1249      2853.8751      2146.1249      2853.8751      3.5451948e+08  0.1            16036560       3.180477       492.87836      4928.7872      17.207208    
  51120800   56171.321     -41.418833     -43686578       1.6955349      167268.6      -43519310       707.75026      707.75026      707.75026      2146.1249      2853.8751      2146.1249      2853.8751      2146.1249      2853.8751      3.5451948e+08  0.1            16036580       3.2210363      493.1062       4931.0648      17.165281    
  51121000   56441.748     -41.675649     -43687136       1.6955349      168073.89     -43519062       707.75026      707.75026      707.75026      2146.1249      2853.8751      2146.1249      2853.8751      2146.1249      2853.8751      3.5451948e+08  0.1            16036600       3.2616818      492.05706      4920.5758      17.123841    
  51121200   56938.524     -41.530346     -43687684       1.6955349      169553.2      -43518131       707.75026      707.75026      707.75026      2146.1249      2853.8751      2146.1249      2853.8751      2146.1249      2853.8751      3.5451948e+08  0.1            16036620       3.3022156      493.41563      4934.1544      17.081843    
  51121400   57681.876     -41.402009     -43688224       1.6955349      171766.78     -43516457       707.75026      707.75026      707.75026      2146.1249      2853.8751      2146.1249      2853.8751      2146.1249      2853.8751      3.5451948e+08  0.1            16036640       3.3428205      492.55251      4925.5195      17.040243    
  51121600   58675.559     -41.376271     -43688759       1.6955349      174725.8      -43514033       707.75026      707.75026      707.75026      2146.1249      2853.8751      2146.1249      2853.8751      2146.1249      2853.8751      3.5451948e+08  0.1            16036660       3.3833941      492.93206      4929.3223      16.998509    
  51121800   59901.966     -41.281245     -43689289       1.6955349      178377.83     -43510912       707.75026      707.75026      707.75026      2146.1249      2853.8751      2146.1249      2853.8751      2146.1249      2853.8751      3.5451948e+08  0.1            16036680       3.4239119      493.61093      4936.1079      16.956527    
  51122000   61323.493     -41.567643     -43689814       1.6955349      182610.89     -43507203       707.75026      707.75026      707.75026      2146.1249      2853.8751      2146.1249      2853.8751      2146.1249      2853.8751      3.5451948e+08  0.1            16036700       3.4645218      492.49023      4924.9041      16.915029    
  51122200   62888.447     -42.429457     -43690337       1.6955349      187271.06     -43503066       707.75026      707.75026      707.75026      2146.1249      2853.8751      2146.1249      2853.8751      2146.1249      2853.8751      3.5451948e+08  0.1            16036720       3.5060749      481.31174      4813.1154      16.878092    
  51122400   64532.531     -43.363985     -43692759       1.6955349      192166.86     -43500593       707.75026      707.75026      707.75026      2146.1249      2853.8751      2146.1249      2853.8751      2146.1249      2853.8751      3.5451948e+08  0.1            16036740       3.5466371      493.0701       4930.7007      16.836345    
  51122600   66183.186     -43.761444     -43693287       1.6955349      197082.23     -43496204       707.75026      707.75026      707.75026      2146.1249      2853.8751      2146.1249      2853.8751      2146.1249      2853.8751      3.5451948e+08  0.1            16036760       3.5872171      492.85451      4928.5428      16.794708    
  51122800   67767.329     -44.181242     -43701186       1.6955349      201799.53     -43499387       707.75026      707.75026      707.75026      2146.1249      2853.8751      2146.1249      2853.8751      2146.1249      2853.8751      3.5451948e+08  0.1            16036780       3.6277334      493.62799      4936.2815      16.752801    
  51123000   69217.495     -43.509291     -43694323       1.6955349      206117.88     -43488205       707.75026      707.75026      707.75026      2146.1249      2853.8751      2146.1249      2853.8751      2146.1249      2853.8751      3.5451948e+08  0.1            16036800       3.668353       492.37184      4923.7182      16.711397    
  51123200   70476.639     -43.393444     -43694830       1.6955349      209867.4      -43484962       707.75026      707.75026      707.75026      2146.1249      2853.8751      2146.1249      2853.8751      2146.1249      2853.8751      3.5451948e+08  0.1            16036820       3.7097226      483.44653      4834.4595      16.673379    
  51123400   71502.448     -43.974537     -43695331       1.6955349      212922.08     -43482409       707.75026      707.75026      707.75026      2146.1249      2853.8751      2146.1249      2853.8751      2146.1249      2853.8751      3.5451948e+08  0.1            16036840       3.7503391      492.4117       4924.1208      16.631949    
  51123600   72269.681     -44.798686     -43695829       1.6955349      215206.77     -43480623       707.75026      707.75026      707.75026      2146.1249      2853.8751      2146.1249      2853.8751      2146.1249      2853.8751      3.5451948e+08  0.1            16036860       3.7909183      492.86166      4928.6187      16.590373    
  51123800   72772.008     -45.602031     -43696687       1.6955349      216702.61     -43479984       707.75026      707.75026      707.75026      2146.1249      2853.8751      2146.1249      2853.8751      2146.1249      2853.8751      3.5451948e+08  0.1            16036880       3.8315168      492.63052      4926.3187      16.548901    
  51124000   73026.017     -46.466646     -43697163       1.6955349      217459.01     -43479704       707.75026      707.75026      707.75026      2146.1249      2853.8751      2146.1249      2853.8751      2146.1249      2853.8751      3.5451948e+08  0.1            16036900       3.8721876      491.75384      4917.5343      16.507756    
  51124200   73071.822     -47.418881     -43697627       1.6955349      217595.41     -43480032       707.75026      707.75026      707.75026      2146.1249      2853.8751      2146.1249      2853.8751      2146.1249      2853.8751      3.5451948e+08  0.1            16036920       3.912769       492.83664      4928.3601      16.466245    
  51124400   72967.253     -48.170779     -43698077       1.6955349      217284.02     -43480793       707.75026      707.75026      707.75026      2146.1249      2853.8751      2146.1249      2853.8751      2146.1249      2853.8751      3.5451948e+08  0.1            16036940       3.9533907      492.34692      4923.4676      16.424921    
  51124600   72782.26      -48.792863     -43698515       1.6955349      216733.14     -43481781       707.75026      707.75026      707.75026      2146.1249      2853.8751      2146.1249      2853.8751      2146.1249      2853.8751      3.5451948e+08  0.1            16036960       3.9939751      492.79993      4928.0055      16.383458    
  51124800   72591.826     -49.47344      -43700835       1.6955349      216166.06     -43484669       707.75026      707.75026      707.75026      2146.1249      2853.8751      2146.1249      2853.8751      2146.1249      2853.8751      3.5451948e+08  0.1            16036980       4.0345378      493.06398      4930.6421      16.341925    
  51125000   72469.163     -49.158369     -43693872       1.6955349      215800.79     -43478071       707.75026      707.75026      707.75026      2146.1249      2853.8751      2146.1249      2853.8751      2146.1249      2853.8751      3.5451948e+08  0.1            16037000       4.0751877      492.0073       4920.0692      16.30076     
  51125200   72479.582     -48.954286     -43694274       1.6955349      215831.82     -43478443       707.75026      707.75026      707.75026      2146.1249      2853.8751      2146.1249      2853.8751      2146.1249      2853.8751      3.5451948e+08  0.1            16037020       4.1157966      492.50186      4925.0158      16.259443    
  51125400   72678.192     -48.741164     -43694665       1.6955349      216423.25     -43478242       707.75026      707.75026      707.75026      2146.1249      2853.8751      2146.1249      2853.8751      2146.1249      2853.8751      3.5451948e+08  0.1            16037040       4.1564543      491.91235      4919.1323      16.21833     
  51125600   73106.751     -48.692557     -43695045       1.6955349      217699.42     -43477346       707.75026      707.75026      707.75026      2146.1249      2853.8751      2146.1249      2853.8751      2146.1249      2853.8751      3.5451948e+08  0.1            16037060       4.1970293      492.91394      4929.1291      16.176908    
  51125800   73789.96      -48.971507     -43695412       1.6955349      219733.9      -43475679       707.75026      707.75026      707.75026      2146.1249      2853.8751      2146.1249      2853.8751      2146.1249      2853.8751      3.5451948e+08  0.1            16037080       4.237684       491.94839      4919.4838      16.135805    
  51126000   74734.889     -49.125458     -43695769       1.6955349      222547.74     -43473222       707.75026      707.75026      707.75026      2146.1249      2853.8751      2146.1249      2853.8751      2146.1249      2853.8751      3.5451948e+08  0.1            16037100       4.2783162      492.2209       4922.2202      16.094626    
  51126200   75929.513     -49.756236     -43703497       1.6955349      226105.12     -43477392       707.75026      707.75026      707.75026      2146.1249      2853.8751      2146.1249      2853.8751      2146.1249      2853.8751      3.5451948e+08  0.1            16037120       4.3188898      492.93076      4929.3105      16.053239    
  51126400   77340.031     -49.758015     -43703840       1.6955349      230305.41     -43473535       707.75026      707.75026      707.75026      2146.1249      2853.8751      2146.1249      2853.8751      2146.1249      2853.8751      3.5451948e+08  0.1            16037140       4.3594553      493.02864      4930.2763      16.01184     
  51126600   78913.73      -48.478662     -43693008       1.6955349      234991.61     -43458016       707.75026      707.75026      707.75026      2146.1249      2853.8751      2146.1249      2853.8751      2146.1249      2853.8751      3.5451948e+08  0.1            16037160       4.4009245      482.28312      4822.8354      15.973735    
  51126800   80584.239     -47.545487     -43693332       1.6955349      239966.1      -43453366       707.75026      707.75026      707.75026      2146.1249      2853.8751      2146.1249      2853.8751      2146.1249      2853.8751      3.5451948e+08  0.1            16037180       4.4429346      476.07853      4760.7736      15.937508    
  51127000   82276.506     -46.891698     -43693643       1.6955349      245005.38     -43448638       707.75026      707.75026      707.75026      2146.1249      2853.8751      2146.1249      2853.8751      2146.1249      2853.8751      3.5451948e+08  0.1            16037200       4.4836055      491.74956      4917.4945      15.896428    
  51127200   83915.996     -46.554106     -43692047       1.6955349      249887.51     -43442159       707.75026      707.75026      707.75026      2146.1249      2853.8751      2146.1249      2853.8751      2146.1249      2853.8751      3.5451948e+08  0.1            16037220       4.5251304      481.64178      4816.415       15.858348    
  51127400   85431.385     -46.543319     -43692334       1.6955349      254400.08     -43437934       707.75026      707.75026      707.75026      2146.1249      2853.8751      2146.1249      2853.8751      2146.1249      2853.8751      3.5451948e+08  0.1            16037240       4.5658316      491.38517      4913.8596      15.817353    
  51127600   86760.036     -46.583996     -43692609       1.6955349      258356.57     -43434253       707.75026      707.75026      707.75026      2146.1249      2853.8751      2146.1249      2853.8751      2146.1249      2853.8751      3.5451948e+08  0.1            16037260       4.6074339      480.74207      4807.4232      15.77945     
  51127800   87853.277     -46.474144     -43690978       1.6955349      261612.06     -43429366       707.75026      707.75026      707.75026      2146.1249      2853.8751      2146.1249      2853.8751      2146.1249      2853.8751      3.5451948e+08  0.1            16037280       4.6480579      492.32097      4923.2077      15.738169    
  51128000   88680.305     -46.810192     -43695020       1.6955349      264074.81     -43430945       707.75026      707.75026      707.75026      2146.1249      2853.8751      2146.1249      2853.8751      2146.1249      2853.8751      3.5451948e+08  0.1            16037300       4.6887685      491.27257      4912.7313      15.697189    
  51128200   89231.137     -46.293919     -43687880       1.6955349      265715.09     -43422165       707.75026      707.75026      707.75026      2146.1249      2853.8751      2146.1249      2853.8751      2146.1249      2853.8751      3.5451948e+08  0.1            16037320       4.7293214      493.18311      4931.8346      15.655692    
  51128400   89519.008     -46.203421     -43688102       1.6955349      266572.32     -43421530       707.75026      707.75026      707.75026      2146.1249      2853.8751      2146.1249      2853.8751      2146.1249      2853.8751      3.5451948e+08  0.1            16037340       4.7699789      491.91423      4919.1335      15.614554    
  51128600   89580.915     -46.308538     -43688310       1.6955349      266756.67     -43421554       707.75026      707.75026      707.75026      2146.1249      2853.8751      2146.1249      2853.8751      2146.1249      2853.8751      3.5451948e+08  0.1            16037360       4.8105866      492.5176       4925.17        15.573262    
  51128800   89473.088     -47.421116     -43703260       1.6955349      266435.58     -43436825       707.75026      707.75026      707.75026      2146.1249      2853.8751      2146.1249      2853.8751      2146.1249      2853.8751      3.5451948e+08  0.1            16037380       4.8512773      491.51317      4915.1341      15.532248    
  51129000   89264.976     -47.920623     -43703441       1.6955349      265815.86     -43437625       707.75026      707.75026      707.75026      2146.1249      2853.8751      2146.1249      2853.8751      2146.1249      2853.8751      3.5451948e+08  0.1            16037400       4.8919761      491.41439      4914.1464      15.491265    
  51129200   89033.84      -47.949174     -43696231       1.6955349      265127.57     -43431104       707.75026      707.75026      707.75026      2146.1249      2853.8751      2146.1249      2853.8751      2146.1249      2853.8751      3.5451948e+08  0.1            16037420       4.9324932      493.619        4936.1818      15.449717    
  51129400   88855.518     -48.404517     -43698280       1.6955349      264596.56     -43433684       707.75026      707.75026      707.75026      2146.1249      2853.8751      2146.1249      2853.8751      2146.1249      2853.8751      3.5451948e+08  0.1            16037440       4.9731048      492.46938      4924.7023      15.408479    
  51129600   88799.838     -48.47637      -43698415       1.6955349      264430.75     -43433985       707.75026      707.75026      707.75026      2146.1249      2853.8751      2146.1249      2853.8751      2146.1249      2853.8751      3.5451948e+08  0.1            16037460       5.0136767      492.95274      4929.5267      15.36713     
  51129800   88928.807     -48.781461     -43711398       1.6955349      264814.8      -43446583       707.75026      707.75026      707.75026      2146.1249      2853.8751      2146.1249      2853.8751      2146.1249      2853.8751      3.5451948e+08  0.1            16037480       5.0551915      481.75465      4817.5334      15.328653    
  51130000   89290.153     -48.456472     -43718886       1.6955349      265890.83     -43452995       707.75026      707.75026      707.75026      2146.1249      2853.8751      2146.1249      2853.8751      2146.1249      2853.8751      3.5451948e+08  0.1            16037500       5.0958411      492.00905      4920.1055      15.287531    
  51130200   89914.477     -48.421208     -43728259       1.6955349      267749.96     -43460509       707.75026      707.75026      707.75026      2146.1249      2853.8751      2146.1249      2853.8751      2146.1249      2853.8751      3.5451948e+08  0.1            16037520       5.136433       492.70949      4927.1019      15.246244    
  51130400   90813.24      -48.150388     -43728350       1.6955349      270426.32     -43457924       707.75026      707.75026      707.75026      2146.1249      2853.8751      2146.1249      2853.8751      2146.1249      2853.8751      3.5451948e+08  0.1            16037540       5.1769924      493.10617      4931.0635      15.204874    
  51130600   91975.496     -47.834846     -43726535       1.6955349      273887.32     -43452647       707.75026      707.75026      707.75026      2146.1249      2853.8751      2146.1249      2853.8751      2146.1249      2853.8751      3.5451948e+08  0.1            16037560       5.2175355      493.30148      4933.0156      15.163469    
  51130800   93368.746     -47.806399     -43728495       1.6955349      278036.18     -43450459       707.75026      707.75026      707.75026      2146.1249      2853.8751      2146.1249      2853.8751      2146.1249      2853.8751      3.5451948e+08  0.1            16037580       5.2581644      492.26029      4922.6064      15.122324    
  51131000   94941.298     -47.54134      -43728543       1.6955349      282718.97     -43445824       707.75026      707.75026      707.75026      2146.1249      2853.8751      2146.1249      2853.8751      2146.1249      2853.8751      3.5451948e+08  0.1            16037600       5.2988124      492.03012      4920.2873      15.081242    
  51131200   96627.676     -47.111854     -43728573       1.6955349      287740.72     -43440832       707.75026      707.75026      707.75026      2146.1249      2853.8751      2146.1249      2853.8751      2146.1249      2853.8751      3.5451948e+08  0.1            16037620       5.3393976      492.79107      4927.9249      15.039988    
  51131400   98353.695     -46.303364     -43730484       1.6955349      292880.51     -43437604       707.75026      707.75026      707.75026      2146.1249      2853.8751      2146.1249      2853.8751      2146.1249      2853.8751      3.5451948e+08  0.1            16037640       5.3799083      493.6949       4936.934       14.998539    
  51131600   100041.05     -45.068431     -43730486       1.6955349      297905.16     -43432581       707.75026      707.75026      707.75026      2146.1249      2853.8751      2146.1249      2853.8751      2146.1249      2853.8751      3.5451948e+08  0.1            16037660       5.4204999      492.7133       4927.1291      14.957326    
  51131800   101614.35     -43.701198     -43728579       1.6955349      302590.19     -43425988       707.75026      707.75026      707.75026      2146.1249      2853.8751      2146.1249      2853.8751      2146.1249      2853.8751      3.5451948e+08  0.1            16037680       5.461122       492.34281      4923.4387      14.916205    
  51132000   103006.44     -42.634475     -43728550       1.6955349      306735.58     -43421815       707.75026      707.75026      707.75026      2146.1249      2853.8751      2146.1249      2853.8751      2146.1249      2853.8751      3.5451948e+08  0.1            16037700       5.5026362      481.76312      4817.6248      14.877504    
  51132200   104164.39     -42.194799     -43735516       1.6955349      310183.77     -43425332       707.75026      707.75026      707.75026      2146.1249      2853.8751      2146.1249      2853.8751      2146.1249      2853.8751      3.5451948e+08  0.1            16037720       5.5432019      493.02791      4930.2839      14.836222    
  51132400   105053.43     -41.693075     -43733564       1.6955349      312831.19     -43420732       707.75026      707.75026      707.75026      2146.1249      2853.8751      2146.1249      2853.8751      2146.1249      2853.8751      3.5451948e+08  0.1            16037740       5.5837069      493.76603      4937.6596      14.794791    
  51132600   105659.94     -41.340978     -43733494       1.6955349      314637.27     -43418857       707.75026      707.75026      707.75026      2146.1249      2853.8751      2146.1249      2853.8751      2146.1249      2853.8751      3.5451948e+08  0.1            16037760       5.6241942      493.98249      4939.8239      14.753327    
  51132800   105992.43     -39.752587     -43718655       1.6955349      315627.37     -43403028       707.75026      707.75026      707.75026      2146.1249      2853.8751      2146.1249      2853.8751      2146.1249      2853.8751      3.5451948e+08  0.1            16037780       5.6656656      482.25871      4822.5887      14.714432    
  51133000   106082.16     -38.824474     -43718555       1.6955349      315894.55     -43402660       707.75026      707.75026      707.75026      2146.1249      2853.8751      2146.1249      2853.8751      2146.1249      2853.8751      3.5451948e+08  0.1            16037800       5.7063818      491.20513      4912.0488      14.673559    
  51133200   105982.71     -38.546204     -43720331       1.6955349      315598.4      -43404733       707.75026      707.75026      707.75026      2146.1249      2853.8751      2146.1249      2853.8751      2146.1249      2853.8751      3.5451948e+08  0.1            16037820       5.747008       492.29144      4922.9149      14.632459    
  51133400   105763.22     -38.493119     -43720199       1.6955349      314944.82     -43405254       707.75026      707.75026      707.75026      2146.1249      2853.8751      2146.1249      2853.8751      2146.1249      2853.8751      3.5451948e+08  0.1            16037840       5.7875847      492.89623      4928.9675      14.59124     
  51133600   105502.42     -39.152417     -43727433       1.6955349      314168.19     -43413265       707.75026      707.75026      707.75026      2146.1249      2853.8751      2146.1249      2853.8751      2146.1249      2853.8751      3.5451948e+08  0.1            16037860       5.8281297      493.27812      4932.7834      14.549952    
  51133800   105279.59     -39.745241     -43729173       1.6955349      313504.63     -43415668       707.75026      707.75026      707.75026      2146.1249      2853.8751      2146.1249      2853.8751      2146.1249      2853.8751      3.5451948e+08  0.1            16037880       5.8687842      491.95114      4919.5044      14.508944    
  51134000   105168.58     -39.794691     -43729003       1.6955349      313174.08     -43415829       707.75026      707.75026      707.75026      2146.1249      2853.8751      2146.1249      2853.8751      2146.1249      2853.8751      3.5451948e+08  0.1            16037900       5.90944        491.93394      4919.3451      14.467945    
  51134200   105235.34     -39.461224     -43736195       1.6955349      313372.88     -43422822       707.75026      707.75026      707.75026      2146.1249      2853.8751      2146.1249      2853.8751      2146.1249      2853.8751      3.5451948e+08  0.1            16037920       5.950006       493.02325      4930.2312      14.426732    
  51134400   105532.65     -38.038758     -43734104       1.6955349      314258.21     -43419846       707.75026      707.75026      707.75026      2146.1249      2853.8751      2146.1249      2853.8751      2146.1249      2853.8751      3.5451948e+08  0.1            16037940       5.9905719      493.02576      4930.2625      14.385528    
  51134600   106095.43     -36.734424     -43733895       1.6955349      315934.08     -43417961       707.75026      707.75026      707.75026      2146.1249      2853.8751      2146.1249      2853.8751      2146.1249      2853.8751      3.5451948e+08  0.1            16037960       6.0311755      492.56704      4925.6603      14.344423    
  51134800   106938.54     -35.206429     -43728189       1.6955349      318444.71     -43409745       707.75026      707.75026      707.75026      2146.1249      2853.8751      2146.1249      2853.8751      2146.1249      2853.8751      3.5451948e+08  0.1            16037980       6.0718291      491.96179      4919.6113      14.303442    
  51135000   108055.29     -34.374083     -43737225       1.6955349      321770.22     -43415455       707.75026      707.75026      707.75026      2146.1249      2853.8751      2146.1249      2853.8751      2146.1249      2853.8751      3.5451948e+08  0.1            16038000       6.1125135      491.58955      4915.8986      14.262536    
  51135200   109418.18     -32.954559     -43736974       1.6955349      325828.64     -43411146       707.75026      707.75026      707.75026      2146.1249      2853.8751      2146.1249      2853.8751      2146.1249      2853.8751      3.5451948e+08  0.1            16038020       6.1531942      491.63242      4916.3267      14.221626    
  51135400   110979.65     -30.976413     -43721957       1.6955349      330478.44     -43391479       707.75026      707.75026      707.75026      2146.1249      2853.8751      2146.1249      2853.8751      2146.1249      2853.8751      3.5451948e+08  0.1            16038040       6.1938193      492.30797      4923.0832      14.180591    
  51135600   112674.89     -29.810726     -43721686       1.6955349      335526.58     -43386160       707.75026      707.75026      707.75026      2146.1249      2853.8751      2146.1249      2853.8751      2146.1249      2853.8751      3.5451948e+08  0.1            16038060       6.2344646      492.06231      4920.6261      14.139607    
  51135800   114426.47     -28.358287     -43721400       1.6955349      340742.48     -43380657       707.75026      707.75026      707.75026      2146.1249      2853.8751      2146.1249      2853.8751      2146.1249      2853.8751      3.5451948e+08  0.1            16038080       6.2754852      487.55903      4875.5834      14.099472    
  51136000   116153        -26.99928      -43728473       1.6955349      345883.81     -43382589       707.75026      707.75026      707.75026      2146.1249      2853.8751      2146.1249      2853.8751      2146.1249      2853.8751      3.5451948e+08  0.1            16038100       6.3169402      482.4491       4824.4937      14.060291    
  51136200   117777.3      -25.421916     -43728153       1.6955349      350720.68     -43377432       707.75026      707.75026      707.75026      2146.1249      2853.8751      2146.1249      2853.8751      2146.1249      2853.8751      3.5451948e+08  0.1            16038120       6.3576682      491.06267      4910.6367      14.019478    
  51136400   119229.07     -23.758542     -43727819       1.6955349      355043.81     -43372775       707.75026      707.75026      707.75026      2146.1249      2853.8751      2146.1249      2853.8751      2146.1249      2853.8751      3.5451948e+08  0.1            16038140       6.3982872      492.38127      4923.7988      13.978429    
  51136600   120451.09     -21.879763     -43720094       1.6955349      358682.76     -43361411       707.75026      707.75026      707.75026      2146.1249      2853.8751      2146.1249      2853.8751      2146.1249      2853.8751      3.5451948e+08  0.1            16038160       6.43891        492.33025      4923.3138      13.937393    
  51136800   121404.44     -20.265314     -43712359       1.6955349      361521.68     -43350837       707.75026      707.75026      707.75026      2146.1249      2853.8751      2146.1249      2853.8751      2146.1249      2853.8751      3.5451948e+08  0.1            16038180       6.4795456      492.1833       4921.8287      13.896389    
  51137000   122071.18     -19.307566     -43717478       1.6955349      363507.13     -43353971       707.75026      707.75026      707.75026      2146.1249      2853.8751      2146.1249      2853.8751      2146.1249      2853.8751      3.5451948e+08  0.1            16038200       6.5212554      479.50242      4795.0058      13.857673    
  51137200   122455.89     -18.830567     -43717106       1.6955349      364652.72     -43352453       707.75026      707.75026      707.75026      2146.1249      2853.8751      2146.1249      2853.8751      2146.1249      2853.8751      3.5451948e+08  0.1            16038220       6.5618837      492.26987      4922.7113      13.816642    
  51137400   122585.48     -18.798337     -43716723       1.6955349      365038.62     -43351685       707.75026      707.75026      707.75026      2146.1249      2853.8751      2146.1249      2853.8751      2146.1249      2853.8751      3.5451948e+08  0.1            16038240       6.602471       492.76471      4927.6646      13.77553     
  51137600   122509.62     -18.173828     -43708952       1.6955349      364812.73     -43344140       707.75026      707.75026      707.75026      2146.1249      2853.8751      2146.1249      2853.8751      2146.1249      2853.8751      3.5451948e+08  0.1            16038260       6.6431585      491.5523       4915.5075      13.734633    
  51137800   122295.4      -17.341688     -43708552       1.6955349      364174.83     -43344378       707.75026      707.75026      707.75026      2146.1249      2853.8751      2146.1249      2853.8751      2146.1249      2853.8751      3.5451948e+08  0.1            16038280       6.6838296      491.74827      4917.4627      13.693705    
  51138000   122019.61     -16.879595     -43717418       1.6955349      363353.57     -43354064       707.75026      707.75026      707.75026      2146.1249      2853.8751      2146.1249      2853.8751      2146.1249      2853.8751      3.5451948e+08  0.1            16038300       6.7244756      492.05439      4920.5647      13.652727    
  51138200   121763.27     -15.754256     -43717002       1.6955349      362590.21     -43354412       707.75026      707.75026      707.75026      2146.1249      2853.8751      2146.1249      2853.8751      2146.1249      2853.8751      3.5451948e+08  0.1            16038320       6.765107       492.22923      4922.2884      13.611726    
  51138400   121603.92     -14.26842      -43716576       1.6955349      362115.7      -43354460       707.75026      707.75026      707.75026      2146.1249      2853.8751      2146.1249      2853.8751      2146.1249      2853.8751      3.5451948e+08  0.1            16038340       6.8057653      491.90516      4919.0553      13.570782    
  51138600   121611.15     -13.070404     -43716138       1.6955349      362137.25     -43354001       707.75026      707.75026      707.75026      2146.1249      2853.8751      2146.1249      2853.8751      2146.1249      2853.8751      3.5451948e+08  0.1            16038360       6.8464653      491.40076      4914.0071      13.529924    
  51138800   121844.06     -12.330097     -43723074       1.6955349      362830.82     -43360244       707.75026      707.75026      707.75026      2146.1249      2853.8751      2146.1249      2853.8751      2146.1249      2853.8751      3.5451948e+08  0.1            16038380       6.8871127      492.03468      4920.3477      13.488965    
  51139000   122341.98     -11.33856      -43724522       1.6955349      364313.52     -43360208       707.75026      707.75026      707.75026      2146.1249      2853.8751      2146.1249      2853.8751      2146.1249      2853.8751      3.5451948e+08  0.1            16038400       6.9277798      491.79869      4917.9836      13.448047    
  51139200   123124.3      -10.189036     -43724065       1.6955349      366643.13     -43357422       707.75026      707.75026      707.75026      2146.1249      2853.8751      2146.1249      2853.8751      2146.1249      2853.8751      3.5451948e+08  0.1            16038420       6.969153       483.40472      4834.0451      13.408492    
  51139400   124190.32     -8.5634425     -43716225       1.6955349      369817.57     -43346407       707.75026      707.75026      707.75026      2146.1249      2853.8751      2146.1249      2853.8751      2146.1249      2853.8751      3.5451948e+08  0.1            16038440       7.0097384      492.7872       4927.868       13.367413    
  51139600   125517.78     -6.9084314     -43713869       1.6955349      373770.53     -43340098       707.75026      707.75026      707.75026      2146.1249      2853.8751      2146.1249      2853.8751      2146.1249      2853.8751      3.5451948e+08  0.1            16038460       7.0503781      492.1302       4921.308       13.326441    
  51139800   127059.3      -4.945744      -43713402       1.6955349      378360.91     -43335041       707.75026      707.75026      707.75026      2146.1249      2853.8751      2146.1249      2853.8751      2146.1249      2853.8751      3.5451948e+08  0.1            16038480       7.0909878      492.49377      4924.9304      13.285418    
  51140000   128749.14     -2.781234      -43713291       1.6955349      383392.95     -43329898       707.75026      707.75026      707.75026      2146.1249      2853.8751      2146.1249      2853.8751      2146.1249      2853.8751      3.5451948e+08  0.1            16038500       7.1317821      490.26369      4902.6514      13.244742    
  51140200   130512.31     -0.90834648    -43714694       1.6955349      388643.36     -43326051       707.75026      707.75026      707.75026      2146.1249      2853.8751      2146.1249      2853.8751      2146.1249      2853.8751      3.5451948e+08  0.1            16038520       7.1724218      492.13044      4921.3013      13.203781    
  51140400   132267.97      1.448406      -43704920       1.6955349      393871.44     -43311049       707.75026      707.75026      707.75026      2146.1249      2853.8751      2146.1249      2853.8751      2146.1249      2853.8751      3.5451948e+08  0.1            16038540       7.2129451      493.54365      4935.4279      13.16261     
  51140600   133936.95      3.2540051     -43698931       1.6955349      398841.36     -43300089       707.75026      707.75026      707.75026      2146.1249      2853.8751      2146.1249      2853.8751      2146.1249      2853.8751      3.5451948e+08  0.1            16038560       7.2535572      492.46338      4924.6438      13.121607    
  51140800   135445.81      5.416017      -43689148       1.6955349      403334.5      -43285813       707.75026      707.75026      707.75026      2146.1249      2853.8751      2146.1249      2853.8751      2146.1249      2853.8751      3.5451948e+08  0.1            16038580       7.2940809      493.53874      4935.3795      13.080451    
  51141000   136732.25      7.5234757     -43688633       1.6955349      407165.29     -43281468       707.75026      707.75026      707.75026      2146.1249      2853.8751      2146.1249      2853.8751      2146.1249      2853.8751      3.5451948e+08  0.1            16038600       7.3346247      493.29499      4932.9586      13.039336    
  51141200   137751.3       9.5715896     -43688112       1.6955349      410199.84     -43277912       707.75026      707.75026      707.75026      2146.1249      2853.8751      2146.1249      2853.8751      2146.1249      2853.8751      3.5451948e+08  0.1            16038620       7.375179       493.1652       4931.6442      12.998247    
  51141400   138480.5       10.442368     -43696862       1.6955349      412371.27     -43284491       707.75026      707.75026      707.75026      2146.1249      2853.8751      2146.1249      2853.8751      2146.1249      2853.8751      3.5451948e+08  0.1            16038640       7.4157209      493.31685      4933.1785      12.957142    
  51141600   138920.44      11.761475     -43688226       1.6955349      413681.34     -43274545       707.75026      707.75026      707.75026      2146.1249      2853.8751      2146.1249      2853.8751      2146.1249      2853.8751      3.5451948e+08  0.1            16038660       7.4565551      489.78351      4897.8073      12.916551    
  51141800   139093.23      12.316504     -43687704       1.6955349      414195.88     -43273508       707.75026      707.75026      707.75026      2146.1249      2853.8751      2146.1249      2853.8751      2146.1249      2853.8751      3.5451948e+08  0.1            16038680       7.4983136      478.94615      4789.4779      12.877542    
  51142000   139043.8       12.954115     -43694558       1.6955349      414048.7      -43280510       707.75026      707.75026      707.75026      2146.1249      2853.8751      2146.1249      2853.8751      2146.1249      2853.8751      3.5451948e+08  0.1            16038700       7.5389423      492.2621       4922.6216      12.836581    
  51142200   138836.16      14.02621      -43694031       1.6955349      413430.37     -43280601       707.75026      707.75026      707.75026      2146.1249      2853.8751      2146.1249      2853.8751      2146.1249      2853.8751      3.5451948e+08  0.1            16038720       7.5795012      493.11099      4931.1094      12.795506    
  51142400   138547.48      14.692289     -43693503       1.6955349      412570.74     -43280932       707.75026      707.75026      707.75026      2146.1249      2853.8751      2146.1249      2853.8751      2146.1249      2853.8751      3.5451948e+08  0.1            16038740       7.6209653      482.34239      4823.4314      12.755951    
  51142600   138260.05      16.184485     -43685596       1.6955349      411714.83     -43273881       707.75026      707.75026      707.75026      2146.1249      2853.8751      2146.1249      2853.8751      2146.1249      2853.8751      3.5451948e+08  0.1            16038760       7.6616286      491.84609      4918.4584      12.715047    
  51142800   138054.63      17.076343     -43694338       1.6955349      411103.11     -43283235       707.75026      707.75026      707.75026      2146.1249      2853.8751      2146.1249      2853.8751      2146.1249      2853.8751      3.5451948e+08  0.1            16038780       7.7022427      492.43995      4924.3879      12.674064    
  51143000   138004.38      18.226392     -43691910       1.6955349      410953.46     -43280957       707.75026      707.75026      707.75026      2146.1249      2853.8751      2146.1249      2853.8751      2146.1249      2853.8751      3.5451948e+08  0.1            16038800       7.7429328      491.51993      4915.208       12.63321     
  51143200   138172.18      18.685801     -43698755       1.6955349      411453.16     -43287301       707.75026      707.75026      707.75026      2146.1249      2853.8751      2146.1249      2853.8751      2146.1249      2853.8751      3.5451948e+08  0.1            16038820       7.7835568      492.32007      4923.2117      12.59225     
  51143400   138604.16      20.42232      -43690847       1.6955349      412739.51     -43278107       707.75026      707.75026      707.75026      2146.1249      2853.8751      2146.1249      2853.8751      2146.1249      2853.8751      3.5451948e+08  0.1            16038840       7.8241726      492.41786      4924.1724      12.551281    
  51143600   139324.74      22.124198     -43692581       1.6955349      414885.28     -43277696       707.75026      707.75026      707.75026      2146.1249      2853.8751      2146.1249      2853.8751      2146.1249      2853.8751      3.5451948e+08  0.1            16038860       7.8648892      491.20204      4912.0179      12.510475    
  51143800   140336.08      24.067485     -43692050       1.6955349      417896.88     -43274153       707.75026      707.75026      707.75026      2146.1249      2853.8751      2146.1249      2853.8751      2146.1249      2853.8751      3.5451948e+08  0.1            16038880       7.9055561      491.80048      4918.0049      12.469592    
  51144000   141618.43      25.862842     -43689622       1.6955349      421715.49     -43267906       707.75026      707.75026      707.75026      2146.1249      2853.8751      2146.1249      2853.8751      2146.1249      2853.8751      3.5451948e+08  0.1            16038900       7.9463312      490.49523      4904.9592      12.42888     
  51144200   143130.63      27.255509     -43689087       1.6955349      426218.57     -43262869       707.75026      707.75026      707.75026      2146.1249      2853.8751      2146.1249      2853.8751      2146.1249      2853.8751      3.5451948e+08  0.1            16038920       7.9869453      492.43886      4924.3794      12.387919    
  51144400   144812         28.631855     -43688183       1.6955349      431225.41     -43256958       707.75026      707.75026      707.75026      2146.1249      2853.8751      2146.1249      2853.8751      2146.1249      2853.8751      3.5451948e+08  0.1            16038940       8.027552       492.52697      4925.2762      12.346949    
  51144600   146587.19      29.403786     -43689540       1.6955349      436511.63     -43253029       707.75026      707.75026      707.75026      2146.1249      2853.8751      2146.1249      2853.8751      2146.1249      2853.8751      3.5451948e+08  0.1            16038960       8.0682146      491.85493      4918.5428      12.306068    
  51144800   148374.43      30.644335     -43689002       1.6955349      441833.73     -43247168       707.75026      707.75026      707.75026      2146.1249      2853.8751      2146.1249      2853.8751      2146.1249      2853.8751      3.5451948e+08  0.1            16038980       8.1089346      491.15851      4911.5829      12.265276    
  51145000   150090.52      32.22326      -43695841       1.6955349      446943.94     -43248897       707.75026      707.75026      707.75026      2146.1249      2853.8751      2146.1249      2853.8751      2146.1249      2853.8751      3.5451948e+08  0.1            16039000       8.1496108      491.68933      4916.894       12.224419    
  51145200   151656.73      34.411222     -43695298       1.6955349      451607.86     -43243690       707.75026      707.75026      707.75026      2146.1249      2853.8751      2146.1249      2853.8751      2146.1249      2853.8751      3.5451948e+08  0.1            16039020       8.1902426      492.22459      4922.2462      12.183499    
  51145400   153006.7       36.260023     -43694751       1.6955349      455627.83     -43239123       707.75026      707.75026      707.75026      2146.1249      2853.8751      2146.1249      2853.8751      2146.1249      2853.8751      3.5451948e+08  0.1            16039040       8.2308592      492.40976      4924.1008      12.142558    
  51145600   154091.27      38.249683     -43694202       1.6955349      458857.5      -43235344       707.75026      707.75026      707.75026      2146.1249      2853.8751      2146.1249      2853.8751      2146.1249      2853.8751      3.5451948e+08  0.1            16039060       8.2723665      481.84041      4818.406       12.102924    
  51145800   154881.88      40.228693     -43693653       1.6955349      461211.79     -43232441       707.75026      707.75026      707.75026      2146.1249      2853.8751      2146.1249      2853.8751      2146.1249      2853.8751      3.5451948e+08  0.1            16039080       8.3129597      492.69524      4926.9552      12.061945    
  51146000   155373.3       41.556043     -43707863       1.6955349      462675.16     -43245188       707.75026      707.75026      707.75026      2146.1249      2853.8751      2146.1249      2853.8751      2146.1249      2853.8751      3.5451948e+08  0.1            16039100       8.3536594      491.40368      4914.0327      12.021123    
  51146200   155583.77      43.946868     -43707317       1.6955349      463301.9      -43244015       707.75026      707.75026      707.75026      2146.1249      2853.8751      2146.1249      2853.8751      2146.1249      2853.8751      3.5451948e+08  0.1            16039120       8.3942463      492.76996      4927.7027      11.980141    
  51146400   155554.14      45.718178     -43706767       1.6955349      463213.66     -43243553       707.75026      707.75026      707.75026      2146.1249      2853.8751      2146.1249      2853.8751      2146.1249      2853.8751      3.5451948e+08  0.1            16039140       8.4348212      492.91636      4929.1688      11.939146    
  51146600   155348.9       46.362269     -43708116       1.6955349      462602.48     -43245513       707.75026      707.75026      707.75026      2146.1249      2853.8751      2146.1249      2853.8751      2146.1249      2853.8751      3.5451948e+08  0.1            16039160       8.4755623      490.9042       4909.0399      11.898389    
  51146800   155043.9       47.213391     -43707572       1.6955349      461694.27     -43245878       707.75026      707.75026      707.75026      2146.1249      2853.8751      2146.1249      2853.8751      2146.1249      2853.8751      3.5451948e+08  0.1            16039180       8.5171104      481.37015      4813.6914      11.858755    
  51147000   154720.8       47.586795     -43707026       1.6955349      460732.13     -43246294       707.75026      707.75026      707.75026      2146.1249      2853.8751      2146.1249      2853.8751      2146.1249      2853.8751      3.5451948e+08  0.1            16039200       8.5577622      491.98471      4919.8605      11.817865    
  51147200   154465.24      47.367752     -43706479       1.6955349      459971.12     -43246508       707.75026      707.75026      707.75026      2146.1249      2853.8751      2146.1249      2853.8751      2146.1249      2853.8751      3.5451948e+08  0.1            16039220       8.5984501      491.54515      4915.4463      11.777027    
  51147400   154355.5       48.162097     -43703671       1.6955349      459644.31     -43244027       707.75026      707.75026      707.75026      2146.1249      2853.8751      2146.1249      2853.8751      2146.1249      2853.8751      3.5451948e+08  0.1            16039240       8.6391183      491.78497      4917.8518      11.736164    
  51147600   154456.37      49.375833     -43703123       1.6955349      459944.68     -43243179       707.75026      707.75026      707.75026      2146.1249      2853.8751      2146.1249      2853.8751      2146.1249      2853.8751      3.5451948e+08  0.1            16039260       8.6797771      491.8983       4918.9636      11.69529     
  51147800   154818.93      50.465631     -43708058       1.6955349      461024.35     -43247034       707.75026      707.75026      707.75026      2146.1249      2853.8751      2146.1249      2853.8751      2146.1249      2853.8751      3.5451948e+08  0.1            16039280       8.7203799      492.5766       4925.7792      11.654343    
  51148000   155473.27      52.172998     -43707507       1.6955349      462972.86     -43244534       707.75026      707.75026      707.75026      2146.1249      2853.8751      2146.1249      2853.8751      2146.1249      2853.8751      3.5451948e+08  0.1            16039300       8.7610745      491.46548      4914.6537      11.61352     
  51148200   156427.59      54.373112     -43706951       1.6955349      465814.65     -43241137       707.75026      707.75026      707.75026      2146.1249      2853.8751      2146.1249      2853.8751      2146.1249      2853.8751      3.5451948e+08  0.1            16039320       8.801741       491.80569      4918.06        11.572662    
  51148400   157668.54      56.077986     -43713775       1.6955349      469509.98     -43244265       707.75026      707.75026      707.75026      2146.1249      2853.8751      2146.1249      2853.8751      2146.1249      2853.8751      3.5451948e+08  0.1            16039340       8.8424064      491.81857      4918.1522      11.531805    
  51148600   159157.54      58.0766       -43713221       1.6955349      473943.97     -43239277       707.75026      707.75026      707.75026      2146.1249      2853.8751      2146.1249      2853.8751      2146.1249      2853.8751      3.5451948e+08  0.1            16039360       8.8839247      481.71347      4817.1601      11.492052    
  51148800   160835.19      60.41313      -43705287       1.6955349      478939.73     -43226347       707.75026      707.75026      707.75026      2146.1249      2853.8751      2146.1249      2853.8751      2146.1249      2853.8751      3.5451948e+08  0.1            16039380       8.9245225      492.63894      4926.3955      11.451103    
  51149000   162626.67      62.141128     -43706991       1.6955349      484274.45     -43222717       707.75026      707.75026      707.75026      2146.1249      2853.8751      2146.1249      2853.8751      2146.1249      2853.8751      3.5451948e+08  0.1            16039400       8.9652377      491.21776      4912.1739      11.410305    
  51149200   164448.8       64.313545     -43706430       1.6955349      489700.44     -43216729       707.75026      707.75026      707.75026      2146.1249      2853.8751      2146.1249      2853.8751      2146.1249      2853.8751      3.5451948e+08  0.1            16039420       9.0058457      492.51367      4925.1384      11.369374    
  51149400   166214.42      66.696207     -43705862       1.6955349      494958.15     -43210904       707.75026      707.75026      707.75026      2146.1249      2853.8751      2146.1249      2853.8751      2146.1249      2853.8751      3.5451948e+08  0.1            16039440       9.0465956      490.79868      4907.9893      11.328623    
  51149600   167841.05      68.933433     -43707181       1.6955349      499802        -43207379       707.75026      707.75026      707.75026      2146.1249      2853.8751      2146.1249      2853.8751      2146.1249      2853.8751      3.5451948e+08  0.1            16039460       9.0871806      492.79313      4927.9371      11.287667    
  51149800   169257.87      70.785054     -43706598       1.6955349      504021.04     -43202577       707.75026      707.75026      707.75026      2146.1249      2853.8751      2146.1249      2853.8751      2146.1249      2853.8751      3.5451948e+08  0.1            16039480       9.1278689      491.53887      4915.3797      11.246842    
[...]
  51794400   305.49053      2.047794      -43609810       1.698349       909.69862     -43608901       707.35913      707.35913      707.35913      2146.3204      2853.6796      2146.3204      2853.6796      2146.3204      2853.6796      3.5393205e+08  0.1            16103940       67.887754      427.27701      4272.7544      2.4865591    
  51794600   305.37341      0.46183434    -43609876       1.6983088      909.34987     -43608966       707.36471      707.36471      707.36471      2146.3176      2853.6824      2146.3176      2853.6824      2146.3176      2853.6824      3.5394043e+08  0.1            16103960       67.934591      427.00851      4270.1111      2.4396401    
  51794800   305.33885     -0.86791119    -43609941       1.6982759      909.24696     -43609032       707.36928      707.36928      707.36928      2146.3154      2853.6846      2146.3154      2853.6846      2146.3154      2853.6846      3.5394729e+08  0.1            16103980       67.981393      427.32929      4273.2578      2.39272      
  51795000   305.17031      0.40042783    -43610006       1.6983167      908.74506     -43609098       707.36361      707.36361      707.36361      2146.3182      2853.6818      2146.3182      2853.6818      2146.3182      2853.6818      3.5393878e+08  0.1            16104000       68.02826       426.7433       4267.4617      2.3458022    
  51795200   305.34703      3.2383637     -43610071       1.6984021      909.27133     -43609162       707.35176      707.35176      707.35176      2146.3241      2853.6759      2146.3241      2853.6759      2146.3241      2853.6759      3.5392098e+08  0.1            16104020       68.075096      427.02082      4270.2064      2.2988834    
  51795400   305.48234      3.7915015     -43610136       1.6984226      909.67424     -43609226       707.34891      707.34891      707.34891      2146.3255      2853.6745      2146.3255      2853.6745      2146.3255      2853.6745      3.5391671e+08  0.1            16104040       68.121893      427.37564      4273.7537      2.2519635    
  51795600   305.35883      0.85097939    -43610202       1.6983439      909.30645     -43609292       707.35984      707.35984      707.35984      2146.3201      2853.6799      2146.3201      2853.6799      2146.3201      2853.6799      3.5393311e+08  0.1            16104060       68.168707      427.2227       4272.2288      2.2050443    
  51795800   305.31769     -2.3352743     -43610267       1.6982583      909.18395     -43609357       707.37172      707.37172      707.37172      2146.3141      2853.6859      2146.3141      2853.6859      2146.3141      2853.6859      3.5395095e+08  0.1            16104080       68.215566      426.81752      4268.1778      2.1581266    
  51796000   305.14409     -2.2544127     -43610332       1.6982653      908.66699     -43609423       707.37075      707.37075      707.37075      2146.3146      2853.6854      2146.3146      2853.6854      2146.3146      2853.6854      3.5394949e+08  0.1            16104100       68.262463      426.46748      4264.6676      2.1112103    
  51796200   305.32212      1.1313951     -43610397       1.6983661      909.19715     -43609488       707.35676      707.35676      707.35676      2146.3216      2853.6784      2146.3216      2853.6784      2146.3216      2853.6784      3.5392849e+08  0.1            16104120       68.309331      426.72921      4267.2996      2.064293     
  51796400   305.46762      4.6664833     -43610461       1.698471       909.63042     -43609551       707.34219      707.34219      707.34219      2146.3289      2853.6711      2146.3289      2853.6711      2146.3289      2853.6711      3.5390662e+08  0.1            16104140       68.356243      426.26503      4262.6509      2.0173774    
  51796600   305.35359      5.0720626     -43610526       1.6984872      909.29085     -43609616       707.33995      707.33995      707.33995      2146.33        2853.67        2146.33        2853.67        2146.33        2853.67        3.5390325e+08  0.1            16104160       68.403124      426.6713       4266.7002      1.9704605    
  51796800   305.31213      1.7788299     -43610592       1.6983984      909.16739     -43609682       707.35227      707.35227      707.35227      2146.3239      2853.6761      2146.3239      2853.6761      2146.3239      2853.6761      3.5392175e+08  0.1            16104180       68.449972      426.91899      4269.2022      1.9235428    
  51797000   305.12285     -2.5495148     -43610656       1.6982803      908.60376     -43609748       707.36866      707.36866      707.36866      2146.3157      2853.6843      2146.3157      2853.6843      2146.3157      2853.6843      3.5394636e+08  0.1            16104200       68.496892      426.25195      4262.5175      1.8766273    
  51797200   305.28396     -4.0831524     -43610721       1.6982415      909.0835      -43609811       707.37406      707.37406      707.37406      2146.313       2853.687       2146.313       2853.687       2146.313       2853.687       3.5395446e+08  0.1            16104220       68.543718      427.11435      4271.1377      1.8297092    
  51797400   305.42851     -1.0613582     -43610786       1.6983317      909.51395     -43609876       707.36153      707.36153      707.36153      2146.3192      2853.6808      2146.3192      2853.6808      2146.3192      2853.6808      3.5393565e+08  0.1            16104240       68.591525      418.35324      4183.5187      1.7828167    
  51797600   305.32996      4.2509543     -43610850       1.698487       909.22047     -43609941       707.33998      707.33998      707.33998      2146.33        2853.67        2146.33        2853.67        2146.33        2853.67        3.539033e+08   0.1            16104260       68.63831       427.48611      4274.8853      1.7358972    
  51797800   305.30975      6.9155318     -43610913       1.6985672      909.16031     -43610004       707.32885      707.32885      707.32885      2146.3356      2853.6644      2146.3356      2853.6644      2146.3356      2853.6644      3.5388659e+08  0.1            16104280       68.685152      426.96878      4269.68        1.6889792    
  51798000   305.12472      3.8003777     -43610979       1.6984833      908.6093      -43610071       707.34048      707.34048      707.34048      2146.3298      2853.6702      2146.3298      2853.6702      2146.3298      2853.6702      3.5390406e+08  0.1            16104300       68.732004      426.87423      4268.748       1.6420616    
  51798200   305.26974     -2.5264219     -43611044       1.6983084      909.04117     -43610135       707.36477      707.36477      707.36477      2146.3176      2853.6824      2146.3176      2853.6824      2146.3176      2853.6824      3.5394051e+08  0.1            16104320       68.778809      427.30556      4273.0601      1.595143     
  51798400   305.39575     -5.3397716     -43611107       1.6982331      909.4164      -43610198       707.37522      707.37522      707.37522      2146.3124      2853.6876      2146.3124      2853.6876      2146.3124      2853.6876      3.5395621e+08  0.1            16104340       68.825708      426.44696      4264.4609      1.5482266    
  51798600   305.29327     -1.0070498     -43611173       1.6983606      909.11124     -43610264       707.35752      707.35752      707.35752      2146.3212      2853.6788      2146.3212      2853.6788      2146.3212      2853.6788      3.5392964e+08  0.1            16104360       68.872479      427.61107      4276.1097      1.5013075    
  51798800   305.28826      5.6819459     -43611236       1.6985551      909.0963      -43610327       707.33053      707.33053      707.33053      2146.3347      2853.6653      2146.3347      2853.6653      2146.3347      2853.6653      3.5388911e+08  0.1            16104380       68.919379      426.44553      4264.4539      1.4543913    
  51799000   305.11684      6.3798869     -43611300       1.6985795      908.58585     -43610392       707.32713      707.32713      707.32713      2146.3364      2853.6636      2146.3364      2853.6636      2146.3364      2853.6636      3.5388402e+08  0.1            16104400       68.966259      426.61762      4266.1758      1.4074747    
  51799200   305.26303      0.29411906    -43611366       1.6984112      909.02119     -43610457       707.35049      707.35049      707.35049      2146.3248      2853.6752      2146.3248      2853.6752      2146.3248      2853.6752      3.5391909e+08  0.1            16104420       69.013061      427.3287       4273.2839      1.3605567    
  51799400   305.38513     -4.0321741     -43611430       1.6982929      909.38477     -43610520       707.36692      707.36692      707.36692      2146.3165      2853.6835      2146.3165      2853.6835      2146.3165      2853.6835      3.5394374e+08  0.1            16104440       69.059868      427.28757      4272.8715      1.3136389    
  51799600   305.27785     -0.98170914    -43611495       1.6983841      909.0653      -43610585       707.35425      707.35425      707.35425      2146.3229      2853.6771      2146.3229      2853.6771      2146.3229      2853.6771      3.5392473e+08  0.1            16104460       69.106735      426.7449       4267.4551      1.2667223    
  51799800   305.26821      3.9963456     -43611558       1.6985302      909.03659     -43610649       707.33398      707.33398      707.33398      2146.333       2853.667       2146.333       2853.667       2146.333       2853.667       3.538943e+08   0.1            16104480       69.153552      427.1955       4271.952       1.2198049    
  51800000   305.09376      3.635558      -43611623       1.6985245      908.51711     -43610714       707.33477      707.33477      707.33477      2146.3326      2853.6674      2146.3326      2853.6674      2146.3326      2853.6674      3.5389548e+08  0.1            16104500       69.200557      425.48576      4254.8651      1.1728908    
  51800200   305.24727     -0.32372362    -43611687       1.6984165      908.97423     -43610778       707.34976      707.34976      707.34976      2146.3251      2853.6749      2146.3251      2853.6749      2146.3251      2853.6749      3.5391798e+08  0.1            16104520       69.247341      427.49314      4274.9278      1.1259731    
  51800400   305.38332     -0.80203153    -43611751       1.6984075      909.37938     -43610842       707.35102      707.35102      707.35102      2146.3245      2853.6755      2146.3245      2853.6755      2146.3245      2853.6755      3.5391987e+08  0.1            16104540       69.294157      427.20372      4272.0399      1.079056     
  51800600   305.2644      -1.0645611     -43611815       1.6984045      909.02526     -43610906       707.35143      707.35143      707.35143      2146.3243      2853.6757      2146.3243      2853.6757      2146.3243      2853.6757      3.5392048e+08  0.1            16104560       69.34098       427.14164      4271.4151      1.0321391    
  51800800   305.24801      1.5232378     -43613774       1.6984871      908.97644     -43612865       707.33995      707.33995      707.33995      2146.33        2853.67        2146.33        2853.67        2146.33        2853.67        3.5390327e+08  0.1            16104580       69.387875      426.48483      4264.844       0.98522342   
  51801000   305.07869      2.555133      -43613838       1.698521       908.47225     -43612930       707.33526      707.33526      707.33526      2146.3324      2853.6676      2146.3324      2853.6676      2146.3324      2853.6676      3.5389622e+08  0.1            16104600       69.434709      427.0461       4270.4663      0.93830691   
  51801200   305.23386     -0.65568738    -43610112       1.698425       908.93431     -43609204       707.34858      707.34858      707.34858      2146.3257      2853.6743      2146.3257      2853.6743      2146.3257      2853.6743      3.5391622e+08  0.1            16104620       69.481573      426.76455      4267.6443      0.89139091   
  51801400   305.37703      0.11997337    -43612071       1.698456       909.36064     -43611162       707.34428      707.34428      707.34428      2146.3279      2853.6721      2146.3279      2853.6721      2146.3279      2853.6721      3.5390976e+08  0.1            16104640       69.528666      424.68753      4246.8763      0.84447776   
  51801600   305.25874     -0.046947086   -43612135       1.6984556      909.0084      -43611226       707.34433      707.34433      707.34433      2146.3278      2853.6722      2146.3278      2853.6722      2146.3278      2853.6722      3.5390984e+08  0.1            16104660       69.576469      418.38624      4183.86        0.7975725    
  51801800   305.23182     -0.25022976    -43612199       1.6984542      908.92824     -43611290       707.34453      707.34453      707.34453      2146.3277      2853.6723      2146.3277      2853.6723      2146.3277      2853.6723      3.5391014e+08  0.1            16104680       69.623294      427.12323      4271.2147      0.75065549   
  51802000   305.06657      1.9510064     -43612263       1.6985211      908.43616     -43611355       707.33524      707.33524      707.33524      2146.3324      2853.6676      2146.3324      2853.6676      2146.3324      2853.6676      3.5389619e+08  0.1            16104700       69.670145      426.88622      4268.8797      0.70373886   
  51802200   305.23473      2.3740371     -43612327       1.6985374      908.9369      -43611418       707.33297      707.33297      707.33297      2146.3335      2853.6665      2146.3335      2853.6665      2146.3335      2853.6665      3.5389278e+08  0.1            16104720       69.716985      426.98303      4269.8354      0.65682222   
  51802400   305.36422     -0.021147547   -43612391       1.6984735      909.32249     -43611482       707.34184      707.34184      707.34184      2146.3291      2853.6709      2146.3291      2853.6709      2146.3291      2853.6709      3.539061e+08   0.1            16104740       69.763787      427.32896      4273.2881      0.60990536   
  51802600   305.25483      2.8313347     -43614349       1.6985635      908.99676     -43613440       707.32935      707.32935      707.32935      2146.3353      2853.6647      2146.3353      2853.6647      2146.3353      2853.6647      3.5388735e+08  0.1            16104760       69.810713      426.20623      4262.0607      0.56298964   
  51802800   305.2132      -2.2388327     -43612518       1.6984189      908.8728      -43611609       707.34943      707.34943      707.34943      2146.3253      2853.6747      2146.3253      2853.6747      2146.3253      2853.6747      3.5391749e+08  0.1            16104780       69.857578      426.76162      4267.6151      0.51607346   
  51803000   305.06601      4.2982603     -43616371       1.6986183      908.43449     -43615463       707.32175      707.32175      707.32175      2146.3391      2853.6609      2146.3391      2853.6609      2146.3391      2853.6609      3.5387594e+08  0.1            16104800       69.904554      425.74535      4257.4539      0.4691581    
  51803200   305.21032     -1.2384532     -43614541       1.6984603      908.86422     -43613632       707.34368      707.34368      707.34368      2146.3282      2853.6718      2146.3282      2853.6718      2146.3282      2853.6718      3.5390886e+08  0.1            16104820       69.951532      425.73476      4257.3457      0.42224266   
  51803400   305.3554       1.0066943     -43614605       1.6985284      909.29625     -43613695       707.33423      707.33423      707.33423      2146.3329      2853.6671      2146.3329      2853.6671      2146.3329      2853.6671      3.5389467e+08  0.1            16104840       69.998416      426.57838      4265.7848      0.37532664   
  51803600   305.26291      8.465075      -43616560       1.6987496      909.02081     -43615651       707.30352      707.30352      707.30352      2146.3482      2853.6518      2146.3482      2853.6518      2146.3482      2853.6518      3.5384858e+08  0.1            16104860       70.045198      427.51416      4275.1425      0.32841019   
  51803800   305.2062      -0.951436      -43614732       1.6984809      908.85195     -43613823       707.34082      707.34082      707.34082      2146.3296      2853.6704      2146.3296      2853.6704      2146.3296      2853.6704      3.5390457e+08  0.1            16104880       70.092062      426.76621      4267.6621      0.28149424   
  51804000   305.0339      -1.1365438     -43614796       1.6984797      908.33887     -43613887       707.34098      707.34098      707.34098      2146.3295      2853.6705      2146.3295      2853.6705      2146.3295      2853.6705      3.5390481e+08  0.1            16104900       70.138928      426.7546       4267.5479      0.23457836   
  51804200   305.22681      7.1261847     -43616752       1.6987239      908.91331     -43615843       707.30709      707.30709      707.30709      2146.3465      2853.6535      2146.3465      2853.6535      2146.3465      2853.6535      3.5385394e+08  0.1            16104920       70.185814      426.56061      4265.6042      0.18766261   
  51804400   305.31744     -6.4583915     -43614921       1.6983363      909.18321     -43614011       707.3609       707.3609       707.3609       2146.3196      2853.6804      2146.3196      2853.6804      2146.3196      2853.6804      3.539347e+08   0.1            16104940       70.232616      427.33768      4273.3784      0.14074673   
  51804600   305.23843      5.2969597     -43616880       1.69868        908.94793     -43615971       707.31319      707.31319      707.31319      2146.3434      2853.6566      2146.3434      2853.6566      2146.3434      2853.6566      3.5386309e+08  0.1            16104960       70.27945       427.03635      4270.3635      0.093831045  
  51804800   305.2081       3.2346745     -43616944       1.6986253      908.85761     -43616035       707.32078      707.32078      707.32078      2146.3396      2853.6604      2146.3396      2853.6604      2146.3396      2853.6604      3.5387448e+08  0.1            16104980       70.326349      426.4472       4264.4673      0.046915512  
  51805000   305.01172     -4.5305301     -43615112       1.6984035      908.27281     -43614204       707.35157      707.35157      707.35157      2146.3242      2853.6758      2146.3242      2853.6758      2146.3242      2853.6758      3.539207e+08   0.1            16105000       70.373198      426.90326      4269.0368      0            
Loop time of 70.3732 on 1 procs for 300000 steps with 1000 atoms

Performance: 36.832 ns/day, 0.652 hours/ns, 4262.986 timesteps/s
99.8% CPU use with 1 MPI tasks x 1 OpenMP threads

MPI task timing breakdown:
Section |  min time  |  avg time  |  max time  |%varavg| %total
---------------------------------------------------------------
Pair    | 55.219     | 55.219     | 55.219     |   0.0 | 78.47
Neigh   | 0.022237   | 0.022237   | 0.022237   |   0.0 |  0.03
Comm    | 1.9929     | 1.9929     | 1.9929     |   0.0 |  2.83
Output  | 0.052765   | 0.052765   | 0.052765   |   0.0 |  0.07
Modify  | 11.596     | 11.596     | 11.596     |   0.0 | 16.48
Other   |            | 1.49       |            |       |  2.12

Nlocal:           1000 ave        1000 max        1000 min
Histogram: 1 0 0 0 0 0 0 0 0 0
Nghost:           1308 ave        1308 max        1308 min
Histogram: 1 0 0 0 0 0 0 0 0 0
Neighs:           6671 ave        6671 max        6671 min
Histogram: 1 0 0 0 0 0 0 0 0 0

Total # of neighbors = 6671
Ave neighs/atom = 6.671
Neighbor list builds = 31
Dangerous builds = 5

# run_style
run_style verlet

# write restart
write_restart ${write_res}
write_restart ./pgnpmf/37/equpmf74.res
System init for write_restart ...
Generated 0 of 1 mixed pair_coeff terms from geometric mixing rule

Total wall time: 0:02:33
