LAMMPS (23 Jun 2022 - Update 1)
OMP_NUM_THREADS environment is not set. Defaulting to 1 thread. (src/comm.cpp:98)
  using 1 OpenMP thread(s) per MPI task
# Read restart
read_restart ${read_res}
read_restart ./pgnpmf/37/equpmf55.res
Reading restart file ...
  restart file = 23 Jun 2022, LAMMPS = 23 Jun 2022
  restoring atom style atomic from restart
  orthogonal box = (2118.0873 2118.0873 2118.0873) to (2881.9127 2881.9127 2881.9127)
  1 by 1 by 1 MPI processor grid
  restoring pair style table from restart
  1000 atoms
  read_restart CPU = 0.004 seconds

# Settings

pair_style table spline 9941

pair_coeff 1 1 ./pgnpmf/N20.txt DE_GNP 75.6
pair_coeff 2 2 ./pgnpmf/N100.txt DE_GNP 115.92
WARNING: 3 of 9941 force values in table DE_GNP are inconsistent with -dE/dr.
WARNING:  Should only be flagged at inflection points (src/pair_table.cpp:463)
pair_coeff 1 2 ./pgnpmf/mixed_potential.txt DE_GNP 95.66
WARNING: 1562 of 9941 force values in table DE_GNP are inconsistent with -dE/dr.
WARNING:  Should only be flagged at inflection points (src/pair_table.cpp:463)

#Neigh_list Calc Frequency

neigh_modify delay 0 every 1 check yes

# Saving Frequency (50 frames)

variable ts_save equal ${steps_equ}
variable ts_save equal 5000

# Dump
#dump 1 all custom ${ts_save} ./pgnpmf/${folder}/equilibration/trajectory/trajectory_${usic}_${trial}.equ.custom type x y z ix iy iz
#dump_modify 1 first no sort id
#dump 2 all cfg 50000 ./equilibration/trajectory/ovito/dumpgen.tens_*.cfg mass type xs ys zs fx fy fz

# thermo_style
thermo_style custom step temp press pe density ke etotal lx ly lz xlo xhi ylo yhi zlo zhi vol dt time cpu tpcpu spcpu cpuremain

# run info
timestep ${ts}
timestep 0.1
thermo 200

# fix

fix 1 all momentum 1000 linear 1 1 1 angular
variable T equal ${temp}
variable T equal 300
fix 2 all nvt temp ${T} 370000 100.0
fix 2 all nvt temp 300 370000 100.0

run 100000
Generated 0 of 1 mixed pair_coeff terms from geometric mixing rule
Unused restart file global fix info:
  fix style: npt, fix ID: 5
Neighbor list info ...
  update every 1 steps, delay 0 steps, check yes
  max neighbors/atom: 2000, page size: 100000
  master list distance cutoff = 117.92
  ghost atom cutoff = 117.92
  binsize = 58.96, bins = 13 13 13
  1 neighbor lists, perpetual/occasional/extra = 1 0 0
  (1) pair table, perpetual
      attributes: half, newton on
      pair build: half/bin/atomonly/newton
      stencil: half/bin/3d
      bin: standard
Per MPI rank memory allocation (min/avg/max) = 3.12 | 3.12 | 3.12 Mbytes
   Step          Temp          Press          PotEng        Density         KinEng         TotEng           Lx             Ly             Lz            Xlo            Xhi            Ylo            Yhi            Zlo            Zhi           Volume           Dt            Time           CPU           T/CPU          S/CPU         CPULeft    
  38505000   306.87419      1.2787116     -40722816       1.3488528      913.81892     -40721902       763.82539      763.82539      763.82539      2118.0873      2881.9127      2118.0873      2881.9127      2118.0873      2881.9127      4.4563805e+08  0.1            14775000       0              0              0              0            
  38505200   341.26338      1.1053153     -40722904       1.3488528      1016.2241     -40721888       763.82539      763.82539      763.82539      2118.0873      2881.9127      2118.0873      2881.9127      2118.0873      2881.9127      4.4563805e+08  0.1            14775020       0.037312737    535.99612      5359.8305      18.620409    
  38505400   390.32549      0.92426252    -40722998       1.3488528      1162.3227     -40721835       763.82539      763.82539      763.82539      2118.0873      2881.9127      2118.0873      2881.9127      2118.0873      2881.9127      4.4563805e+08  0.1            14775040       0.074588927    536.53814      5365.3774      18.573279    
  38505600   443.91864      0.73076021    -40723098       1.3488528      1321.9139     -40721776       763.82539      763.82539      763.82539      2118.0873      2881.9127      2118.0873      2881.9127      2118.0873      2881.9127      4.4563805e+08  0.1            14775060       0.11215719     532.36524      5323.6678      18.5811      
  38505800   508.52584      0.52589651    -40723205       1.3488528      1514.3031     -40721690       763.82539      763.82539      763.82539      2118.0873      2881.9127      2118.0873      2881.9127      2118.0873      2881.9127      4.4563805e+08  0.1            14775080       0.14943806     536.46892      5364.6887      18.530604    
  38506000   583.82983      0.3079233     -40723319       1.3488528      1738.5455     -40721581       763.82539      763.82539      763.82539      2118.0873      2881.9127      2118.0873      2881.9127      2118.0873      2881.9127      4.4563805e+08  0.1            14775100       0.18671085     536.5835       5365.8262      18.484613    
  38506200   670.56679      0.077105076   -40723441       1.3488528      1996.8334     -40721444       763.82539      763.82539      763.82539      2118.0873      2881.9127      2118.0873      2881.9127      2118.0873      2881.9127      4.4563805e+08  0.1            14775120       0.2239286      537.37886      5373.7866      18.436984    
  38506400   769.91635     -0.16845208    -40723572       1.3488528      2292.6794     -40721280       763.82539      763.82539      763.82539      2118.0873      2881.9127      2118.0873      2881.9127      2118.0873      2881.9127      4.4563805e+08  0.1            14775140       0.26121748     536.35312      5363.5408      18.397335    
  38506600   883.29641     -0.42934801    -40723713       1.3488528      2630.3059     -40721082       763.82539      763.82539      763.82539      2118.0873      2881.9127      2118.0873      2881.9127      2118.0873      2881.9127      4.4563805e+08  0.1            14775160       0.29880042     532.15494      5321.5475      18.376377    
  38506800   1012.347      -0.70624921    -40723863       1.3488528      3014.5964     -40720848       763.82539      763.82539      763.82539      2118.0873      2881.9127      2118.0873      2881.9127      2118.0873      2881.9127      4.4563805e+08  0.1            14775180       0.33613427     535.70769      5357.0641      18.338126    
  38507000   1158.6451     -0.99997176    -40724023       1.3488528      3450.2473     -40720573       763.82539      763.82539      763.82539      2118.0873      2881.9127      2118.0873      2881.9127      2118.0873      2881.9127      4.4563805e+08  0.1            14775200       0.37345673     535.87059      5358.7057      18.2995      
  38507200   1324.6895     -1.3099927     -40724194       1.3488528      3944.6991     -40720250       763.82539      763.82539      763.82539      2118.0873      2881.9127      2118.0873      2881.9127      2118.0873      2881.9127      4.4563805e+08  0.1            14775220       0.41070978     536.86891      5368.6946      18.25802     
  38507400   1512.6299     -1.637936      -40724377       1.3488528      4504.3534     -40719873       763.82539      763.82539      763.82539      2118.0873      2881.9127      2118.0873      2881.9127      2118.0873      2881.9127      4.4563805e+08  0.1            14775240       0.44796872     536.78421      5367.8437      18.217489    
  38507600   1725.0261     -1.9842009     -40724572       1.3488528      5136.8331     -40719435       763.82539      763.82539      763.82539      2118.0873      2881.9127      2118.0873      2881.9127      2118.0873      2881.9127      4.4563805e+08  0.1            14775260       0.48524662     536.51138      5365.115       18.178173    
  38507800   1964.7034     -2.3495036     -40724780       1.3488528      5850.5512     -40718930       763.82539      763.82539      763.82539      2118.0873      2881.9127      2118.0873      2881.9127      2118.0873      2881.9127      4.4563805e+08  0.1            14775280       0.52249509     536.93417      5369.3387      18.138126    
  38508000   2234.482      -2.7346188     -40725002       1.3488528      6653.9058     -40718348       763.82539      763.82539      763.82539      2118.0873      2881.9127      2118.0873      2881.9127      2118.0873      2881.9127      4.4563805e+08  0.1            14775300       0.55980986     535.98142      5359.8137      18.100592    
  38508200   2538.1919     -3.1384798     -40725237       1.3488528      7558.302      -40717679       763.82539      763.82539      763.82539      2118.0873      2881.9127      2118.0873      2881.9127      2118.0873      2881.9127      4.4563805e+08  0.1            14775320       0.59727938     533.76644      5337.6836      18.067769    
  38508400   2879.3627     -3.5614906     -40725488       1.3488528      8574.2505     -40716913       763.82539      763.82539      763.82539      2118.0873      2881.9127      2118.0873      2881.9127      2118.0873      2881.9127      4.4563805e+08  0.1            14775340       0.63454385     536.70556      5367.0378      18.028576    
  38508600   3261.9918     -4.0039066     -40725754       1.3488528      9713.6547     -40716040       763.82539      763.82539      763.82539      2118.0873      2881.9127      2118.0873      2881.9127      2118.0873      2881.9127      4.4563805e+08  0.1            14775360       0.67183194     536.3637       5363.6346      17.990229    
  38508800   3690.3798     -4.4669703     -40726037       1.3488528      10989.321     -40715047       763.82539      763.82539      763.82539      2118.0873      2881.9127      2118.0873      2881.9127      2118.0873      2881.9127      4.4563805e+08  0.1            14775380       0.70915136     535.9131       5359.1303      17.952787    
  38509000   4168.8304     -4.9546333     -40726337       1.3488528      12414.065     -40713923       763.82539      763.82539      763.82539      2118.0873      2881.9127      2118.0873      2881.9127      2118.0873      2881.9127      4.4563805e+08  0.1            14775400       0.74652252     535.17303      5351.7314      17.916595    
  38509200   4702.6507     -5.4731725     -40726655       1.3488528      14003.691     -40712651       763.82539      763.82539      763.82539      2118.0873      2881.9127      2118.0873      2881.9127      2118.0873      2881.9127      4.4563805e+08  0.1            14775420       0.78377761     536.8385       5368.3875      17.877651    
  38509400   5296.7745     -6.032403      -40726992       1.3488528      15772.89      -40711219       763.82539      763.82539      763.82539      2118.0873      2881.9127      2118.0873      2881.9127      2118.0873      2881.9127      4.4563805e+08  0.1            14775440       0.82104505     536.66184      5366.6193      17.839121    
  38509600   5956.4836     -6.6372399     -40727349       1.3488528      17737.391     -40709611       763.82539      763.82539      763.82539      2118.0873      2881.9127      2118.0873      2881.9127      2118.0873      2881.9127      4.4563805e+08  0.1            14775460       0.85827584     537.19001      5371.901       17.799942    
  38509800   6687.1558     -7.2846249     -40727726       1.3488528      19913.208     -40707813       763.82539      763.82539      763.82539      2118.0873      2881.9127      2118.0873      2881.9127      2118.0873      2881.9127      4.4563805e+08  0.1            14775480       0.89590033     531.56786      5315.6764      17.768737    
  38510000   7493.848      -7.9613774     -40728126       1.3488528      22315.4       -40705811       763.82539      763.82539      763.82539      2118.0873      2881.9127      2118.0873      2881.9127      2118.0873      2881.9127      4.4563805e+08  0.1            14775500       0.9332185      535.93311      5359.3252      17.731196    
  38510200   8382.2191     -8.5209483     -40726653       1.3488528      24960.817     -40701692       763.82539      763.82539      763.82539      2118.0873      2881.9127      2118.0873      2881.9127      2118.0873      2881.9127      4.4563805e+08  0.1            14775520       0.97044822     537.20287      5372.0306      17.692063    
  38510400   9356.8676     -9.1982735     -40727099       1.3488528      27863.154     -40699236       763.82539      763.82539      763.82539      2118.0873      2881.9127      2118.0873      2881.9127      2118.0873      2881.9127      4.4563805e+08  0.1            14775540       1.0077136      536.69345      5366.9403      17.65369     
  38510600   10421.969     -9.8469674     -40727568       1.3488528      31034.844     -40696533       763.82539      763.82539      763.82539      2118.0873      2881.9127      2118.0873      2881.9127      2118.0873      2881.9127      4.4563805e+08  0.1            14775560       1.0449796      536.68258      5366.8239      17.615408    
  38510800   11580.843     -10.158354     -40720685       1.3488528      34485.774     -40686199       763.82539      763.82539      763.82539      2118.0873      2881.9127      2118.0873      2881.9127      2118.0873      2881.9127      4.4563805e+08  0.1            14775580       1.0822179      537.08075      5370.8124      17.576748    
  38511000   12835.388     -10.736273     -40721204       1.3488528      38221.594     -40682982       763.82539      763.82539      763.82539      2118.0873      2881.9127      2118.0873      2881.9127      2118.0873      2881.9127      4.4563805e+08  0.1            14775600       1.1194827      536.7012       5367.0117      17.538596    
  38511200   14186.592     -11.288565     -40721747       1.3488528      42245.247     -40679502       763.82539      763.82539      763.82539      2118.0873      2881.9127      2118.0873      2881.9127      2118.0873      2881.9127      4.4563805e+08  0.1            14775620       1.1567458      536.72395      5367.2355      17.500479    
  38511400   15632.968     -11.837927     -40722316       1.3488528      46552.309     -40675764       763.82539      763.82539      763.82539      2118.0873      2881.9127      2118.0873      2881.9127      2118.0873      2881.9127      4.4563805e+08  0.1            14775640       1.1939551      537.49885      5374.9856      17.461627    
  38511600   17170.833     -12.403827     -40722911       1.3488528      51131.808     -40671779       763.82539      763.82539      763.82539      2118.0873      2881.9127      2118.0873      2881.9127      2118.0873      2881.9127      4.4563805e+08  0.1            14775660       1.2311258      538.05829      5380.5875      17.422328    
  38511800   18793.668     -13.008947     -40723531       1.3488528      55964.334     -40667566       763.82539      763.82539      763.82539      2118.0873      2881.9127      2118.0873      2881.9127      2118.0873      2881.9127      4.4563805e+08  0.1            14775680       1.2682897      538.15704      5381.5704      17.38306     
  38512000   20491.39      -13.967356     -40731554       1.3488528      61019.86      -40670534       763.82539      763.82539      763.82539      2118.0873      2881.9127      2118.0873      2881.9127      2118.0873      2881.9127      4.4563805e+08  0.1            14775700       1.305521       537.18237      5371.8227      17.344809    
  38512200   22250.822     -14.671293     -40732224       1.3488528      66259.148     -40665965       763.82539      763.82539      763.82539      2118.0873      2881.9127      2118.0873      2881.9127      2118.0873      2881.9127      4.4563805e+08  0.1            14775720       1.3427814      536.76033      5367.6004      17.306992    
  38512400   24053.844     -15.426976     -40732918       1.3488528      71628.241     -40661289       763.82539      763.82539      763.82539      2118.0873      2881.9127      2118.0873      2881.9127      2118.0873      2881.9127      4.4563805e+08  0.1            14775740       1.3799866      537.56401      5375.6432      17.26851     
  38512600   25878.162     -16.255453     -40733635       1.3488528      77060.747     -40656575       763.82539      763.82539      763.82539      2118.0873      2881.9127      2118.0873      2881.9127      2118.0873      2881.9127      4.4563805e+08  0.1            14775760       1.4171595      538.02508      5380.2553      17.229703    
  38512800   27696.978     -17.719071     -40749132       1.3488528      82476.87      -40666655       763.82539      763.82539      763.82539      2118.0873      2881.9127      2118.0873      2881.9127      2118.0873      2881.9127      4.4563805e+08  0.1            14775780       1.4543918      537.16648      5371.6602      17.191684    
  38513000   29478.231     -18.556121     -40749895       1.3488528      87781.137     -40662114       763.82539      763.82539      763.82539      2118.0873      2881.9127      2118.0873      2881.9127      2118.0873      2881.9127      4.4563805e+08  0.1            14775800       1.4917366      535.55129      5355.5124      17.154996    
  38513200   31186.363     -19.332284     -40750675       1.3488528      92867.664     -40657808       763.82539      763.82539      763.82539      2118.0873      2881.9127      2118.0873      2881.9127      2118.0873      2881.9127      4.4563805e+08  0.1            14775820       1.52897        537.15089      5370.3345      17.117123    
  38513400   32782.156     -20.160778     -40753367       1.3488528      97619.664     -40655747       763.82539      763.82539      763.82539      2118.0873      2881.9127      2118.0873      2881.9127      2118.0873      2881.9127      4.4563805e+08  0.1            14775840       1.5661882      537.37375      5374.9131      17.078933    
  38513600   34225.416     -20.52635      -40746797       1.3488528      101917.44     -40644880       763.82539      763.82539      763.82539      2118.0873      2881.9127      2118.0873      2881.9127      2118.0873      2881.9127      4.4563805e+08  0.1            14775860       1.60337        537.8959       5378.9526      17.040492    
  38513800   35477.956     -21.218576     -40747616       1.3488528      105647.3      -40641968       763.82539      763.82539      763.82539      2118.0873      2881.9127      2118.0873      2881.9127      2118.0873      2881.9127      4.4563805e+08  0.1            14775880       1.6406563      536.39026      5363.9116      17.003188    
  38514000   36506.926     -22.029224     -40748442       1.3488528      108711.39     -40639730       763.82539      763.82539      763.82539      2118.0873      2881.9127      2118.0873      2881.9127      2118.0873      2881.9127      4.4563805e+08  0.1            14775900       1.6779289      536.58779      5365.8756      16.965748    
  38514200   37291.165     -23.033852     -40749273       1.3488528      111046.72     -40638227       763.82539      763.82539      763.82539      2118.0873      2881.9127      2118.0873      2881.9127      2118.0873      2881.9127      4.4563805e+08  0.1            14775920       1.715125       537.69035      5376.8734      16.927562    
  38514400   37825.054     -23.966042     -40742731       1.3488528      112636.55     -40630094       763.82539      763.82539      763.82539      2118.0873      2881.9127      2118.0873      2881.9127      2118.0873      2881.9127      4.4563805e+08  0.1            14775940       1.7524544      535.77017      5357.7323      16.890699    
  38514600   38123.653     -25.566073     -40743567       1.3488528      113525.73     -40630041       763.82539      763.82539      763.82539      2118.0873      2881.9127      2118.0873      2881.9127      2118.0873      2881.9127      4.4563805e+08  0.1            14775960       1.7897386      536.42119      5364.2113      16.853392    
  38514800   38224.258     -27.345844     -40742508       1.3488528      113825.31     -40628682       763.82539      763.82539      763.82539      2118.0873      2881.9127      2118.0873      2881.9127      2118.0873      2881.9127      4.4563805e+08  0.1            14775980       1.8270084      536.62755      5366.2433      16.815957    
  38515000   38182.377     -29.275643     -40743339       1.3488528      113700.6      -40629639       763.82539      763.82539      763.82539      2118.0873      2881.9127      2118.0873      2881.9127      2118.0873      2881.9127      4.4563805e+08  0.1            14776000       1.864246       537.09068      5370.945       16.778234    
  38515200   38065.5       -30.765375     -40736786       1.3488528      113352.56     -40623433       763.82539      763.82539      763.82539      2118.0873      2881.9127      2118.0873      2881.9127      2118.0873      2881.9127      4.4563805e+08  0.1            14776020       1.9014612      537.41427      5374.1374      16.740335    
  38515400   37943.708     -32.687924     -40743084       1.3488528      112989.88     -40630094       763.82539      763.82539      763.82539      2118.0873      2881.9127      2118.0873      2881.9127      2118.0873      2881.9127      4.4563805e+08  0.1            14776040       1.9386911      537.20237      5372.0143      16.70259     
  38515600   37883.818     -34.528801     -40743891       1.3488528      112811.54     -40631080       763.82539      763.82539      763.82539      2118.0873      2881.9127      2118.0873      2881.9127      2118.0873      2881.9127      4.4563805e+08  0.1            14776060       1.9758348      538.44949      5384.5032      16.664136    
  38515800   37944.749     -36.290403     -40744694       1.3488528      112992.98     -40631701       763.82539      763.82539      763.82539      2118.0873      2881.9127      2118.0873      2881.9127      2118.0873      2881.9127      4.4563805e+08  0.1            14776080       2.0130877      536.87155      5368.7124      16.626632    
  38516000   38174.987     -37.803618     -40745493       1.3488528      113678.59     -40631814       763.82539      763.82539      763.82539      2118.0873      2881.9127      2118.0873      2881.9127      2118.0873      2881.9127      4.4563805e+08  0.1            14776100       2.0503544      536.67178      5366.7202      16.58925     
  38516200   38612.643     -39.248704     -40748185       1.3488528      114981.86     -40633203       763.82539      763.82539      763.82539      2118.0873      2881.9127      2118.0873      2881.9127      2118.0873      2881.9127      4.4563805e+08  0.1            14776120       2.0876085      536.85311      5368.5327      16.551772    
  38516400   39282.52      -40.456544     -40748982       1.3488528      116976.64     -40632005       763.82539      763.82539      763.82539      2118.0873      2881.9127      2118.0873      2881.9127      2118.0873      2881.9127      4.4563805e+08  0.1            14776140       2.1248538      536.98172      5369.818       16.514232    
  38516600   40193.002     -41.197272     -40742404       1.3488528      119687.9      -40622716       763.82539      763.82539      763.82539      2118.0873      2881.9127      2118.0873      2881.9127      2118.0873      2881.9127      4.4563805e+08  0.1            14776160       2.162984       524.51866      5245.1866      16.483447    
  38516800   41332.9       -42.105352     -40743206       1.3488528      123082.32     -40620123       763.82539      763.82539      763.82539      2118.0873      2881.9127      2118.0873      2881.9127      2118.0873      2881.9127      4.4563805e+08  0.1            14776180       2.200187       537.5897       5375.8854      16.445484    
  38517000   42670.831     -42.694095     -40736635       1.3488528      127066.45     -40609568       763.82539      763.82539      763.82539      2118.0873      2881.9127      2118.0873      2881.9127      2118.0873      2881.9127      4.4563805e+08  0.1            14776200       2.2376075      534.46663      5344.6537      16.40914     
  38517200   44158.934     -43.595038     -40737449       1.3488528      131497.76     -40605951       763.82539      763.82539      763.82539      2118.0873      2881.9127      2118.0873      2881.9127      2118.0873      2881.9127      4.4563805e+08  0.1            14776220       2.2748054      537.66501      5376.6741      16.371157    
  38517400   45736.397     -44.489136     -40738271       1.3488528      136195.18     -40602076       763.82539      763.82539      763.82539      2118.0873      2881.9127      2118.0873      2881.9127      2118.0873      2881.9127      4.4563805e+08  0.1            14776240       2.3120108      537.5563       5375.5681      16.333254    
  38517600   47336.843     -45.604086     -40740995       1.3488528      140961.04     -40600034       763.82539      763.82539      763.82539      2118.0873      2881.9127      2118.0873      2881.9127      2118.0873      2881.9127      4.4563805e+08  0.1            14776260       2.3492762      536.69073      5366.9109      16.295789    
  38517800   48894.255     -46.6797       -40741829       1.3488528      145598.74     -40596230       763.82539      763.82539      763.82539      2118.0873      2881.9127      2118.0873      2881.9127      2118.0873      2881.9127      4.4563805e+08  0.1            14776280       2.3865627      536.38702      5363.8758      16.258474    
  38518000   50346.578     -47.92971      -40744563       1.3488528      149923.51     -40594640       763.82539      763.82539      763.82539      2118.0873      2881.9127      2118.0873      2881.9127      2118.0873      2881.9127      4.4563805e+08  0.1            14776300       2.4237894      537.25104      5372.4958      16.220759    
  38518200   51639.711     -48.864465     -40743513       1.3488528      153774.24     -40589739       763.82539      763.82539      763.82539      2118.0873      2881.9127      2118.0873      2881.9127      2118.0873      2881.9127      4.4563805e+08  0.1            14776320       2.4610267      537.09384      5370.934       16.18313     
  38518400   52728.398     -49.838442     -40744359       1.3488528      157016.17     -40587343       763.82539      763.82539      763.82539      2118.0873      2881.9127      2118.0873      2881.9127      2118.0873      2881.9127      4.4563805e+08  0.1            14776340       2.4982607      537.14474      5371.4549      16.14549     
  38518600   53581.628     -50.926671     -40745205       1.3488528      159556.94     -40585648       763.82539      763.82539      763.82539      2118.0873      2881.9127      2118.0873      2881.9127      2118.0873      2881.9127      4.4563805e+08  0.1            14776360       2.5353734      538.89828      5388.9773      16.107093    
  38518800   54187.031     -51.837037     -40738669       1.3488528      161359.72     -40577309       763.82539      763.82539      763.82539      2118.0873      2881.9127      2118.0873      2881.9127      2118.0873      2881.9127      4.4563805e+08  0.1            14776380       2.5725899      537.39599      5373.9615      16.06938     
  38519000   54552.442     -52.932349     -40737612       1.3488528      162447.86     -40575164       763.82539      763.82539      763.82539      2118.0873      2881.9127      2118.0873      2881.9127      2118.0873      2881.9127      4.4563805e+08  0.1            14776400       2.6098433      536.86348      5368.6339      16.031909    
  38519200   54708.363     -54.524461     -40743926       1.3488528      162912.16     -40581014       763.82539      763.82539      763.82539      2118.0873      2881.9127      2118.0873      2881.9127      2118.0873      2881.9127      4.4563805e+08  0.1            14776420       2.6470826      537.06662      5370.6603      15.994358    
  38519400   54704.221     -56.161609     -40744751       1.3488528      162899.83     -40581851       763.82539      763.82539      763.82539      2118.0873      2881.9127      2118.0873      2881.9127      2118.0873      2881.9127      4.4563805e+08  0.1            14776440       2.6842002      538.8242       5388.2206      15.956095    
  38519600   54602.777     -57.82213      -40745568       1.3488528      162597.74     -40582970       763.82539      763.82539      763.82539      2118.0873      2881.9127      2118.0873      2881.9127      2118.0873      2881.9127      4.4563805e+08  0.1            14776460       2.721306       539.0029       5390.0612      15.91779     
  38519800   54473.093     -59.430099     -40746377       1.3488528      162211.57     -40584165       763.82539      763.82539      763.82539      2118.0873      2881.9127      2118.0873      2881.9127      2118.0873      2881.9127      4.4563805e+08  0.1            14776480       2.758528       537.31752      5373.1723      15.880188    
  38520000   54383.52      -60.93618      -40747176       1.3488528      161944.84     -40585231       763.82539      763.82539      763.82539      2118.0873      2881.9127      2118.0873      2881.9127      2118.0873      2881.9127      4.4563805e+08  0.1            14776500       2.795705       537.96524      5379.6503      15.842342    
  38520200   54396.989     -62.329602     -40747965       1.3488528      161984.95     -40585980       763.82539      763.82539      763.82539      2118.0873      2881.9127      2118.0873      2881.9127      2118.0873      2881.9127      4.4563805e+08  0.1            14776520       2.8328656      538.2057       5382.0569      15.804421    
  38520400   54567.354     -63.716607     -40748744       1.3488528      162492.26     -40586252       763.82539      763.82539      763.82539      2118.0873      2881.9127      2118.0873      2881.9127      2118.0873      2881.9127      4.4563805e+08  0.1            14776540       2.870041       537.99023      5379.9152      15.766601    
  38520600   54937.669     -65.020522     -40749516       1.3488528      163595        -40585921       763.82539      763.82539      763.82539      2118.0873      2881.9127      2118.0873      2881.9127      2118.0873      2881.9127      4.4563805e+08  0.1            14776560       2.9075584      533.08624      5330.8496      15.730649    
  38520800   55537.561     -66.25399      -40750282       1.3488528      165381.37     -40584901       763.82539      763.82539      763.82539      2118.0873      2881.9127      2118.0873      2881.9127      2118.0873      2881.9127      4.4563805e+08  0.1            14776580       2.9447412      537.8794       5378.7943      15.692875    
  38521000   56380.889     -67.100558     -40741773       1.3488528      167892.66     -40573880       763.82539      763.82539      763.82539      2118.0873      2881.9127      2118.0873      2881.9127      2118.0873      2881.9127      4.4563805e+08  0.1            14776600       2.9819522      537.48003      5374.8059      15.65526     
  38521200   57463.905     -68.410089     -40744431       1.3488528      171117.7      -40573314       763.82539      763.82539      763.82539      2118.0873      2881.9127      2118.0873      2881.9127      2118.0873      2881.9127      4.4563805e+08  0.1            14776620       3.0191952      537.01302      5370.1387      15.617823    
  38521400   58762.061     -69.151205     -40744827       1.3488528      174983.38     -40569844       763.82539      763.82539      763.82539      2118.0873      2881.9127      2118.0873      2881.9127      2118.0873      2881.9127      4.4563805e+08  0.1            14776640       3.0564317      537.1079       5371.0748      15.580358    
  38521600   60231.229     -69.757935     -40745588       1.3488528      179358.31     -40566229       763.82539      763.82539      763.82539      2118.0873      2881.9127      2118.0873      2881.9127      2118.0873      2881.9127      4.4563805e+08  0.1            14776660       3.093669       537.09474      5370.9382      15.542903    
  38521800   61813.755     -71.035762     -40761101       1.3488528      184070.81     -40577030       763.82539      763.82539      763.82539      2118.0873      2881.9127      2118.0873      2881.9127      2118.0873      2881.9127      4.4563805e+08  0.1            14776680       3.1309165      536.94903      5369.4869      15.505503    
  38522000   63443.751     -71.983043     -40761859       1.3488528      188924.66     -40572934       763.82539      763.82539      763.82539      2118.0873      2881.9127      2118.0873      2881.9127      2118.0873      2881.9127      4.4563805e+08  0.1            14776700       3.1681941      536.51631      5365.1658      15.468252    
  38522200   65051.584     -72.936786     -40762617       1.3488528      193712.51     -40568904       763.82539      763.82539      763.82539      2118.0873      2881.9127      2118.0873      2881.9127      2118.0873      2881.9127      4.4563805e+08  0.1            14776720       3.2062199      525.95709      5259.5457      15.434605    
  38522400   66568.238     -73.715249     -40763374       1.3488528      198228.85     -40565145       763.82539      763.82539      763.82539      2118.0873      2881.9127      2118.0873      2881.9127      2118.0873      2881.9127      4.4563805e+08  0.1            14776740       3.2434716      536.88922      5368.9063      15.397181    
  38522600   67930.969     -74.488762     -40764127       1.3488528      202286.83     -40561840       763.82539      763.82539      763.82539      2118.0873      2881.9127      2118.0873      2881.9127      2118.0873      2881.9127      4.4563805e+08  0.1            14776760       3.2807426      536.61068      5366.1187      15.359851    
  38522800   69088.386     -75.455325     -40764876       1.3488528      205733.42     -40559142       763.82539      763.82539      763.82539      2118.0873      2881.9127      2118.0873      2881.9127      2118.0873      2881.9127      4.4563805e+08  0.1            14776780       3.3179485      537.54907      5375.4902      15.322222    
  38523000   70003.987     -76.398142     -40765619       1.3488528      208459.92     -40557159       763.82539      763.82539      763.82539      2118.0873      2881.9127      2118.0873      2881.9127      2118.0873      2881.9127      4.4563805e+08  0.1            14776800       3.3552813      535.72172      5357.226       15.285181    
  38523200   70660.182     -77.105502     -40766354       1.3488528      210413.96     -40555940       763.82539      763.82539      763.82539      2118.0873      2881.9127      2118.0873      2881.9127      2118.0873      2881.9127      4.4563805e+08  0.1            14776820       3.3925059      537.27718      5372.7608      15.247647    
  38523400   71060.196     -78.098011     -40774455       1.3488528      211605.13     -40562850       763.82539      763.82539      763.82539      2118.0873      2881.9127      2118.0873      2881.9127      2118.0873      2881.9127      4.4563805e+08  0.1            14776840       3.4296854      537.9328       5379.328       15.209919    
  38523600   71231.07      -79.069001     -40775168       1.3488528      212113.96     -40563054       763.82539      763.82539      763.82539      2118.0873      2881.9127      2118.0873      2881.9127      2118.0873      2881.9127      4.4563805e+08  0.1            14776860       3.4668916      537.54418      5375.4437      15.172321    
  38523800   71220.659     -80.173703     -40775871       1.3488528      212082.96     -40563788       763.82539      763.82539      763.82539      2118.0873      2881.9127      2118.0873      2881.9127      2118.0873      2881.9127      4.4563805e+08  0.1            14776880       3.5041058      537.43034      5374.3047      15.134765    
  38524000   71091.267     -80.988293     -40769185       1.3488528      211697.65     -40557488       763.82539      763.82539      763.82539      2118.0873      2881.9127      2118.0873      2881.9127      2118.0873      2881.9127      4.4563805e+08  0.1            14776900       3.5413957      536.33784      5363.3783      15.097539    
  38524200   70914.586     -82.246061     -40769498       1.3488528      211171.53     -40558326       763.82539      763.82539      763.82539      2118.0873      2881.9127      2118.0873      2881.9127      2118.0873      2881.9127      4.4563805e+08  0.1            14776920       3.5786331      537.09547      5370.949       15.06009     
  38524400   70763.49      -83.637267     -40770167       1.3488528      210721.59     -40559446       763.82539      763.82539      763.82539      2118.0873      2881.9127      2118.0873      2881.9127      2118.0873      2881.9127      4.4563805e+08  0.1            14776940       3.6158341      537.61948      5376.2033      15.022495    
  38524600   70705.947     -84.786152     -40770823       1.3488528      210550.24     -40560272       763.82539      763.82539      763.82539      2118.0873      2881.9127      2118.0873      2881.9127      2118.0873      2881.9127      4.4563805e+08  0.1            14776960       3.6530843      536.90883      5369.0859      14.98511     
  38524800   70802.01      -86.269586     -40778841       1.3488528      210836.3      -40568004       763.82539      763.82539      763.82539      2118.0873      2881.9127      2118.0873      2881.9127      2118.0873      2881.9127      4.4563805e+08  0.1            14776980       3.6903072      537.30417      5373.0391      14.947617    
  38525000   71101.032     -87.105077     -40772092       1.3488528      211726.73     -40560366       763.82539      763.82539      763.82539      2118.0873      2881.9127      2118.0873      2881.9127      2118.0873      2881.9127      4.4563805e+08  0.1            14777000       3.7274938      537.82853      5378.2871      14.909984    
  38525200   71638.594     -88.000917     -40772714       1.3488528      213327.5      -40559386       763.82539      763.82539      763.82539      2118.0873      2881.9127      2118.0873      2881.9127      2118.0873      2881.9127      4.4563805e+08  0.1            14777020       3.7647668      536.57957      5365.795       14.872702    
  38525400   72432.301     -88.64823      -40773328       1.3488528      215691.03     -40557637       763.82539      763.82539      763.82539      2118.0873      2881.9127      2118.0873      2881.9127      2118.0873      2881.9127      4.4563805e+08  0.1            14777040       3.801925       538.24007      5382.4038      14.834971    
  38525600   73480.608     -89.009575     -40773935       1.3488528      218812.7      -40555122       763.82539      763.82539      763.82539      2118.0873      2881.9127      2118.0873      2881.9127      2118.0873      2881.9127      4.4563805e+08  0.1            14777060       3.8391275      537.59935      5375.986       14.797423    
  38525800   74761.994     -89.361462     -40776428       1.3488528      222628.45     -40553800       763.82539      763.82539      763.82539      2118.0873      2881.9127      2118.0873      2881.9127      2118.0873      2881.9127      4.4563805e+08  0.1            14777080       3.8762854      538.23818      5382.3951      14.759712    
  38526000   76235.039     -89.732959     -40779282       1.3488528      227014.93     -40552267       763.82539      763.82539      763.82539      2118.0873      2881.9127      2118.0873      2881.9127      2118.0873      2881.9127      4.4563805e+08  0.1            14777100       3.9135227      537.10145      5371.0099      14.722308    
  38526200   77842.753     -89.850911     -40779493       1.3488528      231802.43     -40547690       763.82539      763.82539      763.82539      2118.0873      2881.9127      2118.0873      2881.9127      2118.0873      2881.9127      4.4563805e+08  0.1            14777120       3.9507432      537.3372       5373.3763      14.684846    
  38526400   79517.04      -89.925215     -40772687       1.3488528      236788.17     -40535899       763.82539      763.82539      763.82539      2118.0873      2881.9127      2118.0873      2881.9127      2118.0873      2881.9127      4.4563805e+08  0.1            14777140       3.9879976      536.85141      5368.5203      14.647513    
  38526600   81185.079     -90.470676     -40775151       1.3488528      241755.3      -40533396       763.82539      763.82539      763.82539      2118.0873      2881.9127      2118.0873      2881.9127      2118.0873      2881.9127      4.4563805e+08  0.1            14777160       4.0252093      537.46385      5374.6293      14.610027    
  38526800   82772.875     -90.744617     -40768338       1.3488528      246483.49     -40521855       763.82539      763.82539      763.82539      2118.0873      2881.9127      2118.0873      2881.9127      2118.0873      2881.9127      4.4563805e+08  0.1            14777180       4.0632896      525.20419      5252.0328      14.575663    
  38527000   84211.208     -91.302263     -40767001       1.3488528      250766.6      -40516234       763.82539      763.82539      763.82539      2118.0873      2881.9127      2118.0873      2881.9127      2118.0873      2881.9127      4.4563805e+08  0.1            14777200       4.1005887      536.20779      5362.0902      14.538459    
  38527200   85441.908     -91.911233     -40767545       1.3488528      254431.41     -40513113       763.82539      763.82539      763.82539      2118.0873      2881.9127      2118.0873      2881.9127      2118.0873      2881.9127      4.4563805e+08  0.1            14777220       4.1378313      537.01919      5370.1918      14.501056    
  38527400   86422.995     -93.015225     -40775453       1.3488528      257352.92     -40518100       763.82539      763.82539      763.82539      2118.0873      2881.9127      2118.0873      2881.9127      2118.0873      2881.9127      4.4563805e+08  0.1            14777240       4.1750841      536.87175      5368.7129      14.463692    
  38527600   87133.114     -94.153628     -40777867       1.3488528      259467.53     -40518399       763.82539      763.82539      763.82539      2118.0873      2881.9127      2118.0873      2881.9127      2118.0873      2881.9127      4.4563805e+08  0.1            14777260       4.2132127      524.54173      5245.4088      14.429329    
  38527800   87571.894     -95.432332     -40785752       1.3488528      260774.15     -40524978       763.82539      763.82539      763.82539      2118.0873      2881.9127      2118.0873      2881.9127      2118.0873      2881.9127      4.4563805e+08  0.1            14777280       4.2504285      537.40382      5374.0429      14.39181     
  38528000   87762.18      -96.820608     -40793623       1.3488528      261340.79     -40532282       763.82539      763.82539      763.82539      2118.0873      2881.9127      2118.0873      2881.9127      2118.0873      2881.9127      4.4563805e+08  0.1            14777300       4.2876888      536.76738      5367.6743      14.354444    
  38528200   87749.053     -97.809037     -40794102       1.3488528      261301.69     -40532801       763.82539      763.82539      763.82539      2118.0873      2881.9127      2118.0873      2881.9127      2118.0873      2881.9127      4.4563805e+08  0.1            14777320       4.3248151      538.70037      5387.005       14.316637    
  38528400   87594.177     -98.490472     -40800049       1.3488528      260840.5      -40539208       763.82539      763.82539      763.82539      2118.0873      2881.9127      2118.0873      2881.9127      2118.0873      2881.9127      4.4563805e+08  0.1            14777340       4.3634062      518.25042      5182.5045      14.283637    
  38528600   87370.383     -98.303018     -40793116       1.3488528      260174.08     -40532942       763.82539      763.82539      763.82539      2118.0873      2881.9127      2118.0873      2881.9127      2118.0873      2881.9127      4.4563805e+08  0.1            14777360       4.4006223      537.40514      5374.0477      14.24609     
  38528800   87155.969     -98.472466     -40799029       1.3488528      259535.59     -40539494       763.82539      763.82539      763.82539      2118.0873      2881.9127      2118.0873      2881.9127      2118.0873      2881.9127      4.4563805e+08  0.1            14777380       4.4378425      537.34429      5373.4385      14.208562    
  38529000   87025.174     -98.888655     -40806823       1.3488528      259146.11     -40547677       763.82539      763.82539      763.82539      2118.0873      2881.9127      2118.0873      2881.9127      2118.0873      2881.9127      4.4563805e+08  0.1            14777400       4.4751072      536.70077      5367.0105      14.17118     
  38529200   87046.123     -98.678937     -40799850       1.3488528      259208.49     -40540642       763.82539      763.82539      763.82539      2118.0873      2881.9127      2118.0873      2881.9127      2118.0873      2881.9127      4.4563805e+08  0.1            14777420       4.5123333      537.25684      5372.5742      14.133679    
  38529400   87272.329     -98.43314      -40792863       1.3488528      259882.09     -40532981       763.82539      763.82539      763.82539      2118.0873      2881.9127      2118.0873      2881.9127      2118.0873      2881.9127      4.4563805e+08  0.1            14777440       4.5496491      535.96597      5359.6677      14.096461    
  38529600   87742.976     -98.777034     -40795133       1.3488528      261283.6      -40533849       763.82539      763.82539      763.82539      2118.0873      2881.9127      2118.0873      2881.9127      2118.0873      2881.9127      4.4563805e+08  0.1            14777460       4.5869905      535.60029      5355.9922      14.059319    
  38529800   88481.093     -98.871546     -40795494       1.3488528      263481.59     -40532013       763.82539      763.82539      763.82539      2118.0873      2881.9127      2118.0873      2881.9127      2118.0873      2881.9127      4.4563805e+08  0.1            14777480       4.6242412      536.90047      5369.0044      14.0219      
  38530000   89489.777     -98.781728     -40795844       1.3488528      266485.27     -40529359       763.82539      763.82539      763.82539      2118.0873      2881.9127      2118.0873      2881.9127      2118.0873      2881.9127      4.4563805e+08  0.1            14777500       4.6615059      536.70032      5366.9799      13.984525    
  38530200   90750.987     -98.600164     -40796182       1.3488528      270240.94     -40525941       763.82539      763.82539      763.82539      2118.0873      2881.9127      2118.0873      2881.9127      2118.0873      2881.9127      4.4563805e+08  0.1            14777520       4.6986949      537.79397      5377.9667      13.946927    
  38530400   92224.969     -98.096019     -40788762       1.3488528      274630.21     -40514132       763.82539      763.82539      763.82539      2118.0873      2881.9127      2118.0873      2881.9127      2118.0873      2881.9127      4.4563805e+08  0.1            14777540       4.7358617      538.11156      5381.1233      13.90927     
  38530600   93853.907     -98.377146     -40796452       1.3488528      279480.91     -40516971       763.82539      763.82539      763.82539      2118.0873      2881.9127      2118.0873      2881.9127      2118.0873      2881.9127      4.4563805e+08  0.1            14777560       4.7730962      537.14077      5371.4106      13.871817    
  38530800   95567.387     -98.237557     -40789373       1.3488528      284583.36     -40504790       763.82539      763.82539      763.82539      2118.0873      2881.9127      2118.0873      2881.9127      2118.0873      2881.9127      4.4563805e+08  0.1            14777580       4.8102906      537.71554      5377.1439      13.834253    
  38531000   97287.594     -98.187035     -40789658       1.3488528      289705.84     -40499952       763.82539      763.82539      763.82539      2118.0873      2881.9127      2118.0873      2881.9127      2118.0873      2881.9127      4.4563805e+08  0.1            14777600       4.848334       525.71282      5257.1285      13.799111    
  38531200   98936.738     -97.991845     -40793717       1.3488528      294616.71     -40499101       763.82539      763.82539      763.82539      2118.0873      2881.9127      2118.0873      2881.9127      2118.0873      2881.9127      4.4563805e+08  0.1            14777620       4.8855629      537.21763      5372.1788      13.76163     
  38531400   100440.98     -97.311503     -40793967       1.3488528      299096.1      -40494871       763.82539      763.82539      763.82539      2118.0873      2881.9127      2118.0873      2881.9127      2118.0873      2881.9127      4.4563805e+08  0.1            14777640       4.922746       537.87924      5378.8026      13.724025    
  38531600   101738.67     -97.251288     -40794567       1.3488528      302960.38     -40491607       763.82539      763.82539      763.82539      2118.0873      2881.9127      2118.0873      2881.9127      2118.0873      2881.9127      4.4563805e+08  0.1            14777660       4.9600578      536.02351      5360.2234      13.686782    
  38531800   102784.52     -97.217924     -40794783       1.3488528      306074.76     -40488709       763.82539      763.82539      763.82539      2118.0873      2881.9127      2118.0873      2881.9127      2118.0873      2881.9127      4.4563805e+08  0.1            14777680       4.9973861      535.78652      5357.8652      13.649583    
  38532000   103551.1      -97.076366     -40794983       1.3488528      308357.49     -40486625       763.82539      763.82539      763.82539      2118.0873      2881.9127      2118.0873      2881.9127      2118.0873      2881.9127      4.4563805e+08  0.1            14777700       5.0346334      536.95187      5369.5156      13.612163    
  38532200   104035.7      -97.168246     -40797063       1.3488528      309800.54     -40487262       763.82539      763.82539      763.82539      2118.0873      2881.9127      2118.0873      2881.9127      2118.0873      2881.9127      4.4563805e+08  0.1            14777720       5.0719511      535.93852      5359.389       13.574934    
  38532400   104258.35     -97.197504     -40791754       1.3488528      310463.57     -40481290       763.82539      763.82539      763.82539      2118.0873      2881.9127      2118.0873      2881.9127      2118.0873      2881.9127      4.4563805e+08  0.1            14777740       5.109168       537.39163      5373.9108      13.537437    
  38532600   104260.52     -97.354288     -40792284       1.3488528      310470.02     -40481814       763.82539      763.82539      763.82539      2118.0873      2881.9127      2118.0873      2881.9127      2118.0873      2881.9127      4.4563805e+08  0.1            14777760       5.1463771      537.50155      5375.0318      13.499923    
  38532800   104101.35     -97.077069     -40790535       1.3488528      309996.05     -40480539       763.82539      763.82539      763.82539      2118.0873      2881.9127      2118.0873      2881.9127      2118.0873      2881.9127      4.4563805e+08  0.1            14777780       5.183642       536.69845      5366.9742      13.462558    
  38533000   103852.6      -96.763623     -40790660       1.3488528      309255.31     -40481405       763.82539      763.82539      763.82539      2118.0873      2881.9127      2118.0873      2881.9127      2118.0873      2881.9127      4.4563805e+08  0.1            14777800       5.22088        537.08567      5370.8566      13.425126    
  38533200   103593.99     -96.583729     -40790765       1.3488528      308485.2      -40482279       763.82539      763.82539      763.82539      2118.0873      2881.9127      2118.0873      2881.9127      2118.0873      2881.9127      4.4563805e+08  0.1            14777820       5.2580419      538.18343      5381.8292      13.387503    
  38533400   103404.92     -96.064306     -40783474       1.3488528      307922.2      -40475552       763.82539      763.82539      763.82539      2118.0873      2881.9127      2118.0873      2881.9127      2118.0873      2881.9127      4.4563805e+08  0.1            14777840       5.2952476      537.55463      5375.5456      13.349996    
  38533600   103357.13     -95.538659     -40781649       1.3488528      307779.88     -40473869       763.82539      763.82539      763.82539      2118.0873      2881.9127      2118.0873      2881.9127      2118.0873      2881.9127      4.4563805e+08  0.1            14777860       5.3324419      537.71687      5377.1758      13.312465    
  38533800   103510.1      -95.286621     -40781697       1.3488528      308235.42     -40473461       763.82539      763.82539      763.82539      2118.0873      2881.9127      2118.0873      2881.9127      2118.0873      2881.9127      4.4563805e+08  0.1            14777880       5.3697193      536.51727      5365.1704      13.275145    
  38534000   103910.75     -95.189043     -40779834       1.3488528      309428.47     -40470405       763.82539      763.82539      763.82539      2118.0873      2881.9127      2118.0873      2881.9127      2118.0873      2881.9127      4.4563805e+08  0.1            14777900       5.4069303      537.47723      5374.7682      13.237662    
  38534200   104588.07     -95.183119     -40783642       1.3488528      311445.42     -40472197       763.82539      763.82539      763.82539      2118.0873      2881.9127      2118.0873      2881.9127      2118.0873      2881.9127      4.4563805e+08  0.1            14777920       5.4441425      537.45776      5374.58        13.200187    
  38534400   105548.25     -94.277643     -40783647       1.3488528      314304.68     -40469342       763.82539      763.82539      763.82539      2118.0873      2881.9127      2118.0873      2881.9127      2118.0873      2881.9127      4.4563805e+08  0.1            14777940       5.4813588      537.39831      5373.9868      13.162724    
  38534600   106775.23     -93.300167     -40791013       1.3488528      317958.4      -40473054       763.82539      763.82539      763.82539      2118.0873      2881.9127      2118.0873      2881.9127      2118.0873      2881.9127      4.4563805e+08  0.1            14777960       5.5185616      537.59462      5375.9455      13.125233    
  38534800   108232.4      -92.207024     -40798364       1.3488528      322297.61     -40476067       763.82539      763.82539      763.82539      2118.0873      2881.9127      2118.0873      2881.9127      2118.0873      2881.9127      4.4563805e+08  0.1            14777980       5.5566598      524.95679      5249.5578      13.089855    
  38535000   109862.56     -90.430945     -40790574       1.3488528      327151.93     -40463422       763.82539      763.82539      763.82539      2118.0873      2881.9127      2118.0873      2881.9127      2118.0873      2881.9127      4.4563805e+08  0.1            14778000       5.5939845      535.84169      5358.421       13.052636    
  38535200   111594.58     -89.105232     -40783132       1.3488528      332309.61     -40450823       763.82539      763.82539      763.82539      2118.0873      2881.9127      2118.0873      2881.9127      2118.0873      2881.9127      4.4563805e+08  0.1            14778020       5.6312524      536.65346      5366.5344      13.015284    
  38535400   113349.9      -88.205746     -40783051       1.3488528      337536.64     -40445514       763.82539      763.82539      763.82539      2118.0873      2881.9127      2118.0873      2881.9127      2118.0873      2881.9127      4.4563805e+08  0.1            14778040       5.6684824      537.20027      5372.0094      12.977847    
  38535600   115047.47     -87.287761     -40782581       1.3488528      342591.73     -40439990       763.82539      763.82539      763.82539      2118.0873      2881.9127      2118.0873      2881.9127      2118.0873      2881.9127      4.4563805e+08  0.1            14778060       5.7057372      536.84366      5368.4363      12.940468    
  38535800   116610.92     -86.451273     -40782461       1.3488528      347247.41     -40435213       763.82539      763.82539      763.82539      2118.0873      2881.9127      2118.0873      2881.9127      2118.0873      2881.9127      4.4563805e+08  0.1            14778080       5.7429841      536.95957      5369.5925      12.903073    
  38536000   117974.54     -85.617073     -40782321       1.3488528      351308.04     -40431013       763.82539      763.82539      763.82539      2118.0873      2881.9127      2118.0873      2881.9127      2118.0873      2881.9127      4.4563805e+08  0.1            14778100       5.7802566      536.58595      5365.8583      12.865738    
  38536200   119088.62     -85.11897      -40784058       1.3488528      354625.56     -40429432       763.82539      763.82539      763.82539      2118.0873      2881.9127      2118.0873      2881.9127      2118.0873      2881.9127      4.4563805e+08  0.1            14778120       5.8174789      537.31461      5373.1479      12.828292    
  38536400   119921.67     -84.330829     -40783883       1.3488528      357106.24     -40426777       763.82539      763.82539      763.82539      2118.0873      2881.9127      2118.0873      2881.9127      2118.0873      2881.9127      4.4563805e+08  0.1            14778140       5.8546836      537.56668      5375.6632      12.79081     
  38536600   120464.7      -82.915361     -40781796       1.3488528      358723.29     -40423073       763.82539      763.82539      763.82539      2118.0873      2881.9127      2118.0873      2881.9127      2118.0873      2881.9127      4.4563805e+08  0.1            14778160       5.8918854      537.60588      5376.0686      12.753327    
  38536800   120732.59     -80.883506     -40768728       1.3488528      359521.05     -40409207       763.82539      763.82539      763.82539      2118.0873      2881.9127      2118.0873      2881.9127      2118.0873      2881.9127      4.4563805e+08  0.1            14778180       5.9290673      537.89781      5378.9695      12.715803    
  38537000   120761.65     -79.815341     -40772090       1.3488528      359607.58     -40412482       763.82539      763.82539      763.82539      2118.0873      2881.9127      2118.0873      2881.9127      2118.0873      2881.9127      4.4563805e+08  0.1            14778200       5.966371       536.13875      5361.3988      12.678543    
  38537200   120610.83     -79.302867     -40771845       1.3488528      359158.47     -40412686       763.82539      763.82539      763.82539      2118.0873      2881.9127      2118.0873      2881.9127      2118.0873      2881.9127      4.4563805e+08  0.1            14778220       6.0036269      536.82808      5368.2807      12.641182    
  38537400   120352.14     -78.942995     -40778960       1.3488528      358388.13     -40420572       763.82539      763.82539      763.82539      2118.0873      2881.9127      2118.0873      2881.9127      2118.0873      2881.9127      4.4563805e+08  0.1            14778240       6.0408601      537.15439      5371.5445      12.603775    
  38537600   120066.29     -78.316599     -40782471       1.3488528      357536.9      -40424934       763.82539      763.82539      763.82539      2118.0873      2881.9127      2118.0873      2881.9127      2118.0873      2881.9127      4.4563805e+08  0.1            14778260       6.0780536      537.72799      5377.2853      12.566287    
  38537800   119834.67     -77.278707     -40782177       1.3488528      356847.18     -40425330       763.82539      763.82539      763.82539      2118.0873      2881.9127      2118.0873      2881.9127      2118.0873      2881.9127      4.4563805e+08  0.1            14778280       6.1152432      537.78684      5377.8528      12.528795    
  38538000   119732.37     -76.075389     -40774488       1.3488528      356542.57     -40417946       763.82539      763.82539      763.82539      2118.0873      2881.9127      2118.0873      2881.9127      2118.0873      2881.9127      4.4563805e+08  0.1            14778300       6.152539       536.2513       5362.5192      12.491523    
  38538200   119825.37     -75.976052     -40781539       1.3488528      356819.5      -40424720       763.82539      763.82539      763.82539      2118.0873      2881.9127      2118.0873      2881.9127      2118.0873      2881.9127      4.4563805e+08  0.1            14778320       6.1906481      524.80839      5248.0842      12.455887    
  38538400   120163.71     -75.639988     -40781196       1.3488528      357827.01     -40423369       763.82539      763.82539      763.82539      2118.0873      2881.9127      2118.0873      2881.9127      2118.0873      2881.9127      4.4563805e+08  0.1            14778340       6.2279082      536.7692       5367.6744      12.418528    
  38538600   120778.94     -74.798616     -40780835       1.3488528      359659.06     -40421175       763.82539      763.82539      763.82539      2118.0873      2881.9127      2118.0873      2881.9127      2118.0873      2881.9127      4.4563805e+08  0.1            14778360       6.2651263      537.37261      5373.7374      12.381088    
  38538800   121682.55     -73.442067     -40780455       1.3488528      362349.87     -40418106       763.82539      763.82539      763.82539      2118.0873      2881.9127      2118.0873      2881.9127      2118.0873      2881.9127      4.4563805e+08  0.1            14778380       6.3027146      532.08069      5320.8202      12.344374    
  38539000   122862.4      -71.890629     -40780057       1.3488528      365863.26     -40414194       763.82539      763.82539      763.82539      2118.0873      2881.9127      2118.0873      2881.9127      2118.0873      2881.9127      4.4563805e+08  0.1            14778400       6.3400421      535.79556      5357.9427      12.307145    
  38539200   124284.19     -70.238421     -40779637       1.3488528      370097.09     -40409540       763.82539      763.82539      763.82539      2118.0873      2881.9127      2118.0873      2881.9127      2118.0873      2881.9127      4.4563805e+08  0.1            14778420       6.3773111      536.64048      5366.4058      12.269802    
  38539400   125895.35     -68.708066     -40779200       1.3488528      374894.84     -40404305       763.82539      763.82539      763.82539      2118.0873      2881.9127      2118.0873      2881.9127      2118.0873      2881.9127      4.4563805e+08  0.1            14778440       6.4145187      537.52488      5375.2514      12.232342    
  38539600   127627.67     -66.671537     -40771374       1.3488528      380053.4      -40391321       763.82539      763.82539      763.82539      2118.0873      2881.9127      2118.0873      2881.9127      2118.0873      2881.9127      4.4563805e+08  0.1            14778460       6.4517638      536.98428      5369.8391      12.194957    
  38539800   129399.62     -64.399036     -40770907       1.3488528      385329.97     -40385577       763.82539      763.82539      763.82539      2118.0873      2881.9127      2118.0873      2881.9127      2118.0873      2881.9127      4.4563805e+08  0.1            14778480       6.4890122      536.93664      5369.3652      12.157579    
  38540000   131127.75     -61.736113     -40763040       1.3488528      390476.05     -40372564       763.82539      763.82539      763.82539      2118.0873      2881.9127      2118.0873      2881.9127      2118.0873      2881.9127      4.4563805e+08  0.1            14778500       6.5262977      536.4008       5364.0086      12.120271    
  38540200   132735.9      -59.250772     -40749672       1.3488528      395264.84     -40354407       763.82539      763.82539      763.82539      2118.0873      2881.9127      2118.0873      2881.9127      2118.0873      2881.9127      4.4563805e+08  0.1            14778520       6.5635565      536.78665      5367.8761      12.082915    
  38540400   134155.61     -57.574246     -40749150       1.3488528      399492.48     -40349657       763.82539      763.82539      763.82539      2118.0873      2881.9127      2118.0873      2881.9127      2118.0873      2881.9127      4.4563805e+08  0.1            14778540       6.6007081      538.33394      5383.3404      12.045364    
  38540600   135331.02     -55.941304     -40746711       1.3488528      402992.66     -40343718       763.82539      763.82539      763.82539      2118.0873      2881.9127      2118.0873      2881.9127      2118.0873      2881.9127      4.4563805e+08  0.1            14778560       6.6379709      536.62518      5366.2329      12.008032    
  38540800   136226.34     -54.493607     -40746143       1.3488528      405658.78     -40340485       763.82539      763.82539      763.82539      2118.0873      2881.9127      2118.0873      2881.9127      2118.0873      2881.9127      4.4563805e+08  0.1            14778580       6.6752084      537.19489      5371.9639      11.970629    
  38541000   136828.48     -53.121485     -40745555       1.3488528      407451.85     -40338103       763.82539      763.82539      763.82539      2118.0873      2881.9127      2118.0873      2881.9127      2118.0873      2881.9127      4.4563805e+08  0.1            14778600       6.7124632      536.84569      5368.4529      11.933272    
  38541200   137148.89     -52.392916     -40752328       1.3488528      408405.97     -40343922       763.82539      763.82539      763.82539      2118.0873      2881.9127      2118.0873      2881.9127      2118.0873      2881.9127      4.4563805e+08  0.1            14778620       6.7497017      537.07738      5370.7741      11.895887    
  38541400   137221.55     -51.054807     -40751708       1.3488528      408622.35     -40343086       763.82539      763.82539      763.82539      2118.0873      2881.9127      2118.0873      2881.9127      2118.0873      2881.9127      4.4563805e+08  0.1            14778640       6.7869201      537.36913      5373.6897      11.858469    
  38541600   137099.96     -49.198309     -40751074       1.3488528      408260.26     -40342813       763.82539      763.82539      763.82539      2118.0873      2881.9127      2118.0873      2881.9127      2118.0873      2881.9127      4.4563805e+08  0.1            14778660       6.8249116      526.4326       5264.3138      11.822392    
  38541800   136854.06     -47.289614     -40752319       1.3488528      407528.03     -40344791       763.82539      763.82539      763.82539      2118.0873      2881.9127      2118.0873      2881.9127      2118.0873      2881.9127      4.4563805e+08  0.1            14778680       6.8621544      537.01733      5370.1779      11.785008    
  38542000   136563.3      -45.520525     -40753552       1.3488528      406662.18     -40346890       763.82539      763.82539      763.82539      2118.0873      2881.9127      2118.0873      2881.9127      2118.0873      2881.9127      4.4563805e+08  0.1            14778700       6.8994332      536.49965      5365           11.747687    
  38542200   136310.88     -43.742126     -40750985       1.3488528      405910.51     -40345074       763.82539      763.82539      763.82539      2118.0873      2881.9127      2118.0873      2881.9127      2118.0873      2881.9127      4.4563805e+08  0.1            14778720       6.9366751      537.02786      5370.2774      11.710305    
  38542400   136174.15     -42.157259     -40750301       1.3488528      405503.37     -40344797       763.82539      763.82539      763.82539      2118.0873      2881.9127      2118.0873      2881.9127      2118.0873      2881.9127      4.4563805e+08  0.1            14778740       6.9740169      535.59286      5355.9325      11.673091    
  38542600   136221.44     -40.54689      -40749606       1.3488528      405644.19     -40343961       763.82539      763.82539      763.82539      2118.0873      2881.9127      2118.0873      2881.9127      2118.0873      2881.9127      4.4563805e+08  0.1            14778760       7.0113076      536.32608      5363.2606      11.635791    
  38542800   136507.77     -39.019499     -40756280       1.3488528      406496.84     -40349783       763.82539      763.82539      763.82539      2118.0873      2881.9127      2118.0873      2881.9127      2118.0873      2881.9127      4.4563805e+08  0.1            14778780       7.0485271      537.35272      5373.5267      11.598374    
  38543000   137067.84     -36.967842     -40750080       1.3488528      408164.62     -40341916       763.82539      763.82539      763.82539      2118.0873      2881.9127      2118.0873      2881.9127      2118.0873      2881.9127      4.4563805e+08  0.1            14778800       7.0857908      536.71639      5367.1632      11.561031    
  38543200   137916.53     -35.245104     -40749348       1.3488528      410691.87     -40338656       763.82539      763.82539      763.82539      2118.0873      2881.9127      2118.0873      2881.9127      2118.0873      2881.9127      4.4563805e+08  0.1            14778820       7.1233333      532.72766      5327.2886      11.52414     
  38543400   139046.83     -33.247492     -40748604       1.3488528      414057.72     -40334546       763.82539      763.82539      763.82539      2118.0873      2881.9127      2118.0873      2881.9127      2118.0873      2881.9127      4.4563805e+08  0.1            14778840       7.1606112      536.51275      5365.1212      11.486817    
  38543600   140428.28     -31.007313     -40747846       1.3488528      418171.45     -40329675       763.82539      763.82539      763.82539      2118.0873      2881.9127      2118.0873      2881.9127      2118.0873      2881.9127      4.4563805e+08  0.1            14778860       7.1979516      535.61198      5356.0992      11.449595    
  38543800   142009.53     -28.520774     -40747076       1.3488528      422880.12     -40324196       763.82539      763.82539      763.82539      2118.0873      2881.9127      2118.0873      2881.9127      2118.0873      2881.9127      4.4563805e+08  0.1            14778880       7.2354068      533.97079      5339.7282      11.412553    
  38544000   143722.48     -26.512625     -40753670       1.3488528      427981        -40325689       763.82539      763.82539      763.82539      2118.0873      2881.9127      2118.0873      2881.9127      2118.0873      2881.9127      4.4563805e+08  0.1            14778900       7.2727109      536.13526      5361.3407      11.375269    
  38544200   145490.3      -24.841709     -40760253       1.3488528      433245.27     -40327008       763.82539      763.82539      763.82539      2118.0873      2881.9127      2118.0873      2881.9127      2118.0873      2881.9127      4.4563805e+08  0.1            14778920       7.3099845      536.57365      5365.7459      11.337939    
  38544400   147230.28     -23.093487     -40761340       1.3488528      438426.64     -40322913       763.82539      763.82539      763.82539      2118.0873      2881.9127      2118.0873      2881.9127      2118.0873      2881.9127      4.4563805e+08  0.1            14778940       7.3473105      535.81803      5358.1832      11.300689    
  38544600   148862.2      -21.164238     -40760515       1.3488528      443286.22     -40317228       763.82539      763.82539      763.82539      2118.0873      2881.9127      2118.0873      2881.9127      2118.0873      2881.9127      4.4563805e+08  0.1            14778960       7.384644       535.7106       5357.1067      11.263451    
  38544800   150316.27     -19.236309     -40759673       1.3488528      447616.18     -40312057       763.82539      763.82539      763.82539      2118.0873      2881.9127      2118.0873      2881.9127      2118.0873      2881.9127      4.4563805e+08  0.1            14778980       7.42195        536.10459      5361.0403      11.226169    
  38545000   151536.97     -17.366537     -40764302       1.3488528      451251.23     -40313051       763.82539      763.82539      763.82539      2118.0873      2881.9127      2118.0873      2881.9127      2118.0873      2881.9127      4.4563805e+08  0.1            14779000       7.4601706      523.27934      5232.7873      11.19026     
  38545200   152486.53     -15.394329     -40763436       1.3488528      454078.85     -40309357       763.82539      763.82539      763.82539      2118.0873      2881.9127      2118.0873      2881.9127      2118.0873      2881.9127      4.4563805e+08  0.1            14779020       7.4974755      536.12501      5361.2491      11.152965    
  38545400   153148.6      -13.435914     -40762560       1.3488528      456050.39     -40306510       763.82539      763.82539      763.82539      2118.0873      2881.9127      2118.0873      2881.9127      2118.0873      2881.9127      4.4563805e+08  0.1            14779040       7.534748       536.58572      5365.8644      11.115622    
  38545600   153529.55     -11.32288      -40761679       1.3488528      457184.79     -40304494       763.82539      763.82539      763.82539      2118.0873      2881.9127      2118.0873      2881.9127      2118.0873      2881.9127      4.4563805e+08  0.1            14779060       7.5720142      536.68248      5366.8255      11.07827     
  38545800   153657.33     -9.6968171     -40768169       1.3488528      457565.29     -40310604       763.82539      763.82539      763.82539      2118.0873      2881.9127      2118.0873      2881.9127      2118.0873      2881.9127      4.4563805e+08  0.1            14779080       7.6093337      535.91298      5359.1292      11.040997    
  38546000   153580.61     -8.4525873     -40782030       1.3488528      457336.83     -40324693       763.82539      763.82539      763.82539      2118.0873      2881.9127      2118.0873      2881.9127      2118.0873      2881.9127      4.4563805e+08  0.1            14779100       7.6467427      534.63125      5346.32        11.003852    
  38546200   153365.12     -6.1598081     -40780758       1.3488528      456695.13     -40324063       763.82539      763.82539      763.82539      2118.0873      2881.9127      2118.0873      2881.9127      2118.0873      2881.9127      4.4563805e+08  0.1            14779120       7.6840992      535.38159      5353.8192      10.96663     
  38546400   153087.97     -4.1131669     -40781743       1.3488528      455869.83     -40325873       763.82539      763.82539      763.82539      2118.0873      2881.9127      2118.0873      2881.9127      2118.0873      2881.9127      4.4563805e+08  0.1            14779140       7.721449       535.47674      5354.7255      10.929398    
  38546600   152831.31     -2.1297781     -40780831       1.3488528      455105.54     -40325725       763.82539      763.82539      763.82539      2118.0873      2881.9127      2118.0873      2881.9127      2118.0873      2881.9127      4.4563805e+08  0.1            14779160       7.758932       533.57733      5335.8073      10.89235     
  38546800   152673.98     -0.31468295    -40779916       1.3488528      454637.06     -40325279       763.82539      763.82539      763.82539      2118.0873      2881.9127      2118.0873      2881.9127      2118.0873      2881.9127      4.4563805e+08  0.1            14779180       7.7962428      536.03837      5360.3834      10.855059    
  38547000   152685.46      1.5070399     -40778996       1.3488528      454671.22     -40324325       763.82539      763.82539      763.82539      2118.0873      2881.9127      2118.0873      2881.9127      2118.0873      2881.9127      4.4563805e+08  0.1            14779200       7.8335624      535.91084      5359.1151      10.81778     
  38547200   152923.53      3.0863775     -40785450       1.3488528      455380.16     -40330070       763.82539      763.82539      763.82539      2118.0873      2881.9127      2118.0873      2881.9127      2118.0873      2881.9127      4.4563805e+08  0.1            14779220       7.8709388      535.09594      5350.9521      10.780578    
  38547400   153429.55      4.9919241     -40786422       1.3488528      456887.01     -40329535       763.82539      763.82539      763.82539      2118.0873      2881.9127      2118.0873      2881.9127      2118.0873      2881.9127      4.4563805e+08  0.1            14779240       7.9083418      534.71692      5347.1641      10.743411    
  38547600   154223.29      7.142248      -40787395       1.3488528      459250.61     -40328145       763.82539      763.82539      763.82539      2118.0873      2881.9127      2118.0873      2881.9127      2118.0873      2881.9127      4.4563805e+08  0.1            14779260       7.9457788      534.2295       5342.2926      10.706287    
  38547800   155300.53      9.2022223     -40793851       1.3488528      462458.45     -40331393       763.82539      763.82539      763.82539      2118.0873      2881.9127      2118.0873      2881.9127      2118.0873      2881.9127      4.4563805e+08  0.1            14779280       7.9831698      534.88656      5348.8683      10.6691      
  38548000   156632.98      11.587156     -40792924       1.3488528      466426.27     -40326498       763.82539      763.82539      763.82539      2118.0873      2881.9127      2118.0873      2881.9127      2118.0873      2881.9127      4.4563805e+08  0.1            14779300       8.020621       534.02569      5340.2503      10.63199     
  38548200   158173.23      13.87276      -40791988       1.3488528      471012.87     -40320975       763.82539      763.82539      763.82539      2118.0873      2881.9127      2118.0873      2881.9127      2118.0873      2881.9127      4.4563805e+08  0.1            14779320       8.0587742      524.20259      5242.0372      10.595799    
  38548400   159857.84      16.440462     -40781777       1.3488528      476029.36     -40305747       763.82539      763.82539      763.82539      2118.0873      2881.9127      2118.0873      2881.9127      2118.0873      2881.9127      4.4563805e+08  0.1            14779340       8.0961394      535.26279      5352.6216      10.558563    
  38548600   161611.55      18.666171     -40780836       1.3488528      481251.6      -40299584       763.82539      763.82539      763.82539      2118.0873      2881.9127      2118.0873      2881.9127      2118.0873      2881.9127      4.4563805e+08  0.1            14779360       8.1334979      535.35149      5353.5185      10.521317    
  38548800   163352.43      20.95908      -40781785       1.3488528      486435.64     -40295349       763.82539      763.82539      763.82539      2118.0873      2881.9127      2118.0873      2881.9127      2118.0873      2881.9127      4.4563805e+08  0.1            14779380       8.1708597      535.30683      5353.0705      10.484074    
  38549000   165000.6       23.536319     -40780833       1.3488528      491343.62     -40289489       763.82539      763.82539      763.82539      2118.0873      2881.9127      2118.0873      2881.9127      2118.0873      2881.9127      4.4563805e+08  0.1            14779400       8.2083496      533.47507      5334.6881      10.446994    
  38549200   166484.73      25.88059      -40787250       1.3488528      495763.1      -40291487       763.82539      763.82539      763.82539      2118.0873      2881.9127      2118.0873      2881.9127      2118.0873      2881.9127      4.4563805e+08  0.1            14779420       8.2458647      533.11736      5331.2361      10.409941    
  38549400   167747.09      28.321649     -40786284       1.3488528      499522.19     -40286762       763.82539      763.82539      763.82539      2118.0873      2881.9127      2118.0873      2881.9127      2118.0873      2881.9127      4.4563805e+08  0.1            14779440       8.283271       534.67014      5346.6931      10.372748    
  38549600   168746.64      30.639556     -40785315       1.3488528      502498.69     -40282816       763.82539      763.82539      763.82539      2118.0873      2881.9127      2118.0873      2881.9127      2118.0873      2881.9127      4.4563805e+08  0.1            14779460       8.3206298      535.34996      5353.5114      10.335494    
  38549800   169463.39      32.932796     -40778863       1.3488528      504633.05     -40274230       763.82539      763.82539      763.82539      2118.0873      2881.9127      2118.0873      2881.9127      2118.0873      2881.9127      4.4563805e+08  0.1            14779480       8.3580473      534.51193      5345.1211      10.298311    
[...]
  39194400   307.57688      4.7356288     -40959369       1.3867836      915.91141     -40958454       756.79695      756.79695      756.79695      2121.6015      2878.3985      2121.6015      2878.3985      2121.6015      2878.3985      4.3344912e+08  0.1            14843940       62.972103      461.46122      4614.6156      2.3065111    
  39194600   307.54567      2.1606399     -40959462       1.3867062      915.81849     -40958547       756.81104      756.81104      756.81104      2121.5945      2878.4055      2121.5945      2878.4055      2121.5945      2878.4055      4.3347333e+08  0.1            14843960       63.015471      461.17139      4611.7043      2.2629866    
  39194800   307.49451     -1.1533329     -40959554       1.386605       915.66615     -40958639       756.82946      756.82946      756.82946      2121.5853      2878.4147      2121.5853      2878.4147      2121.5853      2878.4147      4.3350497e+08  0.1            14843980       63.058779      461.81269      4618.1381      2.2194602    
  39195000   307.35996     -2.380381      -40959646       1.3865707      915.26548     -40958730       756.83568      756.83568      756.83568      2121.5822      2878.4178      2121.5822      2878.4178      2121.5822      2878.4178      4.3351567e+08  0.1            14844000       63.102163      460.99809      4609.9799      2.1759367    
  39195200   307.46398     -0.70820267    -40959738       1.3866297      915.57523     -40958822       756.82496      756.82496      756.82496      2121.5875      2878.4125      2121.5875      2878.4125      2121.5875      2878.4125      4.3349724e+08  0.1            14844020       63.145596      460.47272      4604.72        2.1324151    
  39195400   307.55005      2.1820787     -40959829       1.3867277      915.83152     -40958913       756.80713      756.80713      756.80713      2121.5964      2878.4036      2121.5964      2878.4036      2121.5964      2878.4036      4.334666e+08   0.1            14844040       63.188978      461.02314      4610.2304      2.0888919    
  39195600   307.53843      3.8153281     -40959920       1.3867854      915.79692     -40959004       756.79664      756.79664      756.79664      2121.6017      2878.3983      2121.6017      2878.3983      2121.6017      2878.3983      4.3344858e+08  0.1            14844060       63.232314      461.50516      4615.0634      2.0453674    
  39195800   307.4993       3.0774809     -40960012       1.386767       915.68039     -40959097       756.79999      756.79999      756.79999      2121.6         2878.4         2121.6         2878.4         2121.6         2878.4         4.3345433e+08  0.1            14844080       63.27565       461.51779      4615.1671      2.0018432    
  39196000   307.36106      0.89367058    -40960104       1.3867022      915.26875     -40959189       756.81177      756.81177      756.81177      2121.5941      2878.4059      2121.5941      2878.4059      2121.5941      2878.4059      4.3347458e+08  0.1            14844100       63.319065      460.66324      4606.6346      1.9583217    
  39196200   307.44857     -0.8972133     -40960196       1.38665        915.52934     -40959280       756.82126      756.82126      756.82126      2121.5894      2878.4106      2121.5894      2878.4106      2121.5894      2878.4106      4.3349089e+08  0.1            14844120       63.362399      461.54028      4615.4014      1.9147978    
  39196400   307.51954     -1.1411336     -40960287       1.3866475      915.74067     -40959371       756.82172      756.82172      756.82172      2121.5891      2878.4109      2121.5891      2878.4109      2121.5891      2878.4109      4.3349168e+08  0.1            14844140       63.405693      461.95211      4619.5212      1.8712731    
  39196600   307.50523     -0.037801969   -40960379       1.3866882      915.69806     -40959463       756.81431      756.81431      756.81431      2121.5928      2878.4072      2121.5928      2878.4072      2121.5928      2878.4072      4.3347895e+08  0.1            14844160       63.44898       462.03869      4620.3854      1.8277485    
  39196800   307.47649      1.3869816     -40960470       1.3867392      915.61249     -40959554       756.80503      756.80503      756.80503      2121.5975      2878.4025      2121.5975      2878.4025      2121.5975      2878.4025      4.33463e+08    0.1            14844180       63.492309      461.58565      4615.8538      1.7842253    
  39197000   307.35318      2.2470439     -40960561       1.3867721      915.24529     -40959646       756.79906      756.79906      756.79906      2121.6005      2878.3995      2121.6005      2878.3995      2121.6005      2878.3995      4.3345273e+08  0.1            14844200       63.535656      461.38693      4613.8753      1.740703     
  39197200   307.44921      2.3196539     -40960653       1.3867797      915.53126     -40959737       756.79767      756.79767      756.79767      2121.6012      2878.3988      2121.6012      2878.3988      2121.6012      2878.3988      4.3345035e+08  0.1            14844220       63.578994      461.49351      4614.9353      1.6971806    
  39197400   307.51885      1.8866811     -40960744       1.3867711      915.73864     -40959828       756.79923      756.79923      756.79923      2121.6004      2878.3996      2121.6004      2878.3996      2121.6004      2878.3996      4.3345303e+08  0.1            14844240       63.622354      461.24741      4612.4712      1.6536591    
  39197600   307.49614      1.3247153     -40960835       1.3867584      915.67101     -40959920       756.80155      756.80155      756.80155      2121.5992      2878.4008      2121.5992      2878.4008      2121.5992      2878.4008      4.3345701e+08  0.1            14844260       63.665668      461.74765      4617.477       1.6101366    
  39197800   307.45822      0.86461622    -40960927       1.3867489      915.55806     -40960011       756.80327      756.80327      756.80327      2121.5984      2878.4016      2121.5984      2878.4016      2121.5984      2878.4016      4.3345997e+08  0.1            14844280       63.709036      461.17015      4611.7033      1.5666157    
  39198000   307.32939      0.57415885    -40961018       1.3867449      915.17444     -40960103       756.804        756.804        756.804        2121.598       2878.402       2121.598       2878.402       2121.598       2878.402       4.3346123e+08  0.1            14844300       63.752405      461.15605      4611.5588      1.5230951    
  39198200   307.42402      0.42971197    -40961109       1.3867455      915.45625     -40960193       756.8039       756.8039       756.8039       2121.5981      2878.4019      2121.5981      2878.4019      2121.5981      2878.4019      4.3346105e+08  0.1            14844320       63.795799      460.8985       4608.987       1.4795752    
  39198400   307.49501      0.37971994    -40961200       1.386749       915.66762     -40960284       756.80324      756.80324      756.80324      2121.5984      2878.4016      2121.5984      2878.4016      2121.5984      2878.4016      4.3345993e+08  0.1            14844340       63.839121      461.65482      4616.5538      1.4360539    
  39198600   307.4742       0.37692001    -40961291       1.3867541      915.60566     -40960375       756.80232      756.80232      756.80232      2121.5988      2878.4012      2121.5988      2878.4012      2121.5988      2878.4012      4.3345835e+08  0.1            14844360       63.882428      461.81692      4618.1665      1.3925326    
  39198800   307.43795      0.38889844    -40961382       1.3867596      915.49771     -40960467       756.80133      756.80133      756.80133      2121.5993      2878.4007      2121.5993      2878.4007      2121.5993      2878.4007      4.3345663e+08  0.1            14844380       63.925869      460.396        4603.9515      1.3490143    
  39199000   307.31001      0.39847417    -40961473       1.386765       915.11674     -40960558       756.80035      756.80035      756.80035      2121.5998      2878.4002      2121.5998      2878.4002      2121.5998      2878.4002      4.3345495e+08  0.1            14844400       63.969217      461.38794      4613.8892      1.3054943    
  39199200   307.40499      0.40118167    -40961564       1.3867701      915.39958     -40960648       756.79942      756.79942      756.79942      2121.6003      2878.3997      2121.6003      2878.3997      2121.6003      2878.3997      4.3345336e+08  0.1            14844420       64.012598      461.02755      4610.2798      1.2619751    
  39199400   307.47579      0.40233292    -40961655       1.3867751      915.6104      -40960739       756.7985       756.7985       756.7985       2121.6007      2878.3993      2121.6007      2878.3993      2121.6007      2878.3993      4.3345179e+08  0.1            14844440       64.055961      461.22078      4612.1964      1.2184558    
  39199600   307.4542       0.41560082    -40961746       1.3867805      915.54611     -40960830       756.79753      756.79753      756.79753      2121.6012      2878.3988      2121.6012      2878.3988      2121.6012      2878.3988      4.334501e+08   0.1            14844460       64.099323      461.23166      4612.3223      1.1749367    
  39199800   307.41753      0.46556681    -40961836       1.386787       915.4369      -40960921       756.79634      756.79634      756.79634      2121.6018      2878.3982      2121.6018      2878.3982      2121.6018      2878.3982      4.3344807e+08  0.1            14844480       64.14265       461.60871      4616.0935      1.1314172    
  39200000   307.28965      0.6046386     -40961927       1.3867963      915.0561      -40961012       756.79465      756.79465      756.79465      2121.6027      2878.3973      2121.6027      2878.3973      2121.6027      2878.3973      4.3344515e+08  0.1            14844500       64.186122      460.0621       4600.6115      1.0879004    
  39200200   307.38619      0.94658046    -40962018       1.3868121      915.34358     -40961102       756.79178      756.79178      756.79178      2121.6041      2878.3959      2121.6041      2878.3959      2121.6041      2878.3959      4.3344024e+08  0.1            14844520       64.229515      460.91033      4609.1127      1.0443824    
  39200400   307.46002      1.6268108     -40962108       1.3868385      915.56344     -40961192       756.78697      756.78697      756.78697      2121.6065      2878.3935      2121.6065      2878.3935      2121.6065      2878.3935      4.3343197e+08  0.1            14844540       64.272856      461.45697      4614.565       1.0008637    
  39200600   307.44201      2.5541253     -40962198       1.3868728      915.5098      -40961283       756.78074      756.78074      756.78074      2121.6096      2878.3904      2121.6096      2878.3904      2121.6096      2878.3904      4.3342126e+08  0.1            14844560       64.316143      462.03263      4620.3301      0.95734452   
  39200800   307.40791      3.2319501     -40962289       1.3868991      915.40825     -40961373       756.77595      756.77595      756.77595      2121.612       2878.388       2121.612       2878.388       2121.612       2878.388       4.3341303e+08  0.1            14844580       64.359459      461.71723      4617.1614      0.91382603   
  39201000   307.27825      3.0279029     -40962379       1.3868974      915.02215     -40961464       756.77625      756.77625      756.77625      2121.6119      2878.3881      2121.6119      2878.3881      2121.6119      2878.3881      4.3341355e+08  0.1            14844600       64.402886      460.5483       4605.4925      0.8703093    
  39201200   307.36708      1.6505111     -40962470       1.3868585      915.28667     -40961555       756.78333      756.78333      756.78333      2121.6083      2878.3917      2121.6083      2878.3917      2121.6083      2878.3917      4.3342571e+08  0.1            14844620       64.446146      462.31521      4623.1529      0.82679057   
  39201400   307.42787     -0.486316      -40962560       1.3867956      915.4677      -40961645       756.79478      756.79478      756.79478      2121.6026      2878.3974      2121.6026      2878.3974      2121.6026      2878.3974      4.3344539e+08  0.1            14844640       64.489441      461.9486       4619.4799      0.7832726    
  39201600   307.39676     -2.2474745     -40962650       1.3867446      915.37506     -40961735       756.80406      756.80406      756.80406      2121.598       2878.402       2121.598       2878.402       2121.598       2878.402       4.3346134e+08  0.1            14844660       64.532852      460.71786      4607.1702      0.73975626   
  39201800   307.38877      3.7662289     -40962740       1.3869402      915.35127     -40961824       756.76848      756.76848      756.76848      2121.6158      2878.3842      2121.6158      2878.3842      2121.6158      2878.3842      4.334002e+08   0.1            14844680       64.57608       462.65737      4626.5853      0.69623809   
  39202000   307.24173     -0.36974541    -40962831       1.3868139      914.91342     -40961916       756.79144      756.79144      756.79144      2121.6043      2878.3957      2121.6043      2878.3957      2121.6043      2878.3957      4.3343965e+08  0.1            14844700       64.619401      461.67206      4616.7137      0.65272125   
  39202200   307.32297     -3.2339526     -40955542       1.3867182      915.15533     -40954627       756.80886      756.80886      756.80886      2121.5956      2878.4044      2121.5956      2878.4044      2121.5956      2878.4044      4.3346957e+08  0.1            14844720       64.66264       462.54666      4625.4407      0.6092039    
  39202400   307.4036      -1.2173301     -40955633       1.3867871      915.39542     -40954717       756.79631      756.79631      756.79631      2121.6018      2878.3982      2121.6018      2878.3982      2121.6018      2878.3982      4.3344802e+08  0.1            14844740       64.705919      462.11733      4621.2055      0.56568728   
  39202600   307.41933      6.6914612     -40963098       1.3870527      915.44228     -40962182       756.74802      756.74802      756.74802      2121.626       2878.374       2121.626       2878.374       2121.626       2878.374       4.3336504e+08  0.1            14844760       64.749169      462.43104      4624.3135      0.52217074   
  39202800   307.35024      0.062155739   -40955813       1.3868378      915.23653     -40954898       756.7871       756.7871       756.7871       2121.6065      2878.3935      2121.6065      2878.3935      2121.6065      2878.3935      4.3343219e+08  0.1            14844780       64.792491      461.65214      4616.5094      0.47865509   
  39203000   307.20514     -3.2831445     -40955902       1.3867369      914.80445     -40954987       756.80546      756.80546      756.80546      2121.5973      2878.4027      2121.5973      2878.4027      2121.5973      2878.4027      4.3346374e+08  0.1            14844800       64.835887      460.87345      4608.7426      0.4351402    
  39203200   307.34521      5.3227709     -40963368       1.3870246      915.22155     -40962453       756.75312      756.75312      756.75312      2121.6234      2878.3766      2121.6234      2878.3766      2121.6234      2878.3766      4.3337382e+08  0.1            14844820       64.879199      461.76451      4617.6217      0.39162496   
  39203400   307.37454     -3.7035782     -40956081       1.3867339      915.3089      -40955166       756.806        756.806        756.806        2121.597       2878.403       2121.597       2878.403       2121.597       2878.403       4.3346466e+08  0.1            14844840       64.922537      461.48824      4614.9012      0.34811013   
  39203600   307.36067     -2.0252507     -40956172       1.3867924      915.26759     -40955256       756.79536      756.79536      756.79536      2121.6023      2878.3977      2121.6023      2878.3977      2121.6023      2878.3977      4.3344639e+08  0.1            14844860       64.965827      462.00327      4620.0408      0.30459532   
  39203800   307.31774     -3.3081158     -40956261       1.386757       915.13974     -40955346       756.8018       756.8018       756.8018       2121.5991      2878.4009      2121.5991      2878.4009      2121.5991      2878.4009      4.3345745e+08  0.1            14844880       65.009214      460.9731       4609.718       0.26108119   
  39204000   307.19695     -1.1955207     -40956351       1.3868293      914.78007     -40955436       756.78865      756.78865      756.78865      2121.6057      2878.3943      2121.6057      2878.3943      2121.6057      2878.3943      4.3343485e+08  0.1            14844900       65.052586      461.12325      4611.2367      0.21756719   
  39204200   307.30996      1.8591325     -40956441       1.3869315      915.11659     -40955526       756.77006      756.77006      756.77006      2121.615       2878.385       2121.615       2878.385       2121.615       2878.385       4.3340292e+08  0.1            14844920       65.095915      461.5817       4615.8255      0.17405326   
  39204400   307.39149      3.4733341     -40956530       1.386988       915.35936     -40955614       756.75978      756.75978      756.75978      2121.6201      2878.3799      2121.6201      2878.3799      2121.6201      2878.3799      4.3338525e+08  0.1            14844940       65.139248      461.54943      4615.4931      0.13053958   
  39204600   307.36595      2.9528099     -40956619       1.386977       915.28331     -40955704       756.76179      756.76179      756.76179      2121.6191      2878.3809      2121.6191      2878.3809      2121.6191      2878.3809      4.333887e+08   0.1            14844960       65.182547      461.89676      4618.9691      0.087026101  
  39204800   307.32014      1.1367388     -40956709       1.3869249      915.1469      -40955794       756.77126      756.77126      756.77126      2121.6144      2878.3856      2121.6144      2878.3856      2121.6144      2878.3856      4.3340498e+08  0.1            14844980       65.225944      460.86694      4608.6574      0.043512973  
  39205000   307.18309     -0.50344986    -40956799       1.3868784      914.73878     -40955884       756.77972      756.77972      756.77972      2121.6101      2878.3899      2121.6101      2878.3899      2121.6101      2878.3899      4.3341951e+08  0.1            14845000       65.269252      461.80684      4618.071       0            
Loop time of 65.2693 on 1 procs for 300000 steps with 1000 atoms

Performance: 39.712 ns/day, 0.604 hours/ns, 4596.344 timesteps/s
99.9% CPU use with 1 MPI tasks x 1 OpenMP threads

MPI task timing breakdown:
Section |  min time  |  avg time  |  max time  |%varavg| %total
---------------------------------------------------------------
Pair    | 50.025     | 50.025     | 50.025     |   0.0 | 76.64
Neigh   | 0.027605   | 0.027605   | 0.027605   |   0.0 |  0.04
Comm    | 2.0491     | 2.0491     | 2.0491     |   0.0 |  3.14
Output  | 0.051755   | 0.051755   | 0.051755   |   0.0 |  0.08
Modify  | 11.607     | 11.607     | 11.607     |   0.0 | 17.78
Other   |            | 1.509      |            |       |  2.31

Nlocal:           1000 ave        1000 max        1000 min
Histogram: 1 0 0 0 0 0 0 0 0 0
Nghost:           1348 ave        1348 max        1348 min
Histogram: 1 0 0 0 0 0 0 0 0 0
Neighs:           6001 ave        6001 max        6001 min
Histogram: 1 0 0 0 0 0 0 0 0 0

Total # of neighbors = 6001
Ave neighs/atom = 6.001
Neighbor list builds = 39
Dangerous builds = 17

# run_style
run_style verlet

# write restart
write_restart ${write_res}
write_restart ./pgnpmf/37/equpmf56.res
System init for write_restart ...
Generated 0 of 1 mixed pair_coeff terms from geometric mixing rule

Total wall time: 0:02:20
