LAMMPS (23 Jun 2022 - Update 1)
# Read restart
read_restart ${read_res}
read_restart ./pgnpmf/37/equpmf4.res
Reading restart file ...
  restart file = 23 Jun 2022, LAMMPS = 23 Jun 2022
  restoring atom style atomic from restart
  orthogonal box = (1611.9892 1611.9892 1611.9892) to (3388.0108 3388.0108 3388.0108)
  1 by 2 by 2 MPI processor grid
  restoring pair style table from restart
  1000 atoms
  read_restart CPU = 0.018 seconds

# Settings

pair_style table spline 9941

pair_coeff 1 1 ./pgnpmf/N20.txt DE_GNP 75.6
pair_coeff 2 2 ./pgnpmf/N100.txt DE_GNP 115.92
WARNING: 3 of 9941 force values in table DE_GNP are inconsistent with -dE/dr.
WARNING:  Should only be flagged at inflection points (../pair_table.cpp:463)
pair_coeff 1 2 ./pgnpmf/mixed_potential.txt DE_GNP 95.66
WARNING: 1562 of 9941 force values in table DE_GNP are inconsistent with -dE/dr.
WARNING:  Should only be flagged at inflection points (../pair_table.cpp:463)

#Neigh_list Calc Frequency

neigh_modify delay 0 every 1 check yes

# Saving Frequency (50 frames)

variable ts_save equal ${steps_equ}
variable ts_save equal 5000

# Dump
#dump 1 all custom ${ts_save} ./pgnpmf/${folder}/equilibration/trajectory/trajectory_${usic}_${trial}.equ.custom type x y z ix iy iz
#dump_modify 1 first no sort id
#dump 2 all cfg 50000 ./equilibration/trajectory/ovito/dumpgen.tens_*.cfg mass type xs ys zs fx fy fz

# thermo_style
thermo_style custom step temp press pe density ke etotal lx ly lz xlo xhi ylo yhi zlo zhi vol dt time cpu tpcpu spcpu cpuremain

# run info
timestep ${ts}
timestep 0.5
thermo 200

# fix

fix 1 all momentum 1000 linear 1 1 1 angular
variable T equal ${temp}
variable T equal 300
fix 2 all nvt temp ${T} 370000 100.0
fix 2 all nvt temp 300 370000 100.0

run 100000
Generated 0 of 1 mixed pair_coeff terms from geometric mixing rule
Unused restart file global fix info:
  fix style: npt, fix ID: 5
Neighbor list info ...
  update every 1 steps, delay 0 steps, check yes
  max neighbors/atom: 2000, page size: 100000
  master list distance cutoff = 117.92
  ghost atom cutoff = 117.92
  binsize = 58.96, bins = 31 31 31
  1 neighbor lists, perpetual/occasional/extra = 1 0 0
  (1) pair table, perpetual
      attributes: half, newton on
      pair build: half/bin/atomonly/newton
      stencil: half/bin/3d
      bin: standard
Per MPI rank memory allocation (min/avg/max) = 3.119 | 3.121 | 3.123 Mbytes
   Step          Temp          Press          PotEng        Density         KinEng         TotEng           Lx             Ly             Lz            Xlo            Xhi            Ylo            Yhi            Zlo            Zhi           Volume           Dt            Time           CPU           T/CPU          S/CPU         CPULeft    
   2805000   311.22072      1.0573431     -6097688.7      0.1073006      926.76215     -6096761.9      1776.0216      1776.0216      1776.0216      1611.9892      3388.0108      1611.9892      3388.0108      1611.9892      3388.0108      5.6020206e+09  0.5            1405000        0              0              0              0            
   2805200   417.3268       0.96084954    -6097835.8      0.1073006      1242.728      -6096593        1776.0216      1776.0216      1776.0216      1611.9892      3388.0108      1611.9892      3388.0108      1611.9892      3388.0108      5.6020206e+09  0.5            1405100        0.008898048    11237.412      22472.632      4.4415182    
   2805400   639.22862      0.85005013    -6098011.5      0.1073006      1903.5137     -6096108        1776.0216      1776.0216      1776.0216      1611.9892      3388.0108      1611.9892      3388.0108      1611.9892      3388.0108      5.6020206e+09  0.5            1405200        0.017740368    11309.378      22618.644      4.4179724    
   2805600   1011.8969      0.71512908    -6098228.2      0.1073006      3013.2563     -6095214.9      1776.0216      1776.0216      1776.0216      1611.9892      3388.0108      1611.9892      3388.0108      1611.9892      3388.0108      5.6020206e+09  0.5            1405300        0.026573587    11320.833      22641.59       4.4027933    
   2805800   1601.0966      0.54779653    -6098496.8      0.1073006      4767.7923     -6093729        1776.0216      1776.0216      1776.0216      1611.9892      3388.0108      1611.9892      3388.0108      1611.9892      3388.0108      5.6020206e+09  0.5            1405400        0.035393546    11337.655      22675.236      4.3891579    
   2806000   2478.1235      0.34286026    -6098827.3      0.1073006      7379.4286     -6091447.9      1776.0216      1776.0216      1776.0216      1611.9892      3388.0108      1611.9892      3388.0108      1611.9892      3388.0108      5.6020206e+09  0.5            1405500        0.044272145    11263.35       22526.363      4.3832145    
   2806200   3673.2498      0.10669014    -6099226.3      0.1073006      10938.311     -6088288        1776.0216      1776.0216      1776.0216      1611.9892      3388.0108      1611.9892      3388.0108      1611.9892      3388.0108      5.6020206e+09  0.5            1405600        0.053423375    10927.618      21855.611      4.3987215    
   2806400   5088.7193     -0.15882345    -6099693.1      0.1073006      15153.337     -6084539.7      1776.0216      1776.0216      1776.0216      1611.9892      3388.0108      1611.9892      3388.0108      1611.9892      3388.0108      5.6020206e+09  0.5            1405700        0.06236294     11186.219      22372.406      4.3923019    
   2806600   6416.7552     -0.42905547    -6100215.1      0.1073006      19108.001     -6081107.1      1776.0216      1776.0216      1776.0216      1611.9892      3388.0108      1611.9892      3388.0108      1611.9892      3388.0108      5.6020206e+09  0.5            1405800        0.071331089    11150.505      22301.415      4.3870046    
   2806800   7240.5391     -0.74248781    -6100768.9      0.1073006      21561.089     -6079207.8      1776.0216      1776.0216      1776.0216      1611.9892      3388.0108      1611.9892      3388.0108      1611.9892      3388.0108      5.6020206e+09  0.5            1405900        0.080146622    11343.524      22686.797      4.3725774    
   2807000   7575.5586     -1.0929653     -6101327.5      0.1073006      22558.72      -6078768.8      1776.0216      1776.0216      1776.0216      1611.9892      3388.0108      1611.9892      3388.0108      1611.9892      3388.0108      5.6020206e+09  0.5            1406000        0.089004981    11288.89       22577.486      4.3613735    
   2807200   8114.8739     -1.4522324     -6101885.1      0.1073006      24164.709     -6077720.4      1776.0216      1776.0216      1776.0216      1611.9892      3388.0108      1611.9892      3388.0108      1611.9892      3388.0108      5.6020206e+09  0.5            1406100        0.097857022    11296.401      22593.157      4.3503077    
   2807400   9185.3027     -1.7705924     -6102448.5      0.1073006      27352.263     -6075096.3      1776.0216      1776.0216      1776.0216      1611.9892      3388.0108      1611.9892      3388.0108      1611.9892      3388.0108      5.6020206e+09  0.5            1406200        0.106731       11269.131      22538.597      4.3404925    
   2807600   10215.499     -2.1387646     -6103016.7      0.1073006      30420.012     -6072596.7      1776.0216      1776.0216      1776.0216      1611.9892      3388.0108      1611.9892      3388.0108      1611.9892      3388.0108      5.6020206e+09  0.5            1406300        0.11575665     11079.775      22159.467      4.3365051    
   2807800   10737.998     -2.4876352     -6103592.5      0.1073006      31975.925     -6071616.6      1776.0216      1776.0216      1776.0216      1611.9892      3388.0108      1611.9892      3388.0108      1611.9892      3388.0108      5.6020206e+09  0.5            1406400        0.12455024     11371.847      22743.54       4.3237546    
   2808000   11116.126     -2.8766468     -6106041.3      0.1073006      33101.925     -6072939.4      1776.0216      1776.0216      1776.0216      1611.9892      3388.0108      1611.9892      3388.0108      1611.9892      3388.0108      5.6020206e+09  0.5            1406500        0.13338485     11319.129      22638.317      4.3128547    
   2808200   11965.852     -3.2613423     -6106589.1      0.1073006      35632.264     -6070956.8      1776.0216      1776.0216      1776.0216      1611.9892      3388.0108      1611.9892      3388.0108      1611.9892      3388.0108      5.6020206e+09  0.5            1406600        0.14294649     10458.548      20917.133      4.3241984    
   2808400   13098.961     -3.6624353     -6114499.5      0.1073006      39006.469     -6075493        1776.0216      1776.0216      1776.0216      1611.9892      3388.0108      1611.9892      3388.0108      1611.9892      3388.0108      5.6020206e+09  0.5            1406700        0.15201048     11032.636      22065.104      4.318952     
   2808600   13853.571     -4.1152976     -6115021.4      0.1073006      41253.569     -6073767.8      1776.0216      1776.0216      1776.0216      1611.9892      3388.0108      1611.9892      3388.0108      1611.9892      3388.0108      5.6020206e+09  0.5            1406800        0.1609494      11187.11       22374.235      4.309938     
   2808800   14198.436     -4.5098337     -6115518.7      0.1073006      42280.519     -6073238.2      1776.0216      1776.0216      1776.0216      1611.9892      3388.0108      1611.9892      3388.0108      1611.9892      3388.0108      5.6020206e+09  0.5            1406900        0.1701194      10905.097      21810.355      4.3067636    
   2809000   14798.767     -4.897738      -6123368        0.1073006      44068.203     -6079299.8      1776.0216      1776.0216      1776.0216      1611.9892      3388.0108      1611.9892      3388.0108      1611.9892      3388.0108      5.6020206e+09  0.5            1407000        0.17894439     11331.401      22662.412      4.2947261    
   2809200   15898.189     -5.2052981     -6123822.3      0.1073006      47342.093     -6076480.2      1776.0216      1776.0216      1776.0216      1611.9892      3388.0108      1611.9892      3388.0108      1611.9892      3388.0108      5.6020206e+09  0.5            1407100        0.18779832     11294.491      22589.347      4.2836417    
   2809400   16889.326     -5.5115764     -6124254.8      0.1073006      50293.529     -6073961.2      1776.0216      1776.0216      1776.0216      1611.9892      3388.0108      1611.9892      3388.0108      1611.9892      3388.0108      5.6020206e+09  0.5            1407200        0.19657785     11390.169      22780.455      4.2711466    
   2809600   17341.339     -5.7962913     -6124656.8      0.1073006      51639.548     -6073017.2      1776.0216      1776.0216      1776.0216      1611.9892      3388.0108      1611.9892      3388.0108      1611.9892      3388.0108      5.6020206e+09  0.5            1407300        0.2053739      11368.721      22737.352      4.2593209    
   2809800   17732.967     -6.1204307     -6125021.1      0.1073006      52805.747     -6072215.4      1776.0216      1776.0216      1776.0216      1611.9892      3388.0108      1611.9892      3388.0108      1611.9892      3388.0108      5.6020206e+09  0.5            1407400        0.21437124     11114.371      22228.755      4.2517389    
   2810000   18659.465     -6.4077879     -6125357.5      0.1073006      55564.701     -6069792.8      1776.0216      1776.0216      1776.0216      1611.9892      3388.0108      1611.9892      3388.0108      1611.9892      3388.0108      5.6020206e+09  0.5            1407500        0.22318562     11344.989      22689.554      4.2405741    
   2810200   19809.362     -6.6639123     -6125663.4      0.1073006      58988.896     -6066674.5      1776.0216      1776.0216      1776.0216      1611.9892      3388.0108      1611.9892      3388.0108      1611.9892      3388.0108      5.6020206e+09  0.5            1407600        0.23203517     11300.091      22600.839      4.230218     
   2810400   20486.831     -6.9266643     -6125937.9      0.1073006      61006.285     -6064931.6      1776.0216      1776.0216      1776.0216      1611.9892      3388.0108      1611.9892      3388.0108      1611.9892      3388.0108      5.6020206e+09  0.5            1407700        0.24080914     11397.369      22794.446      4.2186584    
   2810600   20789.336     -7.2516437     -6126176.4      0.1073006      61907.092     -6064269.3      1776.0216      1776.0216      1776.0216      1611.9892      3388.0108      1611.9892      3388.0108      1611.9892      3388.0108      5.6020206e+09  0.5            1407800        0.24973094     11208.477      22416.84       4.2097904    
   2810800   21456.489     -7.4967363     -6126381.3      0.1073006      63893.76      -6062487.6      1776.0216      1776.0216      1776.0216      1611.9892      3388.0108      1611.9892      3388.0108      1611.9892      3388.0108      5.6020206e+09  0.5            1407900        0.25949034     10246.516      20493.113      4.2145181    
   2811000   22616.781     -7.7295616     -6126547.3      0.1073006      67348.912     -6059198.4      1776.0216      1776.0216      1776.0216      1611.9892      3388.0108      1611.9892      3388.0108      1611.9892      3388.0108      5.6020206e+09  0.5            1408000        0.26871064     10845.576      21690.854      4.209839     
   2811200   23561.426     -7.9950971     -6126681.2      0.1073006      70161.905     -6056519.3      1776.0216      1776.0216      1776.0216      1611.9892      3388.0108      1611.9892      3388.0108      1611.9892      3388.0108      5.6020206e+09  0.5            1408100        0.27766049     11173.533      22347.33       4.2007677    
   2811400   23937.272     -8.2344693     -6126771.7      0.1073006      71281.108     -6055490.6      1776.0216      1776.0216      1776.0216      1611.9892      3388.0108      1611.9892      3388.0108      1611.9892      3388.0108      5.6020206e+09  0.5            1408200        0.28651231     11297.072      22594.165      4.1902751    
   2811600   24356.84      -8.4129741     -6127201        0.1073006      72530.511     -6054670.5      1776.0216      1776.0216      1776.0216      1611.9892      3388.0108      1611.9892      3388.0108      1611.9892      3388.0108      5.6020206e+09  0.5            1408300        0.29557353     11036.054      22072.239      4.1828439    
   2811800   25366.896     -8.5908344     -6136500        0.1073006      75538.285     -6060961.7      1776.0216      1776.0216      1776.0216      1611.9892      3388.0108      1611.9892      3388.0108      1611.9892      3388.0108      5.6020206e+09  0.5            1408400        0.30438797     11344.993      22689.742      4.1719366    
   2812000   26514.425     -8.7304268     -6136497.5      0.1073006      78955.429     -6057542.1      1776.0216      1776.0216      1776.0216      1611.9892      3388.0108      1611.9892      3388.0108      1611.9892      3388.0108      5.6020206e+09  0.5            1408500        0.31325965     11271.775      22543.462      4.1619114    
   2812200   27107.626     -8.9170042     -6136827.1      0.1073006      80721.882     -6056105.2      1776.0216      1776.0216      1776.0216      1611.9892      3388.0108      1611.9892      3388.0108      1611.9892      3388.0108      5.6020206e+09  0.5            1408600        0.32216788     11225.665      22451.565      4.1524144    
   2812400   27390.334     -9.0559247     -6136763.7      0.1073006      81563.739     -6055200        1776.0216      1776.0216      1776.0216      1611.9892      3388.0108      1611.9892      3388.0108      1611.9892      3388.0108      5.6020206e+09  0.5            1408700        0.33121416     11054.211      22108.601      4.1447714    
   2812600   28136.575     -9.1757491     -6136671.9      0.1073006      83785.917     -6052886        1776.0216      1776.0216      1776.0216      1611.9892      3388.0108      1611.9892      3388.0108      1611.9892      3388.0108      5.6020206e+09  0.5            1408800        0.34005001     11317.539      22634.843      4.1343193    
   2812800   29341.598     -9.2469362     -6136550.4      0.1073006      87374.268     -6049176.1      1776.0216      1776.0216      1776.0216      1611.9892      3388.0108      1611.9892      3388.0108      1611.9892      3388.0108      5.6020206e+09  0.5            1408900        0.34886337     11346.428      22692.775      4.1237706    
   2813000   30220.014     -9.3435336     -6136409.9      0.1073006      89990.041     -6046419.8      1776.0216      1776.0216      1776.0216      1611.9892      3388.0108      1611.9892      3388.0108      1611.9892      3388.0108      5.6020206e+09  0.5            1409000        0.35832417     10569.855      21139.535      4.1207561    
   2813200   30534.75      -9.4061677     -6136246.3      0.1073006      90927.272     -6045319        1776.0216      1776.0216      1776.0216      1611.9892      3388.0108      1611.9892      3388.0108      1611.9892      3388.0108      5.6020206e+09  0.5            1409100        0.36738541     11036.05       22072.448      4.1129493    
   2813400   30998.999     -9.507028      -6137947.7      0.1073006      92309.725     -6045638        1776.0216      1776.0216      1776.0216      1611.9892      3388.0108      1611.9892      3388.0108      1611.9892      3388.0108      5.6020206e+09  0.5            1409200        0.37622679     11310.509      22621.072      4.102687     
   2813600   32094.427     -9.5489587     -6137748.6      0.1073006      95571.723     -6042176.9      1776.0216      1776.0216      1776.0216      1611.9892      3388.0108      1611.9892      3388.0108      1611.9892      3388.0108      5.6020206e+09  0.5            1409300        0.38504773     11336.638      22673.215      4.0922749    
   2813800   33214.855     -9.5677229     -6137533.3      0.1073006      98908.167     -6038625.2      1776.0216      1776.0216      1776.0216      1611.9892      3388.0108      1611.9892      3388.0108      1611.9892      3388.0108      5.6020206e+09  0.5            1409400        0.39408343     11067.157      22134.241      4.0841605    
   2814000   33722.868     -9.5517285     -6137320        0.1073006      100420.94     -6036899.1      1776.0216      1776.0216      1776.0216      1611.9892      3388.0108      1611.9892      3388.0108      1611.9892      3388.0108      5.6020206e+09  0.5            1409500        0.40294183     11288.704      22577.196      4.074215     
   2814200   34005.693     -9.5678966     -6137114.1      0.1073006      101263.15     -6035850.9      1776.0216      1776.0216      1776.0216      1611.9892      3388.0108      1611.9892      3388.0108      1611.9892      3388.0108      5.6020206e+09  0.5            1409600        0.41180755     11279.491      22559.375      4.064383     
   2814400   34847.53      -9.57044       -6144300.1      0.1073006      103769.99     -6040530.1      1776.0216      1776.0216      1776.0216      1611.9892      3388.0108      1611.9892      3388.0108      1611.9892      3388.0108      5.6020206e+09  0.5            1409700        0.42081642     11100.149      22200.355      4.0559744    
   2814600   36081.62      -9.5235948     -6144115.4      0.1073006      107444.9      -6036670.5      1776.0216      1776.0216      1776.0216      1611.9892      3388.0108      1611.9892      3388.0108      1611.9892      3388.0108      5.6020206e+09  0.5            1409800        0.42964394     11328.168      22655.981      4.0458353    
   2814800   36871.406     -9.467901      -6143944.4      0.1073006      109796.75     -6034147.6      1776.0216      1776.0216      1776.0216      1611.9892      3388.0108      1611.9892      3388.0108      1611.9892      3388.0108      5.6020206e+09  0.5            1409900        0.43849982     11292.046      22584.273      4.0360082    
   2815000   37129.413     -9.4140663     -6143421.2      0.1073006      110565.05     -6032856.1      1776.0216      1776.0216      1776.0216      1611.9892      3388.0108      1611.9892      3388.0108      1611.9892      3388.0108      5.6020206e+09  0.5            1410000        0.44752799     11076.285      22152.442      4.0277737    
   2815200   37672.679     -9.3640396     -6143294.5      0.1073006      112182.8      -6031111.7      1776.0216      1776.0216      1776.0216      1611.9892      3388.0108      1611.9892      3388.0108      1611.9892      3388.0108      5.6020206e+09  0.5            1410100        0.4567991      10786.282      21572.685      4.0216427    
   2815400   38863.032     -9.2419363     -6143183        0.1073006      115727.47     -6027455.6      1776.0216      1776.0216      1776.0216      1611.9892      3388.0108      1611.9892      3388.0108      1611.9892      3388.0108      5.6020206e+09  0.5            1410200        0.46578667     11126.364      22252.634      4.0129512    
   2815600   39939.245     -9.1515863     -6150483.2      0.1073006      118932.25     -6031551        1776.0216      1776.0216      1776.0216      1611.9892      3388.0108      1611.9892      3388.0108      1611.9892      3388.0108      5.6020206e+09  0.5            1410300        0.47462681     11312.167      22624.399      4.0030032    
   2815800   40335.038     -9.0713656     -6152340.8      0.1073006      120110.86     -6032229.9      1776.0216      1776.0216      1776.0216      1611.9892      3388.0108      1611.9892      3388.0108      1611.9892      3388.0108      5.6020206e+09  0.5            1410400        0.48367633     11050.303      22100.742      3.9948256    
   2816000   40609.743     -8.9576015     -6152344.7      0.1073006      120928.88     -6031415.8      1776.0216      1776.0216      1776.0216      1611.9892      3388.0108      1611.9892      3388.0108      1611.9892      3388.0108      5.6020206e+09  0.5            1410500        0.49257428     11238.508      22476.847      3.9853928    
   2816200   41630.725     -8.8786083     -6159754.8      0.1073006      123969.19     -6035785.6      1776.0216      1776.0216      1776.0216      1611.9892      3388.0108      1611.9892      3388.0108      1611.9892      3388.0108      5.6020206e+09  0.5            1410600        0.50149125     11214.667      22429.237      3.976127     
   2816400   42990.127     -8.6851797     -6159817.8      0.1073006      128017.26     -6031800.5      1776.0216      1776.0216      1776.0216      1611.9892      3388.0108      1611.9892      3388.0108      1611.9892      3388.0108      5.6020206e+09  0.5            1410700        0.51053877     11052.707      22105.63       3.9678885    
   2816600   43610.723     -8.5186019     -6159902.2      0.1073006      129865.29     -6030036.9      1776.0216      1776.0216      1776.0216      1611.9892      3388.0108      1611.9892      3388.0108      1611.9892      3388.0108      5.6020206e+09  0.5            1410800        0.51939398     11292.79       22585.245      3.9581581    
   2816800   43576.87      -8.3174099     -6160011.8      0.1073006      129764.48     -6030247.3      1776.0216      1776.0216      1776.0216      1611.9892      3388.0108      1611.9892      3388.0108      1611.9892      3388.0108      5.6020206e+09  0.5            1410900        0.52825604     11284.031      22568.274      3.9485069    
   2817000   44290.351     -8.1360515     -6160499.7      0.1073006      131889.1      -6028610.6      1776.0216      1776.0216      1776.0216      1611.9892      3388.0108      1611.9892      3388.0108      1611.9892      3388.0108      5.6020206e+09  0.5            1411000        0.53717992     11205.911      22411.502      3.939337     
   2817200   46546.481     -7.8910145     -6162910.6      0.1073006      138607.47     -6024303.1      1776.0216      1776.0216      1776.0216      1611.9892      3388.0108      1611.9892      3388.0108      1611.9892      3388.0108      5.6020206e+09  0.5            1411100        0.54631563     10946.035      21892.356      3.9316976    
   2817400   46975.146     -7.7144297     -6163060.4      0.1073006      139883.96     -6023176.4      1776.0216      1776.0216      1776.0216      1611.9892      3388.0108      1611.9892      3388.0108      1611.9892      3388.0108      5.6020206e+09  0.5            1411200        0.5554923      10897.275      21794.75       3.9242995    
   2817600   45206.478     -7.5685477     -6163242.7      0.1073006      134617.17     -6028625.5      1776.0216      1776.0216      1776.0216      1611.9892      3388.0108      1611.9892      3388.0108      1611.9892      3388.0108      5.6020206e+09  0.5            1411300        0.56452995     11064.818      22129.622      3.9158809    
   2817800   44598.354     -7.3763541     -6163436        0.1073006      132806.28     -6030629.7      1776.0216      1776.0216      1776.0216      1611.9892      3388.0108      1611.9892      3388.0108      1611.9892      3388.0108      5.6020206e+09  0.5            1411400        0.57358607     11042.148      22084.196      3.90757      
   2818000   48512.583     -7.1410038     -6171048        0.1073006      144462.19     -6026585.8      1776.0216      1776.0216      1776.0216      1611.9892      3388.0108      1611.9892      3388.0108      1611.9892      3388.0108      5.6020206e+09  0.5            1411500        0.58270493     10966.299      21932.443      3.8996564    
   2818200   49542.602     -6.8696821     -6171298.5      0.1073006      147529.41     -6023769.1      1776.0216      1776.0216      1776.0216      1611.9892      3388.0108      1611.9892      3388.0108      1611.9892      3388.0108      5.6020206e+09  0.5            1411600        0.59166147     11165.143      22330.306      3.8906366    
   2818400   49696.956     -6.6480933     -6171552.1      0.1073006      147989.05     -6023563        1776.0216      1776.0216      1776.0216      1611.9892      3388.0108      1611.9892      3388.0108      1611.9892      3388.0108      5.6020206e+09  0.5            1411700        0.60056958     11225.572      22451.265      3.8813074    
   2818600   50182.93      -6.3677422     -6171809.8      0.1073006      149436.2      -6022373.6      1776.0216      1776.0216      1776.0216      1611.9892      3388.0108      1611.9892      3388.0108      1611.9892      3388.0108      5.6020206e+09  0.5            1411800        0.60951063     11184.39       22368.41       3.8722009    
   2818800   52214.026     -6.1241134     -6181337.8      0.1073006      155484.45     -6025853.3      1776.0216      1776.0216      1776.0216      1611.9892      3388.0108      1611.9892      3388.0108      1611.9892      3388.0108      5.6020206e+09  0.5            1411900        0.61867567     10911.091      21822.619      3.8644948    
   2819000   53672.152     -5.7945165     -6174207.8      0.1073006      159826.5      -6014381.3      1776.0216      1776.0216      1776.0216      1611.9892      3388.0108      1611.9892      3388.0108      1611.9892      3388.0108      5.6020206e+09  0.5            1412000        0.62760603     11197.665      22394.872      3.8553101    
   2819200   51769.679     -5.5765909     -6176332.8      0.1073006      154161.26     -6022171.6      1776.0216      1776.0216      1776.0216      1611.9892      3388.0108      1611.9892      3388.0108      1611.9892      3388.0108      5.6020206e+09  0.5            1412100        0.63662846     11083.586      22167.569      3.846684     
   2819400   50127.791     -5.3680286     -6176545.6      0.1073006      149272        -6027273.6      1776.0216      1776.0216      1776.0216      1611.9892      3388.0108      1611.9892      3388.0108      1611.9892      3388.0108      5.6020206e+09  0.5            1412200        0.64554495     11215.145      22430.273      3.8374191    
   2819600   53441.715     -5.0469636     -6176750.4      0.1073006      159140.3      -6017610.1      1776.0216      1776.0216      1776.0216      1611.9892      3388.0108      1611.9892      3388.0108      1611.9892      3388.0108      5.6020206e+09  0.5            1412300        0.65494942     10633.305      21266.609      3.8310178    
   2819800   54885.415     -4.7224642     -6176946.6      0.1073006      163439.39     -6013507.2      1776.0216      1776.0216      1776.0216      1611.9892      3388.0108      1611.9892      3388.0108      1611.9892      3388.0108      5.6020206e+09  0.5            1412400        0.66399188     11058.919      22117.931      3.8224519    
   2820000   56002.56      -4.3866262     -6177111.2      0.1073006      166766.06     -6010345.1      1776.0216      1776.0216      1776.0216      1611.9892      3388.0108      1611.9892      3388.0108      1611.9892      3388.0108      5.6020206e+09  0.5            1412500        0.67313254     10940.066      21879.784      3.8144313    
   2820200   57018.488     -4.0094764     -6177228.1      0.1073006      169791.32     -6007436.7      1776.0216      1776.0216      1776.0216      1611.9892      3388.0108      1611.9892      3388.0108      1611.9892      3388.0108      5.6020206e+09  0.5            1412600        0.68210028     11151.14       22302.466      3.8054139    
   2820400   57755.124     -3.6045435     -6177313.1      0.1073006      171984.9      -6005328.2      1776.0216      1776.0216      1776.0216      1611.9892      3388.0108      1611.9892      3388.0108      1611.9892      3388.0108      5.6020206e+09  0.5            1412700        0.69123266     10950.062      21900.242      3.7973025    
   2820600   58214.189     -3.309737      -6177332.7      0.1073006      173351.91     -6003980.8      1776.0216      1776.0216      1776.0216      1611.9892      3388.0108      1611.9892      3388.0108      1611.9892      3388.0108      5.6020206e+09  0.5            1412800        0.70014123     11225.093      22450.113      3.7879554    
   2820800   58628.941     -2.9841206     -6177290.6      0.1073006      174586.98     -6002703.6      1776.0216      1776.0216      1776.0216      1611.9892      3388.0108      1611.9892      3388.0108      1611.9892      3388.0108      5.6020206e+09  0.5            1412900        0.70906847     11201.674      22403.424      3.778718     
   2821000   59698.605     -2.6543636     -6179073.6      0.1073006      177772.25     -6001301.3      1776.0216      1776.0216      1776.0216      1611.9892      3388.0108      1611.9892      3388.0108      1611.9892      3388.0108      5.6020206e+09  0.5            1413000        0.71893709     10133.046      20265.759      3.7744326    
   2821200   61301.434     -2.2614693     -6178899.5      0.1073006      182545.2      -5996354.3      1776.0216      1776.0216      1776.0216      1611.9892      3388.0108      1611.9892      3388.0108      1611.9892      3388.0108      5.6020206e+09  0.5            1413100        0.72886271     10074.974      20150.001      3.7703021    
   2821400   61832.127     -1.8941488     -6186022.8      0.1073006      184125.51     -6001897.2      1776.0216      1776.0216      1776.0216      1611.9892      3388.0108      1611.9892      3388.0108      1611.9892      3388.0108      5.6020206e+09  0.5            1413200        0.73785192     11124.52       22249.094      3.7612568    
   2821600   60335.933     -1.5084403     -6185689.9      0.1073006      179670.11     -6006019.8      1776.0216      1776.0216      1776.0216      1611.9892      3388.0108      1611.9892      3388.0108      1611.9892      3388.0108      5.6020206e+09  0.5            1413300        0.74680605     11168.006      22336.291      3.7520366    
   2821800   59948.231     -1.1403519     -6194576.8      0.1073006      178515.6      -6016061.2      1776.0216      1776.0216      1776.0216      1611.9892      3388.0108      1611.9892      3388.0108      1611.9892      3388.0108      5.6020206e+09  0.5            1413400        0.75648934     10327.112      20654.063      3.7464344    
   2822000   63814.21      -0.61501012    -6194117.6      0.1073006      190027.82     -6004089.8      1776.0216      1776.0216      1776.0216      1611.9892      3388.0108      1611.9892      3388.0108      1611.9892      3388.0108      5.6020206e+09  0.5            1413500        0.76550409     11092.766      21808.705      3.7382366    
   2822200   64703.2       -0.19128603    -6195475        0.1073006      192675.08     -6002800        1776.0216      1776.0216      1776.0216      1611.9892      3388.0108      1611.9892      3388.0108      1611.9892      3388.0108      5.6020206e+09  0.5            1413600        0.77464581     10939.045      22257.243      3.7291198    
   2822400   63896.551      0.18195663    -6202272.9      0.1073006      190273.02     -6011999.9      1776.0216      1776.0216      1776.0216      1611.9892      3388.0108      1611.9892      3388.0108      1611.9892      3388.0108      5.6020206e+09  0.5            1413700        0.78381996     10900.126      21800.316      3.7209029    
   2822600   64382.908      0.58356857    -6203899.1      0.1073006      191721.3      -6012177.8      1776.0216      1776.0216      1776.0216      1611.9892      3388.0108      1611.9892      3388.0108      1611.9892      3388.0108      5.6020206e+09  0.5            1413800        0.79283323     11094.777      22189.579      3.7119116    
   2822800   68421.576      1.1256618     -6203575.4      0.1073006      203747.77     -5999827.6      1776.0216      1776.0216      1776.0216      1611.9892      3388.0108      1611.9892      3388.0108      1611.9892      3388.0108      5.6020206e+09  0.5            1413900        0.80180646     11144.289      22288.647      3.7027346    
   2823000   67985.287      1.5726649     -6202808.1      0.1073006      202448.57     -6000359.6      1776.0216      1776.0216      1776.0216      1611.9892      3388.0108      1611.9892      3388.0108      1611.9892      3388.0108      5.6020206e+09  0.5            1414000        0.81097868     10902.309      21804.458      3.6944699    
   2823200   65577.216      1.9069606     -6202001.8      0.1073006      195277.75     -6006724.1      1776.0216      1776.0216      1776.0216      1611.9892      3388.0108      1611.9892      3388.0108      1611.9892      3388.0108      5.6020206e+09  0.5            1414100        0.82001435     11067.37       22134.802      3.6855693    
   2823400   67036.972      2.3798184     -6203083.1      0.1073006      199624.66     -6003458.4      1776.0216      1776.0216      1776.0216      1611.9892      3388.0108      1611.9892      3388.0108      1611.9892      3388.0108      5.6020206e+09  0.5            1414200        0.82898923     11142.226      22284.659      3.6763969    
   2823600   71416.221      2.8689413     -6202576.9      0.1073006      212665.31     -5989911.6      1776.0216      1776.0216      1776.0216      1611.9892      3388.0108      1611.9892      3388.0108      1611.9892      3388.0108      5.6020206e+09  0.5            1414300        0.83816461     10898.782      21797.55       3.6681064    
   2823800   69756.651      3.2509503     -6202053.4      0.1073006      207723.4      -5994330        1776.0216      1776.0216      1776.0216      1611.9892      3388.0108      1611.9892      3388.0108      1611.9892      3388.0108      5.6020206e+09  0.5            1414400        0.84715359     11124.678      22249.352      3.6589923    
   2824000   68297.382      3.566006      -6201174.9      0.1073006      203377.94     -5997796.9      1776.0216      1776.0216      1776.0216      1611.9892      3388.0108      1611.9892      3388.0108      1611.9892      3388.0108      5.6020206e+09  0.5            1414500        0.85653119     10663.71       21327.152      3.6515378    
   2824200   71232.994      3.9712053     -6202225        0.1073006      212119.69     -5990105.3      1776.0216      1776.0216      1776.0216      1611.9892      3388.0108      1611.9892      3388.0108      1611.9892      3388.0108      5.6020206e+09  0.5            1414600        0.86572743     10874.079      21748.466      3.6432784    
   2824400   73636.183      4.31648       -6201415.9      0.1073006      219275.98     -5982140        1776.0216      1776.0216      1776.0216      1611.9892      3388.0108      1611.9892      3388.0108      1611.9892      3388.0108      5.6020206e+09  0.5            1414700        0.87480985     11010.197      22020.376      3.6345284    
   2824600   72590.581      4.6075874     -6200678.2      0.1073006      216162.35     -5984515.8      1776.0216      1776.0216      1776.0216      1611.9892      3388.0108      1611.9892      3388.0108      1611.9892      3388.0108      5.6020206e+09  0.5            1414800        0.88380402     11118.253      22236.407      3.6254095    
   2824800   72176.152      4.8635904     -6200039.3      0.1073006      214928.26     -5985111        1776.0216      1776.0216      1776.0216      1611.9892      3388.0108      1611.9892      3388.0108      1611.9892      3388.0108      5.6020206e+09  0.5            1414900        0.89280565     11109.221      22218.578      3.6163224    
   2825000   75696.688      5.1885193     -6199510.3      0.1073006      225411.81     -5974098.5      1776.0216      1776.0216      1776.0216      1611.9892      3388.0108      1611.9892      3388.0108      1611.9892      3388.0108      5.6020206e+09  0.5            1415000        0.90199543     10881.599      21762.928      3.6079911    
   2825200   78716.911      5.4894486     -6199098.7      0.1073006      234405.52     -5964693.2      1776.0216      1776.0216      1776.0216      1611.9892      3388.0108      1611.9892      3388.0108      1611.9892      3388.0108      5.6020206e+09  0.5            1415100        0.91103028     11068.278      22136.747      3.5990293    
   2825400   76076.318      5.597726      -6198799.7      0.1073006      226542.29     -5972257.4      1776.0216      1776.0216      1776.0216      1611.9892      3388.0108      1611.9892      3388.0108      1611.9892      3388.0108      5.6020206e+09  0.5            1415200        0.91999683     11152.6        22305.305      3.5897996    
   2825600   74987.355      5.7576335     -6198662        0.1073006      223299.54     -5975362.4      1776.0216      1776.0216      1776.0216      1611.9892      3388.0108      1611.9892      3388.0108      1611.9892      3388.0108      5.6020206e+09  0.5            1415300        0.92900495     11101.015      22202.223      3.580736     
   2825800   76748.989      5.9883421     -6199054.4      0.1073006      228545.38     -5970509        1776.0216      1776.0216      1776.0216      1611.9892      3388.0108      1611.9892      3388.0108      1611.9892      3388.0108      5.6020206e+09  0.5            1415400        0.93819257     10884.213      21768.172      3.5723573    
   2826000   80282.115      6.2098257     -6199246.5      0.1073006      239066.43     -5960180.1      1776.0216      1776.0216      1776.0216      1611.9892      3388.0108      1611.9892      3388.0108      1611.9892      3388.0108      5.6020206e+09  0.5            1415500        0.94720983     11089.817      22179.291      3.5633226    
   2826200   80763.625      6.3009309     -6206970.1      0.1073006      240500.28     -5966469.9      1776.0216      1776.0216      1776.0216      1611.9892      3388.0108      1611.9892      3388.0108      1611.9892      3388.0108      5.6020206e+09  0.5            1415600        0.95656783     10686.117      21372.52       3.5555529    
   2826400   75313.384      6.2789816     -6207437.3      0.1073006      224270.4      -5983166.9      1776.0216      1776.0216      1776.0216      1611.9892      3388.0108      1611.9892      3388.0108      1611.9892      3388.0108      5.6020206e+09  0.5            1415700        0.96583168     10794.663      21589.2        3.5474086    
   2826600   77411.972      6.4210437     -6215422.6      0.1073006      230519.63     -5984902.9      1776.0216      1776.0216      1776.0216      1611.9892      3388.0108      1611.9892      3388.0108      1611.9892      3388.0108      5.6020206e+09  0.5            1415800        0.97496033     10954.506      21909.035      3.5387529    
   2826800   81876.513      6.55058       -6218038.3      0.1073006      243814.27     -5974224        1776.0216      1776.0216      1776.0216      1611.9892      3388.0108      1611.9892      3388.0108      1611.9892      3388.0108      5.6020206e+09  0.5            1415900        0.98396833     11101.238      22202.664      3.5296557    
   2827000   82702.106      6.59146       -6218821.2      0.1073006      246272.75     -5972548.4      1776.0216      1776.0216      1776.0216      1611.9892      3388.0108      1611.9892      3388.0108      1611.9892      3388.0108      5.6020206e+09  0.5            1416000        0.99299891     11073.425      22146.633      3.5206411    
   2827200   81262.91       6.5740343     -6219610        0.1073006      241987.07     -5977623        1776.0216      1776.0216      1776.0216      1611.9892      3388.0108      1611.9892      3388.0108      1611.9892      3388.0108      5.6020206e+09  0.5            1416100        1.0022622      10795.463      21591.037      3.5124399    
   2827400   80019.944      6.6308223     -6220380.4      0.1073006      238285.73     -5982094.6      1776.0216      1776.0216      1776.0216      1611.9892      3388.0108      1611.9892      3388.0108      1611.9892      3388.0108      5.6020206e+09  0.5            1416200        1.0113072      11055.782      22111.671      3.5034645    
   2827600   84380.419      6.7162791     -6221132.2      0.1073006      251270.48     -5969861.7      1776.0216      1776.0216      1776.0216      1611.9892      3388.0108      1611.9892      3388.0108      1611.9892      3388.0108      5.6020206e+09  0.5            1416300        1.0203317      11081.027      22161.974      3.4944173    
   2827800   87371.539      6.7820281     -6221843        0.1073006      260177.52     -5961665.5      1776.0216      1776.0216      1776.0216      1611.9892      3388.0108      1611.9892      3388.0108      1611.9892      3388.0108      5.6020206e+09  0.5            1416400        1.0293372      11104.254      22208.524      3.4853067    
   2828000   84959.61       6.7077685     -6229817        0.1073006      252995.21     -5976821.8      1776.0216      1776.0216      1776.0216      1611.9892      3388.0108      1611.9892      3388.0108      1611.9892      3388.0108      5.6020206e+09  0.5            1416500        1.0385365      10870.299      21740.442      3.4768474    
   2828200   83151.979      6.6536174     -6232173.3      0.1073006      247612.39     -5984560.9      1776.0216      1776.0216      1776.0216      1611.9892      3388.0108      1611.9892      3388.0108      1611.9892      3388.0108      5.6020206e+09  0.5            1416600        1.0475955      11038.826      22077.619      3.4679096    
   2828400   88003.529      6.7179752     -6239884.1      0.1073006      262059.48     -5977824.6      1776.0216      1776.0216      1776.0216      1611.9892      3388.0108      1611.9892      3388.0108      1611.9892      3388.0108      5.6020206e+09  0.5            1416700        1.0576297      9965.8828      19931.772      3.4621628    
   2828600   91144.604      6.7635983     -6240080.5      0.1073006      271413.07     -5968667.5      1776.0216      1776.0216      1776.0216      1611.9892      3388.0108      1611.9892      3388.0108      1611.9892      3388.0108      5.6020206e+09  0.5            1416800        1.066953       10725.811      21451.77       3.4540415    
   2828800   88045.572      6.6841239     -6240466.9      0.1073006      262184.68     -5978282.2      1776.0216      1776.0216      1776.0216      1611.9892      3388.0108      1611.9892      3388.0108      1611.9892      3388.0108      5.6020206e+09  0.5            1416900        1.0759629      11099.006      22198.167      3.4448964    
   2829000   86526.718      6.6197854     -6240327.5      0.1073006      257661.79     -5982665.7      1776.0216      1776.0216      1776.0216      1611.9892      3388.0108      1611.9892      3388.0108      1611.9892      3388.0108      5.6020206e+09  0.5            1417000        1.0849861      11082.389      22164.54       3.4357968    
   2829200   89894.935      6.6564408     -6243838.9      0.1073006      267691.77     -5976147.1      1776.0216      1776.0216      1776.0216      1611.9892      3388.0108      1611.9892      3388.0108      1611.9892      3388.0108      5.6020206e+09  0.5            1417100        1.0940547      11027.228      22054.542      3.426839     
   2829400   93339.855      6.7493917     -6243387.5      0.1073006      277950.15     -5965437.4      1776.0216      1776.0216      1776.0216      1611.9892      3388.0108      1611.9892      3388.0108      1611.9892      3388.0108      5.6020206e+09  0.5            1417200        1.103338       10771.919      21543.889      3.4185456    
   2829600   91799.023      6.7791201     -6242736.4      0.1073006      273361.81     -5969374.6      1776.0216      1776.0216      1776.0216      1611.9892      3388.0108      1611.9892      3388.0108      1611.9892      3388.0108      5.6020206e+09  0.5            1417300        1.112347       11100.053      22200.081      3.4093952    
   2829800   90831.79       6.8160859     -6241906.7      0.1073006      270481.56     -5971425.1      1776.0216      1776.0216      1776.0216      1611.9892      3388.0108      1611.9892      3388.0108      1611.9892      3388.0108      5.6020206e+09  0.5            1417400        1.1213469      11111.26       22222.519      3.4002197    
   2830000   91950.66       6.8945313     -6240920.3      0.1073006      273813.36     -5967107        1776.0216      1776.0216      1776.0216      1611.9892      3388.0108      1611.9892      3388.0108      1611.9892      3388.0108      5.6020206e+09  0.5            1417500        1.1305644      10848.87       21697.41       3.3917003    
   2830200   95339.71       7.107554      -6239761.9      0.1073006      283905.37     -5955856.6      1776.0216      1776.0216      1776.0216      1611.9892      3388.0108      1611.9892      3388.0108      1611.9892      3388.0108      5.6020206e+09  0.5            1417600        1.139635       11024.721      22049.781      3.3827324    
   2830400   99045.931      7.2895366     -6238406.9      0.1073006      294941.87     -5943465        1776.0216      1776.0216      1776.0216      1611.9892      3388.0108      1611.9892      3388.0108      1611.9892      3388.0108      5.6020206e+09  0.5            1417700        1.1486428      11101.436      22202.962      3.3735791    
   2830600   97893.83       7.3908416     -6238761.5      0.1073006      291511.11     -5947250.4      1776.0216      1776.0216      1776.0216      1611.9892      3388.0108      1611.9892      3388.0108      1611.9892      3388.0108      5.6020206e+09  0.5            1417800        1.1582606      10397.396      20794.571      3.3662012    
   2830800   91701.169      7.346009      -6238984.4      0.1073006      273070.42     -5965914        1776.0216      1776.0216      1776.0216      1611.9892      3388.0108      1611.9892      3388.0108      1611.9892      3388.0108      5.6020206e+09  0.5            1417900        1.1674396      10894.477      21789.115      3.3575261    
   2831000   93499.285      7.5696741     -6237236.8      0.1073006      278424.91     -5958811.9      1776.0216      1776.0216      1776.0216      1611.9892      3388.0108      1611.9892      3388.0108      1611.9892      3388.0108      5.6020206e+09  0.5            1418000        1.1765241      11007.716      22015.155      3.3485753    
   2831200   97760.769      7.8738957     -6237219.9      0.1073006      291114.88     -5946105        1776.0216      1776.0216      1776.0216      1611.9892      3388.0108      1611.9892      3388.0108      1611.9892      3388.0108      5.6020206e+09  0.5            1418100        1.1858142      10764.157      21528.588      3.3402001    
   2831400   98286.057      8.0477373     -6235150.5      0.1073006      292679.09     -5942471.4      1776.0216      1776.0216      1776.0216      1611.9892      3388.0108      1611.9892      3388.0108      1611.9892      3388.0108      5.6020206e+09  0.5            1418200        1.194859       11056.001      22111.984      3.331128     
   2831600   97992.546      8.2120534     -6232956.5      0.1073006      291805.07     -5941151.5      1776.0216      1776.0216      1776.0216      1611.9892      3388.0108      1611.9892      3388.0108      1611.9892      3388.0108      5.6020206e+09  0.5            1418300        1.2039034      11056.592      22113.082      3.3220553    
   2831800   100749.42      8.4295954     -6230635.3      0.1073006      300014.58     -5930620.7      1776.0216      1776.0216      1776.0216      1611.9892      3388.0108      1611.9892      3388.0108      1611.9892      3388.0108      5.6020206e+09  0.5            1418400        1.2129276      11081.332      22162.676      3.3129276    
   2832000   104355.38      8.7265238     -6235537.5      0.1073006      310752.5      -5924785        1776.0216      1776.0216      1776.0216      1611.9892      3388.0108      1611.9892      3388.0108      1611.9892      3388.0108      5.6020206e+09  0.5            1418500        1.2224837      10464.458      20928.694      3.3052402    
   2832200   100208.79      8.8406607     -6232950.8      0.1073006      298404.65     -5934546.1      1776.0216      1776.0216      1776.0216      1611.9892      3388.0108      1611.9892      3388.0108      1611.9892      3388.0108      5.6020206e+09  0.5            1418600        1.2316234      10941.373      21882.918      3.2964097    
   2832400   96405.423      8.9390122     -6237766.3      0.1073006      287078.89     -5950687.4      1776.0216      1776.0216      1776.0216      1611.9892      3388.0108      1611.9892      3388.0108      1611.9892      3388.0108      5.6020206e+09  0.5            1418700        1.2415484      10075.539      20151.239      3.2896557    
   2832600   102043.5       9.2465309     -6235221.5      0.1073006      303868.11     -5931353.3      1776.0216      1776.0216      1776.0216      1611.9892      3388.0108      1611.9892      3388.0108      1611.9892      3388.0108      5.6020206e+09  0.5            1418800        1.2507614      10854.301      21708.569      3.2809882    
   2832800   103334.13      9.4357357     -6236410.5      0.1073006      307711.38     -5928699.1      1776.0216      1776.0216      1776.0216      1611.9892      3388.0108      1611.9892      3388.0108      1611.9892      3388.0108      5.6020206e+09  0.5            1418900        1.2601752      10622.699      21245.403      3.2728346    
   2833000   102924.29      9.5603298     -6233824.5      0.1073006      306490.97     -5927333.5      1776.0216      1776.0216      1776.0216      1611.9892      3388.0108      1611.9892      3388.0108      1611.9892      3388.0108      5.6020206e+09  0.5            1419000        1.269379       10864.909      21729.473      3.2641239    
   2833200   104479.49      9.8067437     -6231270        0.1073006      311122.07     -5920147.9      1776.0216      1776.0216      1776.0216      1611.9892      3388.0108      1611.9892      3388.0108      1611.9892      3388.0108      5.6020206e+09  0.5            1419100        1.278653       10782.935      21566.163      3.255583     
   2833400   107231.87      10.019786     -6228775        0.1073006      319318.21     -5909456.8      1776.0216      1776.0216      1776.0216      1611.9892      3388.0108      1611.9892      3388.0108      1611.9892      3388.0108      5.6020206e+09  0.5            1419200        1.2876661      11095.022      22190.239      3.2463746    
   2833600   107560.57      10.17317      -6226385.3      0.1073006      320297.02     -5906088.3      1776.0216      1776.0216      1776.0216      1611.9892      3388.0108      1611.9892      3388.0108      1611.9892      3388.0108      5.6020206e+09  0.5            1419300        1.2967298      11032.965      22065.703      3.2372958    
   2833800   104027.28      10.169592     -6240839.7      0.1073006      309775.47     -5931064.3      1776.0216      1776.0216      1776.0216      1611.9892      3388.0108      1611.9892      3388.0108      1611.9892      3388.0108      5.6020206e+09  0.5            1419400        1.305931       10868.136      21736.383      3.2285569    
   2834000   102366.02      10.204564     -6238935.6      0.1073006      304828.54     -5934107.1      1776.0216      1776.0216      1776.0216      1611.9892      3388.0108      1611.9892      3388.0108      1611.9892      3388.0108      5.6020206e+09  0.5            1419500        1.3158951      10035.977      20071.714      3.22168      
   2834200   108921.88      10.430944     -6237302.7      0.1073006      324350.76     -5912952        1776.0216      1776.0216      1776.0216      1611.9892      3388.0108      1611.9892      3388.0108      1611.9892      3388.0108      5.6020206e+09  0.5            1419600        1.3249808      11006.457      22013.292      3.2126297    
   2834400   110460.54      10.494382     -6235930.8      0.1073006      328932.64     -5906998.2      1776.0216      1776.0216      1776.0216      1611.9892      3388.0108      1611.9892      3388.0108      1611.9892      3388.0108      5.6020206e+09  0.5            1419700        1.3341953      10852.466      21704.712      3.203889     
   2834600   108979.58      10.491299     -6234873.6      0.1073006      324522.57     -5910351        1776.0216      1776.0216      1776.0216      1611.9892      3388.0108      1611.9892      3388.0108      1611.9892      3388.0108      5.6020206e+09  0.5            1419800        1.343242       11053.67       22107.372      3.1947429    
   2834800   108169.13      10.483346     -6232266.2      0.1073006      322109.21     -5910157        1776.0216      1776.0216      1776.0216      1611.9892      3388.0108      1611.9892      3388.0108      1611.9892      3388.0108      5.6020206e+09  0.5            1419900        1.3522751      11070.474      22141.085      3.1855656    
   2835000   113306         10.557486     -6239286.9      0.1073006      337405.93     -5901881        1776.0216      1776.0216      1776.0216      1611.9892      3388.0108      1611.9892      3388.0108      1611.9892      3388.0108      5.6020206e+09  0.5            1420000        1.3620522      10227.859      20455.516      3.1781272    
   2835200   116044.57      10.570641     -6239242.9      0.1073006      345560.9      -5893682        1776.0216      1776.0216      1776.0216      1611.9892      3388.0108      1611.9892      3388.0108      1611.9892      3388.0108      5.6020206e+09  0.5            1420100        1.3713518      10753.221      21506.563      3.1695532    
   2835400   111266.27      10.339753     -6239835.7      0.1073006      331331.96     -5908503.7      1776.0216      1776.0216      1776.0216      1611.9892      3388.0108      1611.9892      3388.0108      1611.9892      3388.0108      5.6020206e+09  0.5            1420200        1.3805519      10869.383      21738.672      3.1607423    
   2835600   109551.98      10.210642     -6240328.5      0.1073006      326227.1      -5914101.4      1776.0216      1776.0216      1776.0216      1611.9892      3388.0108      1611.9892      3388.0108      1611.9892      3388.0108      5.6020206e+09  0.5            1420300        1.3896032      11048.17       22096.19       3.1515888    
   2835800   112986.26      10.193329     -6241053.9      0.1073006      336453.78     -5904600.1      1776.0216      1776.0216      1776.0216      1611.9892      3388.0108      1611.9892      3388.0108      1611.9892      3388.0108      5.6020206e+09  0.5            1420400        1.3986315      11076.33       22152.837      3.1423847    
   2836000   114810.73      10.125431     -6242309.8      0.1073006      341886.74     -5900423.1      1776.0216      1776.0216      1776.0216      1611.9892      3388.0108      1611.9892      3388.0108      1611.9892      3388.0108      5.6020206e+09  0.5            1420500        1.4079037      10784.823      21569.454      3.1337265    
   2836200   116060.27      10.023265     -6245183.9      0.1073006      345607.67     -5899576.2      1776.0216      1776.0216      1776.0216      1611.9892      3388.0108      1611.9892      3388.0108      1611.9892      3388.0108      5.6020206e+09  0.5            1420600        1.4169777      11020.61       22041.426      3.1246223    
   2836400   116868.47      9.9515426     -6248076.4      0.1073006      348014.36     -5900062.1      1776.0216      1776.0216      1776.0216      1611.9892      3388.0108      1611.9892      3388.0108      1611.9892      3388.0108      5.6020206e+09  0.5            1420700        1.4260274      11050.094      22100.222      3.1154658    
   2836600   116939.04      9.8160391     -6249035.3      0.1073006      348224.48     -5900810.8      1776.0216      1776.0216      1776.0216      1611.9892      3388.0108      1611.9892      3388.0108      1611.9892      3388.0108      5.6020206e+09  0.5            1420800        1.4352706      10818.73       21637.582      3.1067295    
   2836800   116838.86      9.704173      -6249870.9      0.1073006      347926.18     -5901944.7      1776.0216      1776.0216      1776.0216      1611.9892      3388.0108      1611.9892      3388.0108      1611.9892      3388.0108      5.6020206e+09  0.5            1420900        1.4443063      11067.231      22134.447      3.0975418    
   2837000   118746.65      9.6229627     -6243518.2      0.1073006      353607.24     -5889911        1776.0216      1776.0216      1776.0216      1611.9892      3388.0108      1611.9892      3388.0108      1611.9892      3388.0108      5.6020206e+09  0.5            1421000        1.4536999      10645.617      21291.006      3.0891167    
   2837200   122032.11      9.5516141     -6244344.1      0.1073006      363390.78     -5880953.3      1776.0216      1776.0216      1776.0216      1611.9892      3388.0108      1611.9892      3388.0108      1611.9892      3388.0108      5.6020206e+09  0.5            1421100        1.463132       10601.965      21204.154      3.0807608    
   2837400   121631.13      9.4533461     -6244552        0.1073006      362196.73     -5882355.3      1776.0216      1776.0216      1776.0216      1611.9892      3388.0108      1611.9892      3388.0108      1611.9892      3388.0108      5.6020206e+09  0.5            1421200        1.4725383      10631.226      21262.189      3.0723377    
   2837600   116038.69      9.1421686     -6244521        0.1073006      345543.4      -5898977.6      1776.0216      1776.0216      1776.0216      1611.9892      3388.0108      1611.9892      3388.0108      1611.9892      3388.0108      5.6020206e+09  0.5            1421300        1.4815739      11067.412      22134.925      3.0631357    
   2837800   117286.75      9.1064661     -6244263.8      0.1073006      349259.91     -5895003.9      1776.0216      1776.0216      1776.0216      1611.9892      3388.0108      1611.9892      3388.0108      1611.9892      3388.0108      5.6020206e+09  0.5            1421400        1.4907939      10845.88       21691.805      3.0543139    
   2838000   124608.93      9.1582553     -6243787.8      0.1073006      371064.11     -5872723.7      1776.0216      1776.0216      1776.0216      1611.9892      3388.0108      1611.9892      3388.0108      1611.9892      3388.0108      5.6020206e+09  0.5            1421500        1.4998675      11020.945      22041.9        3.0451903    
   2838200   123979.53      9.0500476     -6235684.2      0.1073006      369189.88     -5866494.4      1776.0216      1776.0216      1776.0216      1611.9892      3388.0108      1611.9892      3388.0108      1611.9892      3388.0108      5.6020206e+09  0.5            1421600        1.5089715      10984.27       21968.58       3.0361278    
   2838400   121727.04      8.8965771     -6234386.6      0.1073006      362482.33     -5871904.3      1776.0216      1776.0216      1776.0216      1611.9892      3388.0108      1611.9892      3388.0108      1611.9892      3388.0108      5.6020206e+09  0.5            1421700        1.518285       10736.982      21473.768      3.0274832    
   2838600   123097.85      8.8074543     -6233291.2      0.1073006      366564.38     -5866726.9      1776.0216      1776.0216      1776.0216      1611.9892      3388.0108      1611.9892      3388.0108      1611.9892      3388.0108      5.6020206e+09  0.5            1421800        1.5273387      11045.319      22090.88       3.0183164    
   2838800   130375.15      8.9331078     -6230133.6      0.1073006      388234.94     -5841898.7      1776.0216      1776.0216      1776.0216      1611.9892      3388.0108      1611.9892      3388.0108      1611.9892      3388.0108      5.6020206e+09  0.5            1421900        1.5365822      10818.423      21636.793      3.0095232    
   2839000   128497.62      8.8600744     -6228744.4      0.1073006      382643.98     -5846100.5      1776.0216      1776.0216      1776.0216      1611.9892      3388.0108      1611.9892      3388.0108      1611.9892      3388.0108      5.6020206e+09  0.5            1422000        1.5457003      10967.067      21933.829      3.0004819    
   2839200   123742.8       8.7070716     -6227283        0.1073006      368484.92     -5858798        1776.0216      1776.0216      1776.0216      1611.9892      3388.0108      1611.9892      3388.0108      1611.9892      3388.0108      5.6020206e+09  0.5            1422100        1.5553089      10407.48       20815.161      2.9923821    
   2839400   124630.08      8.7253711     -6225801.3      0.1073006      371127.08     -5854674.2      1776.0216      1776.0216      1776.0216      1611.9892      3388.0108      1611.9892      3388.0108      1611.9892      3388.0108      5.6020206e+09  0.5            1422200        1.5645401      10832.834      21665.564      2.9835458    
   2839600   127177.23      8.7130373     -6222405.9      0.1073006      378712.07     -5843693.8      1776.0216      1776.0216      1776.0216      1611.9892      3388.0108      1611.9892      3388.0108      1611.9892      3388.0108      5.6020206e+09  0.5            1422300        1.5739368      10642.025      21284.297      2.9750175    
   2839800   129538.96      8.7482625     -6220877        0.1073006      385744.91     -5835132.1      1776.0216      1776.0216      1776.0216      1611.9892      3388.0108      1611.9892      3388.0108      1611.9892      3388.0108      5.6020206e+09  0.5            1422400        1.5830023      11030.759      22061.533      2.9658588    
   2840000   130842.09      8.7958006     -6219346.1      0.1073006      389625.39     -5829720.7      1776.0216      1776.0216      1776.0216      1611.9892      3388.0108      1611.9892      3388.0108      1611.9892      3388.0108      5.6020206e+09  0.5            1422500        1.5922939      10762.47       21524.575      2.9571216    
   2840200   131700.6       8.8514499     -6215932.3      0.1073006      392181.9      -5823750.4      1776.0216      1776.0216      1776.0216      1611.9892      3388.0108      1611.9892      3388.0108      1611.9892      3388.0108      5.6020206e+09  0.5            1422600        1.6022064      10088.187      20176.655      2.9495204    
   2840400   132230.55      8.8275761     -6218208        0.1073006      393759.99     -5824448        1776.0216      1776.0216      1776.0216      1611.9892      3388.0108      1611.9892      3388.0108      1611.9892      3388.0108      5.6020206e+09  0.5            1422700        1.6113084      10986.716      21973.482      2.9404141    
   2840600   131172.53      8.7784389     -6216323.3      0.1073006      390609.39     -5825714        1776.0216      1776.0216      1776.0216      1611.9892      3388.0108      1611.9892      3388.0108      1611.9892      3388.0108      5.6020206e+09  0.5            1422800        1.6206056      10755.797      21511.573      2.9316613    
   2840800   131213.8       8.7963103     -6215177.7      0.1073006      390732.28     -5824445.4      1776.0216      1776.0216      1776.0216      1611.9892      3388.0108      1611.9892      3388.0108      1611.9892      3388.0108      5.6020206e+09  0.5            1422900        1.6297018      10993.691      21987.394      2.9225417    
   2841000   135404.19      8.8667768     -6214020        0.1073006      403210.56     -5810809.5      1776.0216      1776.0216      1776.0216      1611.9892      3388.0108      1611.9892      3388.0108      1611.9892      3388.0108      5.6020206e+09  0.5            1423000        1.6388892      10884.447      21768.582      2.913585     
   2841200   138317.72      8.9832873     -6205075.6      0.1073006      411886.56     -5793189        1776.0216      1776.0216      1776.0216      1611.9892      3388.0108      1611.9892      3388.0108      1611.9892      3388.0108      5.6020206e+09  0.5            1423100        1.6479199      11073.382      22147.119      2.9043487    
   2841400   132588.04      8.8286011     -6203508.1      0.1073006      394824.53     -5808683.6      1776.0216      1776.0216      1776.0216      1611.9892      3388.0108      1611.9892      3388.0108      1611.9892      3388.0108      5.6020206e+09  0.5            1423200        1.6573238      10633.892      21267.772      2.8957672    
   2841600   127543.37      8.7521579     -6201976.5      0.1073006      379802.38     -5822174.1      1776.0216      1776.0216      1776.0216      1611.9892      3388.0108      1611.9892      3388.0108      1611.9892      3388.0108      5.6020206e+09  0.5            1423300        1.6664187      10995.144      21990.266      2.8866416    
   2841800   134362.87      8.9391929     -6193093.7      0.1073006      400109.68     -5792984        1776.0216      1776.0216      1776.0216      1611.9892      3388.0108      1611.9892      3388.0108      1611.9892      3388.0108      5.6020206e+09  0.5            1423400        1.6757141      10758.012      21516.014      2.8778605    
   2842000   137026.74      8.9788104     -6200843.2      0.1073006      408042.22     -5792801        1776.0216      1776.0216      1776.0216      1611.9892      3388.0108      1611.9892      3388.0108      1611.9892      3388.0108      5.6020206e+09  0.5            1423500        1.6847187      11105.35       22210.271      2.8685793    
   2842200   138285.78      8.9350484     -6207048.9      0.1073006      411791.43     -5795257.5      1776.0216      1776.0216      1776.0216      1611.9892      3388.0108      1611.9892      3388.0108      1611.9892      3388.0108      5.6020206e+09  0.5            1423600        1.6939246      10862.702      21725.875      2.8596398    
   2842400   139373.86      8.9203532     -6205468.5      0.1073006      415031.57     -5790436.9      1776.0216      1776.0216      1776.0216      1611.9892      3388.0108      1611.9892      3388.0108      1611.9892      3388.0108      5.6020206e+09  0.5            1423700        1.7029137      11124.484      22248.874      2.8503353    
   2842600   140556.49      8.8714058     -6203891.2      0.1073006      418553.24     -5785337.9      1776.0216      1776.0216      1776.0216      1611.9892      3388.0108      1611.9892      3388.0108      1611.9892      3388.0108      5.6020206e+09  0.5            1423800        1.7121312      10848.988      21697.975      2.8414128    
   2842800   141331.25      8.8525875     -6200421.9      0.1073006      420860.32     -5779561.5      1776.0216      1776.0216      1776.0216      1611.9892      3388.0108      1611.9892      3388.0108      1611.9892      3388.0108      5.6020206e+09  0.5            1423900        1.7211006      11149.099      22298.06       2.8320792    
   2843000   140392.35      8.7374199     -6198866.2      0.1073006      418064.45     -5780801.8      1776.0216      1776.0216      1776.0216      1611.9892      3388.0108      1611.9892      3388.0108      1611.9892      3388.0108      5.6020206e+09  0.5            1424000        1.7302637      10913.126      21826.148      2.8230659    
   2843200   139641.96      8.6496878     -6197364.4      0.1073006      415829.9      -5781534.5      1776.0216      1776.0216      1776.0216      1611.9892      3388.0108      1611.9892      3388.0108      1611.9892      3388.0108      5.6020206e+09  0.5            1424100        1.7393095      11054.932      22110.046      2.8138603    
   2843400   143392.13      8.6656422     -6194031.7      0.1073006      426997.28     -5767034.4      1776.0216      1776.0216      1776.0216      1611.9892      3388.0108      1611.9892      3388.0108      1611.9892      3388.0108      5.6020206e+09  0.5            1424200        1.7484711      10915.156      21830.184      2.8048429    
   2843600   147686.66      8.6853025     -6200047.1      0.1073006      439785.64     -5760261.5      1776.0216      1776.0216      1776.0216      1611.9892      3388.0108      1611.9892      3388.0108      1611.9892      3388.0108      5.6020206e+09  0.5            1424300        1.7577647      10760.143      21520.621      2.7960331    
   2843800   143426.87      8.4415949     -6198771        0.1073006      427100.72     -5771670.3      1776.0216      1776.0216      1776.0216      1611.9892      3388.0108      1611.9892      3388.0108      1611.9892      3388.0108      5.6020206e+09  0.5            1424400        1.7668577      10997.583      21995.026      2.7869025    
   2844000   136267.76      8.2376411     -6190289.7      0.1073006      405782.13     -5784507.6      1776.0216      1776.0216      1776.0216      1611.9892      3388.0108      1611.9892      3388.0108      1611.9892      3388.0108      5.6020206e+09  0.5            1424500        1.7761494      10762.128      21523.959      2.7780836    
   2844200   142155.8       8.2297526     -6189360.5      0.1073006      423315.68     -5766044.8      1776.0216      1776.0216      1776.0216      1611.9892      3388.0108      1611.9892      3388.0108      1611.9892      3388.0108      5.6020206e+09  0.5            1424600        1.7851844      11068.16       22136.527      2.7688608    
   2844400   145980.25      8.217624      -6188597.6      0.1073006      434704.26     -5753893.4      1776.0216      1776.0216      1776.0216      1611.9892      3388.0108      1611.9892      3388.0108      1611.9892      3388.0108      5.6020206e+09  0.5            1424700        1.7943484      10912.246      21824.528      2.7598387    
   2844600   147102.03      8.1507693     -6178720.7      0.1073006      438044.74     -5740675.9      1776.0216      1776.0216      1776.0216      1611.9892      3388.0108      1611.9892      3388.0108      1611.9892      3388.0108      5.6020206e+09  0.5            1424800        1.8033         11171.141      22342.404      2.7504911    
   2844800   147843.7       8.034284      -6178287.5      0.1073006      440253.3      -5738034.2      1776.0216      1776.0216      1776.0216      1611.9892      3388.0108      1611.9892      3388.0108      1611.9892      3388.0108      5.6020206e+09  0.5            1424900        1.8124138      10972.379      21944.827      2.7413929    
   2845000   148628.63      7.9083096     -6176129        0.1073006      442590.69     -5733538.4      1776.0216      1776.0216      1776.0216      1611.9892      3388.0108      1611.9892      3388.0108      1611.9892      3388.0108      5.6020206e+09  0.5            1425000        1.8213597      11178.328      22356.203      2.7320431    
   2845200   149798.89      7.8147231     -6169044        0.1073006      446075.51     -5722968.5      1776.0216      1776.0216      1776.0216      1611.9892      3388.0108      1611.9892      3388.0108      1611.9892      3388.0108      5.6020206e+09  0.5            1425100        1.830619       10799.823      21599.907      2.7231629    
   2845400   150435.13      7.6163754     -6169128.5      0.1073006      447970.13     -5721158.3      1776.0216      1776.0216      1776.0216      1611.9892      3388.0108      1611.9892      3388.0108      1611.9892      3388.0108      5.6020206e+09  0.5            1425200        1.8396179      11112.642      22225.398      2.7138949    
   2845600   149712.61      7.4394037     -6169358.2      0.1073006      445818.58     -5723539.6      1776.0216      1776.0216      1776.0216      1611.9892      3388.0108      1611.9892      3388.0108      1611.9892      3388.0108      5.6020206e+09  0.5            1425300        1.8487931      10898.829      21797.341      2.7048879    
   2845800   149531.18      7.3071254     -6169694.2      0.1073006      445278.32     -5724415.9      1776.0216      1776.0216      1776.0216      1611.9892      3388.0108      1611.9892      3388.0108      1611.9892      3388.0108      5.6020206e+09  0.5            1425400        1.8580673      10782.702      21565.579      2.6960224    
   2846000   153303.84      7.1456667     -6170458.9      0.1073006      456512.67     -5713946.2      1776.0216      1776.0216      1776.0216      1611.9892      3388.0108      1611.9892      3388.0108      1611.9892      3388.0108      5.6020206e+09  0.5            1425500        1.8673464      10776.936      21553.292      2.6871605    
   2846200   157535.22      7.112778      -6170875.2      0.1073006      469112.99     -5701762.2      1776.0216      1776.0216      1776.0216      1611.9892      3388.0108      1611.9892      3388.0108      1611.9892      3388.0108      5.6020206e+09  0.5            1425600        1.8765583      10855.514      21711.512      2.678198     
   2846400   152862.16      6.7047156     -6178619.7      0.1073006      455197.41     -5723422.3      1776.0216      1776.0216      1776.0216      1611.9892      3388.0108      1611.9892      3388.0108      1611.9892      3388.0108      5.6020206e+09  0.5            1425700        1.8858716      10737.287      21474.518      2.669377     
   2846600   146712.56      6.3860867     -6177039.4      0.1073006      436884.95     -5740154.5      1776.0216      1776.0216      1776.0216      1611.9892      3388.0108      1611.9892      3388.0108      1611.9892      3388.0108      5.6020206e+09  0.5            1425800        1.894847       11141.446      22283.043      2.6600769    
   2846800   152865.15      6.3408996     -6184647.6      0.1073006      455206.33     -5729441.2      1776.0216      1776.0216      1776.0216      1611.9892      3388.0108      1611.9892      3388.0108      1611.9892      3388.0108      5.6020206e+09  0.5            1425900        1.9039854      10942.989      21886.024      2.6510065    
   2847000   156999.68      6.1730417     -6199118.4      0.1073006      467518.25     -5731600.2      1776.0216      1776.0216      1776.0216      1611.9892      3388.0108      1611.9892      3388.0108      1611.9892      3388.0108      5.6020206e+09  0.5            1426000        1.9129775      11120.894      22241.429      2.6417341    
   2847200   156375.24      5.9702165     -6199006.9      0.1073006      465658.77     -5733348.1      1776.0216      1776.0216      1776.0216      1611.9892      3388.0108      1611.9892      3388.0108      1611.9892      3388.0108      5.6020206e+09  0.5            1426100        1.9222072      10834.546      21669.426      2.6327891    
   2847400   155465.09      5.7633209     -6200569.8      0.1073006      462948.48     -5737621.3      1776.0216      1776.0216      1776.0216      1611.9892      3388.0108      1611.9892      3388.0108      1611.9892      3388.0108      5.6020206e+09  0.5            1426200        1.9312127      11104.41       22208.904      2.623537     
   2847600   158235.65      5.6522659     -6199634.2      0.1073006      471198.75     -5728435.5      1776.0216      1776.0216      1776.0216      1611.9892      3388.0108      1611.9892      3388.0108      1611.9892      3388.0108      5.6020206e+09  0.5            1426300        1.9404497      10825.945      21651.798      2.6145999    
   2847800   164945.95      5.697809      -6198426.7      0.1073006      491180.88     -5707245.8      1776.0216      1776.0216      1776.0216      1611.9892      3388.0108      1611.9892      3388.0108      1611.9892      3388.0108      5.6020206e+09  0.5            1426400        1.9494134      11156.146      22312.275      2.6052937    
   2848000   161296.52      5.5279307     -6197309.9      0.1073006      480313.49     -5716996.4      1776.0216      1776.0216      1776.0216      1611.9892      3388.0108      1611.9892      3388.0108      1611.9892      3388.0108      5.6020206e+09  0.5            1426500        1.9589629      10471.687      20943.305      2.5967678    
   2848200   153055.9       5.2507823     -6195976.7      0.1073006      455774.34     -5740202.3      1776.0216      1776.0216      1776.0216      1611.9892      3388.0108      1611.9892      3388.0108      1611.9892      3388.0108      5.6020206e+09  0.5            1426600        1.9680918      10954.336      21908.817      2.587679     
   2848400   156522.03      5.2174008     -6194457.1      0.1073006      466095.89     -5728361.3      1776.0216      1776.0216      1776.0216      1611.9892      3388.0108      1611.9892      3388.0108      1611.9892      3388.0108      5.6020206e+09  0.5            1426700        1.9774513      10684.281      21368.551      2.5788908    
   2848600   160724.05      5.1796158     -6200110.9      0.1073006      478608.79     -5721502.1      1776.0216      1776.0216      1776.0216      1611.9892      3388.0108      1611.9892      3388.0108      1611.9892      3388.0108      5.6020206e+09  0.5            1426800        1.9864179      11152.585      22305.195      2.5695891    
   2848800   162671.35      5.1654452     -6205597.2      0.1073006      484407.51     -5721189.7      1776.0216      1776.0216      1776.0216      1611.9892      3388.0108      1611.9892      3388.0108      1611.9892      3388.0108      5.6020206e+09  0.5            1426900        1.995619       10868.197      21736.378      2.5605915    
   2849000   163819.02      5.1884441     -6194292.5      0.1073006      487825.06     -5706467.4      1776.0216      1776.0216      1776.0216      1611.9892      3388.0108      1611.9892      3388.0108      1611.9892      3388.0108      5.6020206e+09  0.5            1427000        2.0047483      10953.663      21907.187      2.5515008    
   2849200   165457.42      5.1672953     -6192168.7      0.1073006      492703.93     -5699464.7      1776.0216      1776.0216      1776.0216      1611.9892      3388.0108      1611.9892      3388.0108      1611.9892      3388.0108      5.6020206e+09  0.5            1427100        2.01417        10613.841      21227.851      2.5427784    
   2849400   167599.17      5.1460761     -6189943.1      0.1073006      499081.72     -5690861.4      1776.0216      1776.0216      1776.0216      1611.9892      3388.0108      1611.9892      3388.0108      1611.9892      3388.0108      5.6020206e+09  0.5            1427200        2.0232718      10986.823      21973.584      2.5336494    
   2849600   165155.87      5.0465381     -6185790.8      0.1073006      491805.98     -5693984.9      1776.0216      1776.0216      1776.0216      1611.9892      3388.0108      1611.9892      3388.0108      1611.9892      3388.0108      5.6020206e+09  0.5            1427300        2.032533       10797.633      21595.331      2.5247186    
   2849800   160831.36      4.9588649     -6175810.6      0.1073006      478928.32     -5696882.3      1776.0216      1776.0216      1776.0216      1611.9892      3388.0108      1611.9892      3388.0108      1611.9892      3388.0108      5.6020206e+09  0.5            1427400        2.0416008      11028.099      22056.054      2.5155466    
[...]
   3494400   312.07868      0.99015616    -7914686.1      0.12913582     929.31702     -7913756.8      1669.6805      1669.6805      1669.6805      1665.1598      3334.8402      1665.1598      3334.8402      1665.1598      3334.8402      4.6547902e+09  0.5            1749700        19.332982      7495.8276      14991.61       0.70811901   
   3494600   312.14454      0.99454318    -7914829.4      0.12914958     929.51314     -7913899.9      1669.6212      1669.6212      1669.6212      1665.1894      3334.8106      1665.1894      3334.8106      1665.1894      3334.8106      4.6542942e+09  0.5            1749800        19.346309      7503.8863      15007.811      0.69475704   
   3494800   312.14402      1.0174005     -7914972        0.12916486     929.5116      -7914042.5      1669.5553      1669.5553      1669.5553      1665.2223      3334.7777      1665.2223      3334.7777      1665.2223      3334.7777      4.6537437e+09  0.5            1749900        19.360004      7301.8305      14603.688      0.6814081    
   3495000   312.02638      1.0111046     -7915116        0.12917649     929.16127     -7914186.9      1669.5052      1669.5052      1669.5052      1665.2474      3334.7526      1665.2474      3334.7526      1665.2474      3334.7526      4.6533246e+09  0.5            1750000        19.374169      7059.7134      14119.314      0.66807489   
   3495200   311.91202      0.98019851    -7915260.7      0.12918532     928.82074     -7914331.9      1669.4672      1669.4672      1669.4672      1665.2664      3334.7336      1665.2664      3334.7336      1665.2664      3334.7336      4.6530065e+09  0.5            1750100        19.387569      7462.9244      14925.929      0.65471467   
   3495400   311.86138      0.96995349    -7915403.6      0.12919655     928.66994     -7914474.9      1669.4188      1669.4188      1669.4188      1665.2906      3334.7094      1665.2906      3334.7094      1665.2906      3334.7094      4.6526021e+09  0.5            1750200        19.400921      7489.0688      14978.168      0.64135286   
   3495600   311.89575      1.0265093     -7915542.2      0.1292154      928.77228     -7914613.4      1669.3376      1669.3376      1669.3376      1665.3312      3334.6688      1665.3312      3334.6688      1665.3312      3334.6688      4.6519235e+09  0.5            1750300        19.414295      7477.5077      14954.982      0.62799172   
   3495800   311.94548      1.0118868     -7915684.5      0.12922702     928.92036     -7914755.5      1669.2876      1669.2876      1669.2876      1665.3562      3334.6438      1665.3562      3334.6438      1665.3562      3334.6438      4.651505e+09   0.5            1750400        19.427612      7508.8334      15017.665      0.61462881   
   3496000   311.98145      0.96362026    -7915828.5      0.12923537     929.02749     -7914899.4      1669.2516      1669.2516      1669.2516      1665.3742      3334.6258      1665.3742      3334.6258      1665.3742      3334.6258      4.6512045e+09  0.5            1750500        19.44096       7492.1581      14984.262      0.60126688   
   3496200   312.05868      1.0491459     -7915965        0.12925852     929.25746     -7915035.7      1669.152       1669.152       1669.152       1665.424       3334.576       1665.424       3334.576       1665.424       3334.576       4.6503715e+09  0.5            1750600        19.454964      7140.6879      14281.413      0.58792481   
   3496400   312.05662      0.9434923     -7916112.6      0.12926069     929.25134     -7915183.3      1669.1427      1669.1427      1669.1427      1665.4287      3334.5713      1665.4287      3334.5713      1665.4287      3334.5713      4.6502935e+09  0.5            1750700        19.468502      7386.8664      14773.767      0.57456807   
   3496600   312.05482      1.0592602     -7916247.5      0.1292873      929.24596     -7915318.3      1669.0281      1669.0281      1669.0281      1665.4859      3334.5141      1665.4859      3334.5141      1665.4859      3334.5141      4.6493362e+09  0.5            1750800        19.481846      7493.6875      14987.355      0.56120552   
   3496800   312.0107       0.94083667    -7916395.9      0.12928817     929.1146      -7915466.8      1669.0244      1669.0244      1669.0244      1665.4878      3334.5122      1665.4878      3334.5122      1665.4878      3334.5122      4.6493052e+09  0.5            1750900        19.495244      7463.6178      14927.256      0.5478445    
   3497000   312.0109       1.0617651     -7916530.5      0.12931549     929.11518     -7915601.4      1668.9068      1668.9068      1668.9068      1665.5466      3334.4534      1665.5466      3334.4534      1665.5466      3334.4534      4.6483227e+09  0.5            1751000        19.508617      7478.021       14955.908      0.53448273   
   3497200   312.05831      0.92755981    -7916680        0.12931487     929.25637     -7915750.7      1668.9095      1668.9095      1668.9095      1665.5452      3334.4548      1665.5452      3334.4548      1665.5452      3334.4548      4.6483452e+09  0.5            1751100        19.522019      7461.3335      14922.815      0.52112173   
   3497400   312.13429      1.1083864     -7916812        0.12934826     929.48261     -7915882.5      1668.7659      1668.7659      1668.7659      1665.6171      3334.3829      1665.6171      3334.3829      1665.6171      3334.3829      4.647145e+09   0.5            1751200        19.53533       7512.5266      15025.05       0.50775831   
   3497600   312.00978      0.87039581    -7916967.8      0.12933523     929.11186     -7916038.7      1668.8219      1668.8219      1668.8219      1665.589       3334.411       1665.589       3334.411       1665.589       3334.411       4.6476133e+09  0.5            1751300        19.54863       7518.8106      15037.601      0.49439468   
   3497800   311.87508      1.0374871     -7917100.7      0.12936585     928.71073     -7916172        1668.6902      1668.6902      1668.6902      1665.6549      3334.3451      1665.6549      3334.3451      1665.6549      3334.3451      4.6465132e+09  0.5            1751400        19.562315      7307.3407      14614.713      0.4810406    
   3498000   311.76744      1.0982934     -7917237.9      0.12938544     928.39019     -7916309.5      1668.606       1668.606       1668.606       1665.697       3334.303       1665.697       3334.303       1665.697       3334.303       4.6458097e+09  0.5            1751500        19.576074      7268.3081      14536.422      0.46768783   
   3498200   311.82497      0.82970105    -7917392.9      0.12936998     928.56151     -7916464.3      1668.6725      1668.6725      1668.6725      1665.6638      3334.3362      1665.6638      3334.3362      1665.6638      3334.3362      4.6463648e+09  0.5            1751600        19.589517      7438.6387      14877.395      0.45432719   
   3498400   312.08934      1.1929832     -7917513.2      0.1294237      929.34876     -7916583.8      1668.4416      1668.4416      1668.4416      1665.7792      3334.2208      1665.7792      3334.2208      1665.7792      3334.2208      4.6444364e+09  0.5            1751700        19.602845      7502.9826      15005.981      0.44096385   
   3498600   312.11512      0.88438374    -7917673.2      0.12940366     929.42554     -7916743.8      1668.5277      1668.5277      1668.5277      1665.7361      3334.2639      1665.7361      3334.2639      1665.7361      3334.2639      4.6451556e+09  0.5            1751800        19.616177      7500.7866      15001.61       0.42760064   
   3498800   312.01179      0.88042602    -7917815.4      0.12941611     929.11783     -7916886.3      1668.4742      1668.4742      1668.4742      1665.7629      3334.2371      1665.7629      3334.2371      1665.7629      3334.2371      4.6447087e+09  0.5            1751900        19.629491      7510.822       15021.537      0.4142371    
   3499000   311.85637      1.1948917     -7917938.7      0.12946235     928.65502     -7917010        1668.2755      1668.2755      1668.2755      1665.8622      3334.1378      1665.8622      3334.1378      1665.8622      3334.1378      4.6430497e+09  0.5            1752000        19.642871      7474.0265      14948.026      0.40087497   
   3499200   311.7264       1.1141686     -7918084.5      0.12946623     928.26799     -7917156.2      1668.2589      1668.2589      1668.2589      1665.8706      3334.1294      1665.8706      3334.1294      1665.8706      3334.1294      4.6429108e+09  0.5            1752100        19.656706      7227.8844      14455.92       0.38752179   
   3499400   311.71933      0.81714965    -7918240.5      0.1294474      928.24694     -7917312.3      1668.3398      1668.3398      1668.3398      1665.8301      3334.1699      1665.8301      3334.1699      1665.8301      3334.1699      4.6435862e+09  0.5            1752200        19.6702        7410.8883      14821.772      0.37416145   
   3499600   311.84264      0.88330471    -7918377.7      0.12946771     928.61414     -7917449        1668.2525      1668.2525      1668.2525      1665.8737      3334.1263      1665.8737      3334.1263      1665.8737      3334.1263      4.6428577e+09  0.5            1752300        19.683525      7504.5682      15009.1        0.36079786   
   3499800   311.91408      1.1349779     -7918503.9      0.12950764     928.82687     -7917575        1668.081       1668.081       1668.081       1665.9595      3334.0405      1665.9595      3334.0405      1665.9595      3334.0405      4.641426e+09   0.5            1752400        19.696903      7474.9662      14949.903      0.34743524   
   3500000   311.81876      1.1356071     -7918643.8      0.12952053     928.54302     -7917715.3      1668.0257      1668.0257      1668.0257      1665.9871      3334.0129      1665.9871      3334.0129      1665.9871      3334.0129      4.6409643e+09  0.5            1752500        19.7103        7464.2039      14928.254      0.33407293   
   3500200   311.71135      0.91997471    -7918795.6      0.1295104      928.22318     -7917867.4      1668.0692      1668.0692      1668.0692      1665.9654      3334.0346      1665.9654      3334.0346      1665.9654      3334.0346      4.6413272e+09  0.5            1752600        19.723931      7336.5316      14673.153      0.32071436   
   3500400   311.74457      0.92063684    -7918934.8      0.12952381     928.32209     -7918006.5      1668.0116      1668.0116      1668.0116      1665.9942      3334.0058      1665.9942      3334.0058      1665.9942      3334.0058      4.6408465e+09  0.5            1752700        19.73728       7490.8623      14981.738      0.30735105   
   3500600   311.83535      1.0799744     -7919065.5      0.12955426     928.59241     -7918136.9      1667.8809      1667.8809      1667.8809      1666.0595      3333.9405      1666.0595      3333.9405      1666.0595      3333.9405      4.6397558e+09  0.5            1752800        19.750675      7465.8389      14931.777      0.29398843   
   3500800   311.8076       1.0066042     -7919209.3      0.1295593      928.50978     -7918280.8      1667.8593      1667.8593      1667.8593      1666.0704      3333.9296      1666.0704      3333.9296      1666.0704      3333.9296      4.6395753e+09  0.5            1752900        19.764508      7228.8139      14457.647      0.280632     
   3501000   311.71229      0.94904615    -7919351.4      0.12956611     928.22596     -7918423.2      1667.8301      1667.8301      1667.8301      1666.0849      3333.9151      1666.0849      3333.9151      1666.0849      3333.9151      4.6393317e+09  0.5            1753000        19.778009      7406.8917      14813.604      0.26727043   
   3501200   311.74084      1.0531602     -7919483.8      0.12959131     928.31098     -7918555.5      1667.722       1667.722       1667.722       1666.139       3333.861       1666.139       3333.861       1666.139       3333.861       4.6384294e+09  0.5            1753100        19.791435      7448.0828      14896.264      0.25390771   
   3501400   311.87375      0.9514998     -7919628.3      0.12959464     928.70678     -7918699.6      1667.7077      1667.7077      1667.7077      1666.1462      3333.8538      1666.1462      3333.8538      1666.1462      3333.8538      4.6383103e+09  0.5            1753200        19.804772      7498.3631      14996.796      0.24054381   
   3501600   312.02897      1.0447792     -7919762.7      0.12961916     929.16899     -7918833.6      1667.6025      1667.6025      1667.6025      1666.1987      3333.8013      1666.1987      3333.8013      1666.1987      3333.8013      4.6374328e+09  0.5            1753300        19.818139      7480.8858      14961.753      0.22718031   
   3501800   311.99146      0.95477683    -7919908        0.1296229      929.0573      -7918979        1667.5865      1667.5865      1667.5865      1666.2067      3333.7933      1666.2067      3333.7933      1666.2067      3333.7933      4.6372992e+09  0.5            1753400        19.831497      7486.3019      14972.653      0.2138167    
   3502000   311.8886       1.0476076     -7920042.8      0.12964657     928.75098     -7919114        1667.485       1667.485       1667.485       1666.2575      3333.7425      1666.2575      3333.7425      1666.2575      3333.7425      4.6364522e+09  0.5            1753500        19.844817      7507.5272      15014.9        0.20045272   
   3502200   311.84348      0.94968535    -7920188.2      0.12964947     928.61662     -7919259.5      1667.4726      1667.4726      1667.4726      1666.2637      3333.7363      1666.2637      3333.7363      1666.2637      3333.7363      4.6363487e+09  0.5            1753600        19.858762      7171.0465      14342.206      0.18709468   
   3502400   311.93981      1.0528061     -7920322.3      0.12967467     928.90349     -7919393.4      1667.3645      1667.3645      1667.3645      1666.3177      3333.6823      1666.3177      3333.6823      1666.3177      3333.6823      4.6354476e+09  0.5            1753700        19.872295      7389.1726      14778.353      0.17373226   
   3502600   312.03907      0.94591027    -7920469.1      0.12967682     929.19905     -7919539.9      1667.3553      1667.3553      1667.3553      1666.3223      3333.6777      1666.3223      3333.6777      1666.3223      3333.6777      4.6353706e+09  0.5            1753800        19.886536      7022.0247      14043.963      0.16037531   
   3502800   312.11441      1.0503817     -7920604.7      0.12970184     929.42342     -7919675.2      1667.2481      1667.2481      1667.2481      1666.3759      3333.6241      1666.3759      3333.6241      1666.3759      3333.6241      4.6344766e+09  0.5            1753900        19.899894      7486.0139      14972.073      0.14701065   
   3503000   312.04542      0.96447774    -7920751.4      0.12970561     929.21797     -7919822.2      1667.2319      1667.2319      1667.2319      1666.384       3333.616       1666.384       3333.616       1666.384       3333.616       4.6343418e+09  0.5            1754000        19.913265      7478.941       14957.799      0.13364609   
   3503200   311.93789      1.0035545     -7920890.9      0.12972257     928.89778     -7919962        1667.1593      1667.1593      1667.1593      1666.4203      3333.5797      1666.4203      3333.5797      1666.4203      3333.5797      4.6337362e+09  0.5            1754100        19.926846      7363.362       14726.803      0.12028279   
   3503400   311.84881      0.94764767    -7928411.2      0.12973238     928.6325      -7927482.6      1667.1173      1667.1173      1667.1173      1666.4414      3333.5586      1666.4414      3333.5586      1666.4414      3333.5586      4.6333857e+09  0.5            1754200        19.940288      7439.4599      14878.597      0.10691845   
   3503600   311.86745      1.0367624     -7928546.8      0.12975552     928.68801     -7927618.1      1667.0182      1667.0182      1667.0182      1666.4909      3333.5091      1666.4909      3333.5091      1666.4909      3333.5091      4.6325595e+09  0.5            1754300        19.954038      7272.6136      14545.484      0.093555447  
   3503800   311.9106       0.97159456    -7928691.2      0.12976206     928.81651     -7927762.4      1666.9902      1666.9902      1666.9902      1666.5049      3333.4951      1666.5049      3333.4951      1666.5049      3333.4951      4.6323259e+09  0.5            1754400        19.967679      7330.8065      14661.651      0.080191491  
   3504000   312.00928      1.0308568     -7928828.6      0.12978268     929.11035     -7927899.5      1666.9019      1666.9019      1666.9019      1666.5491      3333.4509      1666.5491      3333.4509      1666.5491      3333.4509      4.6315899e+09  0.5            1754500        19.981499      7235.5445      14470.983      0.066827767  
   3504200   312.11875      0.97467922    -7928973.3      0.12979072     929.43634     -7928043.8      1666.8674      1666.8674      1666.8674      1666.5663      3333.4337      1666.5663      3333.4337      1666.5663      3333.4337      4.6313028e+09  0.5            1754600        19.994974      7421.4152      14842.921      0.053462504  
   3504400   312.15839      0.95530611    -7929116.6      0.12980229     929.55438     -7928187        1666.8179      1666.8179      1666.8179      1666.591       3333.409       1666.591       3333.409       1666.591       3333.409       4.6308901e+09  0.5            1754700        20.008351      7475.5954      14951.202      0.040096901  
   3504600   312.13283      1.1635169     -7929246.6      0.12983815     929.47826     -7928317.1      1666.6644      1666.6644      1666.6644      1666.6678      3333.3322      1666.6678      3333.3322      1666.6678      3333.3322      4.629611e+09   0.5            1754800        20.021772      7451.0029      14902.034      0.026731341  
   3504800   312.01331      0.8027857     -7929408.8      0.12981203     929.12236     -7928479.7      1666.7762      1666.7762      1666.7762      1666.6119      3333.3881      1666.6119      3333.3881      1666.6119      3333.3881      4.6305426e+09  0.5            1754900        20.035139      7481.1824      14962.426      0.013365671  
   3505000   311.97383      1.0507785     -7929538.4      0.12985155     929.0048      -7928609.4      1666.6071      1666.6071      1666.6071      1666.6964      3333.3036      1666.6964      3333.3036      1666.6964      3333.3036      4.6291335e+09  0.5            1755000        20.048543      7460.3922      14920.638      0            
Loop time of 20.0486 on 4 procs for 300000 steps with 1000 atoms

Performance: 646.429 ns/day, 0.037 hours/ns, 14963.628 timesteps/s
99.6% CPU use with 4 MPI tasks x no OpenMP threads

MPI task timing breakdown:
Section |  min time  |  avg time  |  max time  |%varavg| %total
---------------------------------------------------------------
Pair    | 0.70479    | 2.649      | 5.4278     | 106.3 | 13.21
Neigh   | 0.0071044  | 0.01792    | 0.033041   |   7.1 |  0.09
Comm    | 6.3175     | 8.1616     | 9.2598     |  40.2 | 40.71
Output  | 0.054866   | 0.073807   | 0.12836    |  11.6 |  0.37
Modify  | 6.6523     | 6.9799     | 7.4311     |  12.6 | 34.81
Other   |            | 2.166      |            |       | 10.81

Nlocal:            250 ave         447 max         104 min
Histogram: 1 0 0 2 0 0 0 0 0 1
Nghost:         257.75 ave         326 max         191 min
Histogram: 1 0 0 0 1 1 0 0 0 1
Neighs:          290.5 ave         682 max          40 min
Histogram: 1 0 1 1 0 0 0 0 0 1

Total # of neighbors = 1162
Ave neighs/atom = 1.162
Neighbor list builds = 251
Dangerous builds = 48

# run_style
run_style verlet

# write restart
write_restart ${write_res}
write_restart ./pgnpmf/37/equpmf5.res
System init for write_restart ...
Generated 0 of 1 mixed pair_coeff terms from geometric mixing rule

Total wall time: 0:00:38
