LAMMPS (23 Jun 2022 - Update 1)
# Read restart
read_restart ${read_res}
read_restart ./pgnpmf/37/equpmf31.res
Reading restart file ...
  restart file = 23 Jun 2022, LAMMPS = 23 Jun 2022
  restoring atom style atomic from restart
  orthogonal box = (1978.3426 1978.3426 1978.3426) to (3021.6574 3021.6574 3021.6574)
  1 by 2 by 2 MPI processor grid
  restoring pair style table from restart
  1000 atoms
  read_restart CPU = 0.017 seconds

# Settings

pair_style table spline 9941

pair_coeff 1 1 ./pgnpmf/N20.txt DE_GNP 75.6
pair_coeff 2 2 ./pgnpmf/N100.txt DE_GNP 115.92
WARNING: 3 of 9941 force values in table DE_GNP are inconsistent with -dE/dr.
WARNING:  Should only be flagged at inflection points (../pair_table.cpp:463)
pair_coeff 1 2 ./pgnpmf/mixed_potential.txt DE_GNP 95.66
WARNING: 1562 of 9941 force values in table DE_GNP are inconsistent with -dE/dr.
WARNING:  Should only be flagged at inflection points (../pair_table.cpp:463)

#Neigh_list Calc Frequency

neigh_modify delay 0 every 1 check yes

# Saving Frequency (50 frames)

variable ts_save equal ${steps_equ}
variable ts_save equal 5000

# Dump
#dump 1 all custom ${ts_save} ./pgnpmf/${folder}/equilibration/trajectory/trajectory_${usic}_${trial}.equ.custom type x y z ix iy iz
#dump_modify 1 first no sort id
#dump 2 all cfg 50000 ./equilibration/trajectory/ovito/dumpgen.tens_*.cfg mass type xs ys zs fx fy fz

# thermo_style
thermo_style custom step temp press pe density ke etotal lx ly lz xlo xhi ylo yhi zlo zhi vol dt time cpu tpcpu spcpu cpuremain

# run info
timestep ${ts}
timestep 0.5
thermo 200

# fix

fix 1 all momentum 1000 linear 1 1 1 angular
variable T equal ${temp}
variable T equal 300
fix 2 all nvt temp ${T} 370000 100.0
fix 2 all nvt temp 300 370000 100.0

run 100000
Generated 0 of 1 mixed pair_coeff terms from geometric mixing rule
Unused restart file global fix info:
  fix style: npt, fix ID: 5
Neighbor list info ...
  update every 1 steps, delay 0 steps, check yes
  max neighbors/atom: 2000, page size: 100000
  master list distance cutoff = 117.92
  ghost atom cutoff = 117.92
  binsize = 58.96, bins = 18 18 18
  1 neighbor lists, perpetual/occasional/extra = 1 0 0
  (1) pair table, perpetual
      attributes: half, newton on
      pair build: half/bin/atomonly/newton
      stencil: half/bin/3d
      bin: standard
Per MPI rank memory allocation (min/avg/max) = 3.079 | 3.083 | 3.087 Mbytes
   Step          Temp          Press          PotEng        Density         KinEng         TotEng           Lx             Ly             Lz            Xlo            Xhi            Ylo            Yhi            Zlo            Zhi           Volume           Dt            Time           CPU           T/CPU          S/CPU         CPULeft    
  21705000   305.48242      1.2878606     -35326455       0.52929865     909.67448     -35325545       1043.3148      1043.3148      1043.3148      1978.3426      3021.6574      1978.3426      3021.6574      1978.3426      3021.6574      1.135654e+09   0.5            10855000       0              0              0              0            
  21705200   385.7161       1.2306507     -35326527       0.52929865     1148.5967     -35325378       1043.3148      1043.3148      1043.3148      1978.3426      3021.6574      1978.3426      3021.6574      1978.3426      3021.6574      1.135654e+09   0.5            10855100       0.019039707    5251.9067      10503.232      9.5023313    
  21705400   566.32874      1.1784042     -35326612       0.52929865     1686.4303     -35324925       1043.3148      1043.3148      1043.3148      1978.3426      3021.6574      1978.3426      3021.6574      1978.3426      3021.6574      1.135654e+09   0.5            10855200       0.038139907    5235.57        10471.153      9.4975823    
  21705600   874.15681      1.1045416     -35326716       0.52929865     2603.0897     -35324113       1043.3148      1043.3148      1043.3148      1978.3426      3021.6574      1978.3426      3021.6574      1978.3426      3021.6574      1.135654e+09   0.5            10855300       0.057367695    5200.8593      10401.836      9.5042982    
  21705800   1369.9004      1.0138887     -35326846       0.52929865     4079.3295     -35322767       1043.3148      1043.3148      1043.3148      1978.3426      3021.6574      1978.3426      3021.6574      1978.3426      3021.6574      1.135654e+09   0.5            10855400       0.076642507    5188.1054      10376.18       9.5039776    
  21706000   2130.5305      0.85015797    -35327007       0.52929865     6344.356      -35320663       1043.3148      1043.3148      1043.3148      1978.3426      3021.6574      1978.3426      3021.6574      1978.3426      3021.6574      1.135654e+09   0.5            10855500       0.095719145    5242.0017      10483.988      9.4764532    
  21706200   3222.6706      0.8246208     -35319826       0.52929865     9596.5627     -35310229       1043.3148      1043.3148      1043.3148      1978.3426      3021.6574      1978.3426      3021.6574      1978.3426      3021.6574      1.135654e+09   0.5            10855600       0.11476961     5249.2592      10498.535      9.4495645    
  21706400   4627.5476      0.67588343    -35320064       0.52929865     13780.046     -35306284       1043.3148      1043.3148      1043.3148      1978.3426      3021.6574      1978.3426      3021.6574      1978.3426      3021.6574      1.135654e+09   0.5            10855700       0.13381438     5250.8221      10501.614      9.424518     
  21706600   6133.1915      0.49944757    -35320338       0.52929865     18263.597     -35302074       1043.3148      1043.3148      1043.3148      1978.3426      3021.6574      1978.3426      3021.6574      1978.3426      3021.6574      1.135654e+09   0.5            10855800       0.15295965     5223.2179      10446.472      9.4071535    
  21706800   7305.3118      0.094155436   -35320639       0.52929865     21753.971     -35298885       1043.3148      1043.3148      1043.3148      1978.3426      3021.6574      1978.3426      3021.6574      1978.3426      3021.6574      1.135654e+09   0.5            10855900       0.17217713     5203.5867      10407.198      9.3933345    
  21707000   7820.1268     -0.12832327    -35313573       0.52929865     23287.002     -35290286       1043.3148      1043.3148      1043.3148      1978.3426      3021.6574      1978.3426      3021.6574      1978.3426      3021.6574      1.135654e+09   0.5            10856000       0.19167375     5129.091       10258.127      9.3921326    
  21707200   8123.7107     -0.49331691    -35313883       0.52929865     24191.023     -35289692       1043.3148      1043.3148      1043.3148      1978.3426      3021.6574      1978.3426      3021.6574      1978.3426      3021.6574      1.135654e+09   0.5            10856100       0.21071098     5252.8838      10505.8        9.3671599    
  21707400   8946.0006     -0.8285164     -35314186       0.52929865     26639.662     -35287547       1043.3148      1043.3148      1043.3148      1978.3426      3021.6574      1978.3426      3021.6574      1978.3426      3021.6574      1.135654e+09   0.5            10856200       0.22968188     5271.2445      10542.491      9.3404823    
  21707600   10124.536     -1.0284633     -35314507       0.52929865     30149.14      -35284358       1043.3148      1043.3148      1043.3148      1978.3426      3021.6574      1978.3426      3021.6574      1978.3426      3021.6574      1.135654e+09   0.5            10856300       0.24879075     5233.1609      10466.317      9.3201642    
  21707800   10925.414     -1.1929559     -35314822       0.52929865     32534.018     -35282288       1043.3148      1043.3148      1043.3148      1978.3426      3021.6574      1978.3426      3021.6574      1978.3426      3021.6574      1.135654e+09   0.5            10856400       0.26837598     5105.8517      10211.726      9.3165586    
  21708000   11268.468     -1.531919      -35315133       0.52929865     33555.574     -35281577       1043.3148      1043.3148      1043.3148      1978.3426      3021.6574      1978.3426      3021.6574      1978.3426      3021.6574      1.135654e+09   0.5            10856500       0.28752178     5223.1055      10446.169      9.2966112    
  21708200   11823.941     -1.6718226     -35308054       0.52929865     35209.676     -35272845       1043.3148      1043.3148      1043.3148      1978.3426      3021.6574      1978.3426      3021.6574      1978.3426      3021.6574      1.135654e+09   0.5            10856600       0.30724022     5071.3442      10142.758      9.2940854    
  21708400   12902.027     -1.7923799     -35308344       0.52929865     38420.032     -35269924       1043.3148      1043.3148      1043.3148      1978.3426      3021.6574      1978.3426      3021.6574      1978.3426      3021.6574      1.135654e+09   0.5            10856700       0.32623078     5265.7986      10531.529      9.2688573    
  21708600   13929.123     -1.8032938     -35301249       0.52929865     41478.549     -35259770       1043.3148      1043.3148      1043.3148      1978.3426      3021.6574      1978.3426      3021.6574      1978.3426      3021.6574      1.135654e+09   0.5            10856800       0.34563144     5154.4535      10308.913      9.2553051    
  21708800   14423.001     -1.8698409     -35294142       0.52929865     42949.235     -35251193       1043.3148      1043.3148      1043.3148      1978.3426      3021.6574      1978.3426      3021.6574      1978.3426      3021.6574      1.135654e+09   0.5            10856900       0.36474413     5232.1768      10464.355      9.2338398    
  21709000   14794.325     -1.895239      -35287015       0.52929865     44054.974     -35242960       1043.3148      1043.3148      1043.3148      1978.3426      3021.6574      1978.3426      3021.6574      1978.3426      3021.6574      1.135654e+09   0.5            10857000       0.3840532      5178.7854      10357.496      9.2173454    
  21709200   15666.571     -2.1824949     -35287241       0.52929865     46652.374     -35240588       1043.3148      1043.3148      1043.3148      1978.3426      3021.6574      1978.3426      3021.6574      1978.3426      3021.6574      1.135654e+09   0.5            10857100       0.40348591     5146.0826      10292.175      9.203374     
  21709400   16821.7       -2.5413445     -35287450       0.52929865     50092.15      -35237358       1043.3148      1043.3148      1043.3148      1978.3426      3021.6574      1978.3426      3021.6574      1978.3426      3021.6574      1.135654e+09   0.5            10857200       0.42252719     5251.7472      10503.509      9.1804138    
  21709600   17555.768     -2.658275      -35280258       0.52929865     52278.08      -35227980       1043.3148      1043.3148      1043.3148      1978.3426      3021.6574      1978.3426      3021.6574      1978.3426      3021.6574      1.135654e+09   0.5            10857300       0.44154303     5258.7649      10517.573      9.1572643    
  21709800   17871.231     -2.6857248     -35278520       0.52929865     53217.475     -35225302       1043.3148      1043.3148      1043.3148      1978.3426      3021.6574      1978.3426      3021.6574      1978.3426      3021.6574      1.135654e+09   0.5            10857400       0.46076596     5202.116       10404.224      9.1385702    
  21710000   18480.079     -2.6190389     -35271257       0.52929865     55030.52      -35216227       1043.3148      1043.3148      1043.3148      1978.3426      3021.6574      1978.3426      3021.6574      1978.3426      3021.6574      1.135654e+09   0.5            10857500       0.48045501     5078.918       10157.798      9.1286953    
  21710200   19610.384     -2.7507866     -35278716       0.52929865     58396.376     -35220320       1043.3148      1043.3148      1043.3148      1978.3426      3021.6574      1978.3426      3021.6574      1978.3426      3021.6574      1.135654e+09   0.5            10857600       0.49956556     5232.7671      10465.579      9.1075061    
  21710400   20602.333     -3.2156271     -35293511       0.52929865     61350.231     -35232160       1043.3148      1043.3148      1043.3148      1978.3426      3021.6574      1978.3426      3021.6574      1978.3426      3021.6574      1.135654e+09   0.5            10857700       0.51856692     5262.7937      10525.572      9.0845631    
  21710600   21029.807     -3.4577388     -35293522       0.52929865     62623.173     -35230899       1043.3148      1043.3148      1043.3148      1978.3426      3021.6574      1978.3426      3021.6574      1978.3426      3021.6574      1.135654e+09   0.5            10857800       0.53794278     5161.0349      10322.041      9.0682199    
  21710800   21411.307     -3.5250212     -35286108       0.52929865     63759.216     -35222349       1043.3148      1043.3148      1043.3148      1978.3426      3021.6574      1978.3426      3021.6574      1978.3426      3021.6574      1.135654e+09   0.5            10857900       0.55711254     5216.569       10433.121      9.0483147    
  21711000   22354.564     -3.5008106     -35286025       0.52929865     66568.075     -35219457       1043.3148      1043.3148      1043.3148      1978.3426      3021.6574      1978.3426      3021.6574      1978.3426      3021.6574      1.135654e+09   0.5            10858000       0.57643155     5176.1576      10352.345      9.0308043    
  21711200   23521.362     -3.6477797     -35285904       0.52929865     70042.6       -35215862       1043.3148      1043.3148      1043.3148      1978.3426      3021.6574      1978.3426      3021.6574      1978.3426      3021.6574      1.135654e+09   0.5            10858100       0.59587163     5144.079       10288.14       9.0150001    
  21711400   24186.845     -3.1818853     -35277986       0.52929865     72024.295     -35205962       1043.3148      1043.3148      1043.3148      1978.3426      3021.6574      1978.3426      3021.6574      1978.3426      3021.6574      1.135654e+09   0.5            10858200       0.61494358     5243.3205      10486.723      8.9935817    
  21711600   24476.229     -3.0610844     -35279677       0.52929865     72886.032     -35206791       1043.3148      1043.3148      1043.3148      1978.3426      3021.6574      1978.3426      3021.6574      1978.3426      3021.6574      1.135654e+09   0.5            10858300       0.63391659     5270.645       10541.257      8.9709114    
  21711800   25151.317     -3.2176705     -35294200       0.52929865     74896.329     -35219303       1043.3148      1043.3148      1043.3148      1978.3426      3021.6574      1978.3426      3021.6574      1978.3426      3021.6574      1.135654e+09   0.5            10858400       0.65340043     5132.4416      10264.935      8.9554594    
  21712000   26324.898     -2.9036505     -35293932       0.52929865     78391.052     -35215540       1043.3148      1043.3148      1043.3148      1978.3426      3021.6574      1978.3426      3021.6574      1978.3426      3021.6574      1.135654e+09   0.5            10858500       0.67263966     5197.73        10395.318      8.9365319    
  21712200   27265.405     -2.7992885     -35293637       0.52929865     81191.721     -35212445       1043.3148      1043.3148      1043.3148      1978.3426      3021.6574      1978.3426      3021.6574      1978.3426      3021.6574      1.135654e+09   0.5            10858600       0.6918075      5217.0815      10434.266      8.9166577    
  21712400   27635.13      -2.4406817     -35278573       0.52929865     82292.697     -35196281       1043.3148      1043.3148      1043.3148      1978.3426      3021.6574      1978.3426      3021.6574      1978.3426      3021.6574      1.135654e+09   0.5            10858700       0.71155187     5064.7172      10129.473      8.9040417    
  21712600   28058.2       -2.6410479     -35285637       0.52929865     83552.53      -35202084       1043.3148      1043.3148      1043.3148      1978.3426      3021.6574      1978.3426      3021.6574      1978.3426      3021.6574      1.135654e+09   0.5            10858800       0.73179164     4940.7744      9881.4957      8.8970733    
  21712800   29074.224     -2.6147701     -35290796       0.52929865     86578.074     -35204218       1043.3148      1043.3148      1043.3148      1978.3426      3021.6574      1978.3426      3021.6574      1978.3426      3021.6574      1.135654e+09   0.5            10858900       0.75103783     5195.8247      10391.608      8.8776807    
  21713000   30219.117     -2.5823545     -35299739       0.52929865     89987.37      -35209752       1043.3148      1043.3148      1043.3148      1978.3426      3021.6574      1978.3426      3021.6574      1978.3426      3021.6574      1.135654e+09   0.5            10859000       0.7707419      5075.0735      10150.168      8.8635612    
  21713200   30807.93      -2.4536791     -35292027       0.52929865     91740.755     -35200287       1043.3148      1043.3148      1043.3148      1978.3426      3021.6574      1978.3426      3021.6574      1978.3426      3021.6574      1.135654e+09   0.5            10859100       0.78993072     5211.3999      10422.712      8.8433981    
  21713400   31090.214     -2.3166333     -35286210       0.52929865     92581.348     -35193629       1043.3148      1043.3148      1043.3148      1978.3426      3021.6574      1978.3426      3021.6574      1978.3426      3021.6574      1.135654e+09   0.5            10859200       0.80894232     5259.9634      10520.096      8.8213457    
  21713600   31841.939     -2.0892245     -35287771       0.52929865     94819.857     -35192951       1043.3148      1043.3148      1043.3148      1978.3426      3021.6574      1978.3426      3021.6574      1978.3426      3021.6574      1.135654e+09   0.5            10859300       0.82833855     5155.6312      10311.247      8.8035277    
  21713800   33052.506     -1.8255338     -35287445       0.52929865     98424.72      -35189020       1043.3148      1043.3148      1043.3148      1978.3426      3021.6574      1978.3426      3021.6574      1978.3426      3021.6574      1.135654e+09   0.5            10859400       0.84733176     5262.3912      10524.739      8.781561     
  21714000   33922.534     -1.7092754     -35289009       0.52929865     101015.51     -35187993       1043.3148      1043.3148      1043.3148      1978.3426      3021.6574      1978.3426      3021.6574      1978.3426      3021.6574      1.135654e+09   0.5            10859500       0.86656104     5202.9862      10405.975      8.761918     
  21714200   34229.776     -1.5370917     -35288687       0.52929865     101930.43     -35186757       1043.3148      1043.3148      1043.3148      1978.3426      3021.6574      1978.3426      3021.6574      1978.3426      3021.6574      1.135654e+09   0.5            10859600       0.88634476     5054.6573      10109.34       8.7478595    
  21714400   34700.072     -1.3882352     -35288371       0.52929865     103330.89     -35185040       1043.3148      1043.3148      1043.3148      1978.3426      3021.6574      1978.3426      3021.6574      1978.3426      3021.6574      1.135654e+09   0.5            10859700       0.9054064      5246.1499      10492.294      8.7265979    
  21714600   35803.795     -1.3404746     -35278796       0.52929865     106617.59     -35172179       1043.3148      1043.3148      1043.3148      1978.3426      3021.6574      1978.3426      3021.6574      1978.3426      3021.6574      1.135654e+09   0.5            10859800       0.92483553     5146.8926      10293.795      8.708889     
  21714800   36930.04      -1.2189432     -35271136       0.52929865     109971.35     -35161165       1043.3148      1043.3148      1043.3148      1978.3426      3021.6574      1978.3426      3021.6574      1978.3426      3021.6574      1.135654e+09   0.5            10859900       0.94385371     5258.1375      10516.266      8.6873268    
  21715000   37415.789     -1.2432032     -35270851       0.52929865     111417.83     -35159433       1043.3148      1043.3148      1043.3148      1978.3426      3021.6574      1978.3426      3021.6574      1978.3426      3021.6574      1.135654e+09   0.5            10860000       0.96302276     5216.7306      10433.379      8.6672272    
  21715200   37680.626     -1.3339848     -35261297       0.52929865     112206.47     -35149090       1043.3148      1043.3148      1043.3148      1978.3426      3021.6574      1978.3426      3021.6574      1978.3426      3021.6574      1.135654e+09   0.5            10860100       0.98280292     5055.5821      10106.326      8.6526244    
  21715400   38541.508     -1.3311241     -35253655       0.52929865     114770.03     -35138885       1043.3148      1043.3148      1043.3148      1978.3426      3021.6574      1978.3426      3021.6574      1978.3426      3021.6574      1.135654e+09   0.5            10860200       1.0018825      5241.2157      10487.752      8.6316214    
  21715600   39805.173     -1.0709175     -35255293       0.52929865     118533.01     -35136760       1043.3148      1043.3148      1043.3148      1978.3426      3021.6574      1978.3426      3021.6574      1978.3426      3021.6574      1.135654e+09   0.5            10860300       1.021229       5168.8853      10337.77       8.6130247    
  21715800   40574.955     -1.1591631     -35255011       0.52929865     120825.29     -35134185       1043.3148      1043.3148      1043.3148      1978.3426      3021.6574      1978.3426      3021.6574      1978.3426      3021.6574      1.135654e+09   0.5            10860400       1.0402385      5260.5337      10521.054      8.5916169    
  21716000   40786.115     -1.1571479     -35264341       0.52929865     121454.09     -35142887       1043.3148      1043.3148      1043.3148      1978.3426      3021.6574      1978.3426      3021.6574      1978.3426      3021.6574      1.135654e+09   0.5            10860500       1.0594757      5198.2614      10396.477      8.5721399    
  21716200   41329.25      -1.2057108     -35271370       0.52929865     123071.45     -35148299       1043.3148      1043.3148      1043.3148      1978.3426      3021.6574      1978.3426      3021.6574      1978.3426      3021.6574      1.135654e+09   0.5            10860600       1.079194       5071.4244      10142.913      8.5564834    
  21716400   42557.8       -1.5170799     -35270949       0.52929865     126729.86     -35144220       1043.3148      1043.3148      1043.3148      1978.3426      3021.6574      1978.3426      3021.6574      1978.3426      3021.6574      1.135654e+09   0.5            10860700       1.098226       5254.3016      10508.589      8.535352     
  21716600   43640.07      -1.1080448     -35264976       0.52929865     129952.68     -35135024       1043.3148      1043.3148      1043.3148      1978.3426      3021.6574      1978.3426      3021.6574      1978.3426      3021.6574      1.135654e+09   0.5            10860800       1.1176366      5151.8434      10303.685      8.5171777    
  21716800   43999.83      -1.1922826     -35264405       0.52929865     131023.98     -35133381       1043.3148      1043.3148      1043.3148      1978.3426      3021.6574      1978.3426      3021.6574      1978.3426      3021.6574      1.135654e+09   0.5            10860900       1.1367158      5241.3047      10482.607      8.4964846    
  21717000   44274.785     -1.1907056     -35256393       0.52929865     131842.75     -35124551       1043.3148      1043.3148      1043.3148      1978.3426      3021.6574      1978.3426      3021.6574      1978.3426      3021.6574      1.135654e+09   0.5            10861000       1.1559463      5200.0558      10400.043      8.476957     
  21717200   45307.183     -0.84866958    -35263061       0.52929865     134917.05     -35128144       1043.3148      1043.3148      1043.3148      1978.3426      3021.6574      1978.3426      3021.6574      1978.3426      3021.6574      1.135654e+09   0.5            10861100       1.1756654      5071.2462      10142.543      8.4609518    
  21717400   46595.587     -0.60644684    -35264166       0.52929865     138753.7      -35125412       1043.3148      1043.3148      1043.3148      1978.3426      3021.6574      1978.3426      3021.6574      1978.3426      3021.6574      1.135654e+09   0.5            10861200       1.1946584      5265.0428      10530.056      8.4397003    
  21717600   47217.96      -0.78070023    -35263313       0.52929865     140607.02     -35122706       1043.3148      1043.3148      1043.3148      1978.3426      3021.6574      1978.3426      3021.6574      1978.3426      3021.6574      1.135654e+09   0.5            10861300       1.2140451      5158.2311      10316.36       8.4212498    
  21717800   47452.398     -1.0188635     -35269796       0.52929865     141305.14     -35128491       1043.3148      1043.3148      1043.3148      1978.3426      3021.6574      1978.3426      3021.6574      1978.3426      3021.6574      1.135654e+09   0.5            10861400       1.2330983      5248.4399      10497.033      8.4004969    
  21718000   48458.901     -1.04157       -35268887       0.52929865     144302.33     -35124584       1043.3148      1043.3148      1043.3148      1978.3426      3021.6574      1978.3426      3021.6574      1978.3426      3021.6574      1.135654e+09   0.5            10861500       1.2526853      5105.4169      10210.797      8.3833712    
  21718200   50203.707     -0.99579564    -35275721       0.52929865     149498.07     -35126223       1043.3148      1043.3148      1043.3148      1978.3426      3021.6574      1978.3426      3021.6574      1978.3426      3021.6574      1.135654e+09   0.5            10861600       1.2720493      5164.2575      10328.548      8.3647016    
  21718400   50596.142     -1.2218383     -35291479       0.52929865     150666.67     -35140812       1043.3148      1043.3148      1043.3148      1978.3426      3021.6574      1978.3426      3021.6574      1978.3426      3021.6574      1.135654e+09   0.5            10861700       1.2915573      5126.0919      10252.121      8.3469449    
  21718600   49110.623     -1.0556371     -35283267       0.52929865     146243.05     -35137024       1043.3148      1043.3148      1043.3148      1978.3426      3021.6574      1978.3426      3021.6574      1978.3426      3021.6574      1.135654e+09   0.5            10861800       1.3107037      5222.9287      10445.919      8.3268368    
  21718800   48896.029     -1.4607423     -35291792       0.52929865     145604.02     -35146188       1043.3148      1043.3148      1043.3148      1978.3426      3021.6574      1978.3426      3021.6574      1978.3426      3021.6574      1.135654e+09   0.5            10861900       1.3301015      5155.2102      10310.339      8.3083296    
  21719000   52107.198     -1.1082425     -35291121       0.52929865     155166.34     -35135955       1043.3148      1043.3148      1043.3148      1978.3426      3021.6574      1978.3426      3021.6574      1978.3426      3021.6574      1.135654e+09   0.5            10862000       1.3492529      5221.5586      10443.162      8.2882818    
  21719200   53179.112     -1.1591368     -35290515       0.52929865     158358.32     -35132156       1043.3148      1043.3148      1043.3148      1978.3426      3021.6574      1978.3426      3021.6574      1978.3426      3021.6574      1.135654e+09   0.5            10862100       1.36955        4926.7765      9853.5642      8.2751826    
  21719400   53428.435     -0.76637669    -35282599       0.52929865     159100.76     -35123498       1043.3148      1043.3148      1043.3148      1978.3426      3021.6574      1978.3426      3021.6574      1978.3426      3021.6574      1.135654e+09   0.5            10862200       1.3887832      5199.3847      10398.768      8.2555572    
  21719600   54416.599     -0.54197019    -35282144       0.52929865     162043.34     -35120101       1043.3148      1043.3148      1043.3148      1978.3426      3021.6574      1978.3426      3021.6574      1978.3426      3021.6574      1.135654e+09   0.5            10862300       1.4081798      5155.5204      10311.032      8.2369005    
  21719800   56917.877     -0.37114156    -35274367       0.52929865     169491.72     -35104875       1043.3148      1043.3148      1043.3148      1978.3426      3021.6574      1978.3426      3021.6574      1978.3426      3021.6574      1.135654e+09   0.5            10862400       1.4272774      5236.2899      10472.563      8.2165013    
  21720000   56825.768     -0.72032835    -35283280       0.52929865     169217.43     -35114063       1043.3148      1043.3148      1043.3148      1978.3426      3021.6574      1978.3426      3021.6574      1978.3426      3021.6574      1.135654e+09   0.5            10862500       1.4471736      5026.0551      10052.144      8.2006635    
  21720200   53506.913     -1.115179      -35290312       0.52929865     159334.45     -35130977       1043.3148      1043.3148      1043.3148      1978.3426      3021.6574      1978.3426      3021.6574      1978.3426      3021.6574      1.135654e+09   0.5            10862600       1.4664253      5194.3751      10388.79       8.1811209    
  21720400   54633.092     -1.2814927     -35297348       0.52929865     162688.02     -35134660       1043.3148      1043.3148      1043.3148      1978.3426      3021.6574      1978.3426      3021.6574      1978.3426      3021.6574      1.135654e+09   0.5            10862700       1.4861683      5065.0848      10130.14       8.1642868    
  21720600   57322.535     -0.93837578    -35289606       0.52929865     170696.72     -35118909       1043.3148      1043.3148      1043.3148      1978.3426      3021.6574      1978.3426      3021.6574      1978.3426      3021.6574      1.135654e+09   0.5            10862800       1.505256       5238.941       10477.805      8.1438344    
  21720800   58639.363     -0.4891319     -35282195       0.52929865     174618.01     -35107577       1043.3148      1043.3148      1043.3148      1978.3426      3021.6574      1978.3426      3021.6574      1978.3426      3021.6574      1.135654e+09   0.5            10862900       1.5252217      5008.6106      10017.285      8.1280921    
  21721000   60080.111      0.038944268   -35266953       0.52929865     178908.31     -35088045       1043.3148      1043.3148      1043.3148      1978.3426      3021.6574      1978.3426      3021.6574      1978.3426      3021.6574      1.135654e+09   0.5            10863000       1.5443846      5218.3937      10436.756      8.1080318    
  21721200   60794.514      0.24923492    -35266340       0.52929865     181035.68     -35085304       1043.3148      1043.3148      1043.3148      1978.3426      3021.6574      1978.3426      3021.6574      1978.3426      3021.6574      1.135654e+09   0.5            10863100       1.5640697      5079.9813      10159.993      8.0906939    
  21721400   60840.015      0.33994593    -35265612       0.52929865     181171.18     -35084441       1043.3148      1043.3148      1043.3148      1978.3426      3021.6574      1978.3426      3021.6574      1978.3426      3021.6574      1.135654e+09   0.5            10863200       1.5835345      5137.4634      10274.956      8.0721752    
  21721600   61533.671      0.69970371    -35264754       0.52929865     183236.76     -35081517       1043.3148      1043.3148      1043.3148      1978.3426      3021.6574      1978.3426      3021.6574      1978.3426      3021.6574      1.135654e+09   0.5            10863300       1.602916       5159.5724      10319.102      8.0532161    
  21721800   63521.208      0.95878376    -35271131       0.52929865     189155.31     -35081975       1043.3148      1043.3148      1043.3148      1978.3426      3021.6574      1978.3426      3021.6574      1978.3426      3021.6574      1.135654e+09   0.5            10863400       1.6219881      5243.2781      10486.561      8.0327144    
  21722000   64217.286      1.5668813     -35269981       0.52929865     191228.11     -35078753       1043.3148      1043.3148      1043.3148      1978.3426      3021.6574      1978.3426      3021.6574      1978.3426      3021.6574      1.135654e+09   0.5            10863500       1.6414144      5147.667       10295.294      8.0139761    
  21722200   62768.227      1.5493784     -35277990       0.52929865     186913.06     -35091077       1043.3148      1043.3148      1043.3148      1978.3426      3021.6574      1978.3426      3021.6574      1978.3426      3021.6574      1.135654e+09   0.5            10863600       1.6606426      5200.72        10401.406      7.9942667    
  21722400   61760.507      1.6158468     -35276625       0.52929865     183912.24     -35092712       1043.3148      1043.3148      1043.3148      1978.3426      3021.6574      1978.3426      3021.6574      1978.3426      3021.6574      1.135654e+09   0.5            10863700       1.6804474      5049.255       10098.608      7.9773068    
  21722600   65522.189      2.4756973     -35275172       0.52929865     195113.89     -35080058       1043.3148      1043.3148      1043.3148      1978.3426      3021.6574      1978.3426      3021.6574      1978.3426      3021.6574      1.135654e+09   0.5            10863800       1.6994836      5253.1573      10506.28       7.9566838    
  21722800   66747.204      3.5009054     -35264323       0.52929865     198761.78     -35065561       1043.3148      1043.3148      1043.3148      1978.3426      3021.6574      1978.3426      3021.6574      1978.3426      3021.6574      1.135654e+09   0.5            10863900       1.7188966      5151.1828      10302.367      7.937836     
  21723000   66412.021      3.9950204     -35262674       0.52929865     197763.66     -35064910       1043.3148      1043.3148      1043.3148      1978.3426      3021.6574      1978.3426      3021.6574      1978.3426      3021.6574      1.135654e+09   0.5            10864000       1.7380085      5232.3312      10464.614      7.9176052    
  21723200   67378.711      4.7055661     -35260960       0.52929865     200642.3      -35060318       1043.3148      1043.3148      1043.3148      1978.3426      3021.6574      1978.3426      3021.6574      1978.3426      3021.6574      1.135654e+09   0.5            10864100       1.757709       5076.0215      10152.097      7.9000425    
  21723400   70675.963      5.3736311     -35259175       0.52929865     210460.95     -35048714       1043.3148      1043.3148      1043.3148      1978.3426      3021.6574      1978.3426      3021.6574      1978.3426      3021.6574      1.135654e+09   0.5            10864200       1.7773851      5082.3162      10164.642      7.8823261    
  21723600   69869.287      5.876752      -35249947       0.52929865     208058.81     -35041888       1043.3148      1043.3148      1043.3148      1978.3426      3021.6574      1978.3426      3021.6574      1978.3426      3021.6574      1.135654e+09   0.5            10864300       1.7964488      5245.5888      10491.145      7.8618872    
  21723800   66843.305      6.3289992     -35240733       0.52929865     199047.95     -35041685       1043.3148      1043.3148      1043.3148      1978.3426      3021.6574      1978.3426      3021.6574      1978.3426      3021.6574      1.135654e+09   0.5            10864400       1.815913       5137.6122      10275.256      7.8432081    
  21724000   66921.07       6.927603      -35238946       0.52929865     199279.52     -35039667       1043.3148      1043.3148      1043.3148      1978.3426      3021.6574      1978.3426      3021.6574      1978.3426      3021.6574      1.135654e+09   0.5            10864500       1.8350315      5230.5345      10461.021      7.8230389    
  21724200   71739.499      8.0478207     -35235260       0.52929865     213627.98     -35021632       1043.3148      1043.3148      1043.3148      1978.3426      3021.6574      1978.3426      3021.6574      1978.3426      3021.6574      1.135654e+09   0.5            10864600       1.8542716      5197.4793      10394.995      7.8034023    
  21724400   72877.737      8.8108282     -35218721       0.52929865     217017.46     -35001704       1043.3148      1043.3148      1043.3148      1978.3426      3021.6574      1978.3426      3021.6574      1978.3426      3021.6574      1.135654e+09   0.5            10864700       1.8739282      5087.3524      10174.751      7.7855042    
  21724600   72528.946      8.6546781     -35226255       0.52929865     215978.82     -35010276       1043.3148      1043.3148      1043.3148      1978.3426      3021.6574      1978.3426      3021.6574      1978.3426      3021.6574      1.135654e+09   0.5            10864800       1.8931037      5214.9626      10429.871      7.7655978    
  21724800   72801.199      9.5026094     -35207916       0.52929865     216789.54     -34991127       1043.3148      1043.3148      1043.3148      1978.3426      3021.6574      1978.3426      3021.6574      1978.3426      3021.6574      1.135654e+09   0.5            10864900       1.912591       5131.5514      10263.089      7.7469689    
  21725000   75597.175      10.319096     -35206266       0.52929865     225115.48     -34981151       1043.3148      1043.3148      1043.3148      1978.3426      3021.6574      1978.3426      3021.6574      1978.3426      3021.6574      1.135654e+09   0.5            10865000       1.9317846      5210.0746      10420.136      7.727148     
  21725200   76829.536      10.649169     -35206540       0.52929865     228785.24     -34977755       1043.3148      1043.3148      1043.3148      1978.3426      3021.6574      1978.3426      3021.6574      1978.3426      3021.6574      1.135654e+09   0.5            10865100       1.951328       5116.8431      10233.745      7.7087199    
  21725400   73936.508      10.810223     -35206884       0.52929865     220170.3      -34986714       1043.3148      1043.3148      1043.3148      1978.3426      3021.6574      1978.3426      3021.6574      1978.3426      3021.6574      1.135654e+09   0.5            10865200       1.9707822      5140.2835      10280.525      7.6899232    
  21725600   70581.081      10.76479      -35203556       0.52929865     210178.41     -34993377       1043.3148      1043.3148      1043.3148      1978.3426      3021.6574      1978.3426      3021.6574      1978.3426      3021.6574      1.135654e+09   0.5            10865300       1.9904048      5096.1436      10192.305      7.6717629    
  21725800   75606.234      11.351027     -35224347       0.52929865     225142.46     -34999204       1043.3148      1043.3148      1043.3148      1978.3426      3021.6574      1978.3426      3021.6574      1978.3426      3021.6574      1.135654e+09   0.5            10865400       2.0095631      5219.6652      10439.312      7.6518064    
  21726000   77823.223      11.854657     -35213790       0.52929865     231744.27     -34982045       1043.3148      1043.3148      1043.3148      1978.3426      3021.6574      1978.3426      3021.6574      1978.3426      3021.6574      1.135654e+09   0.5            10865500       2.0287595      5209.3011      10418.597      7.6320089    
  21726200   79435.631      12.532672     -35214448       0.52929865     236545.74     -34977902       1043.3148      1043.3148      1043.3148      1978.3426      3021.6574      1978.3426      3021.6574      1978.3426      3021.6574      1.135654e+09   0.5            10865600       2.0483482      5104.9871      10210.002      7.6136799    
  21726400   80079.156      12.779524     -35205888       0.52929865     238462.05     -34967426       1043.3148      1043.3148      1043.3148      1978.3426      3021.6574      1978.3426      3021.6574      1978.3426      3021.6574      1.135654e+09   0.5            10865700       2.0676362      5184.5911      10369.172      7.5942231    
  21726600   79892.411      12.975388     -35210245       0.52929865     237905.96     -34972339       1043.3148      1043.3148      1043.3148      1978.3426      3021.6574      1978.3426      3021.6574      1978.3426      3021.6574      1.135654e+09   0.5            10865800       2.0874237      5053.693       10107.389      7.5765827    
  21726800   80639.955      13.031654     -35203693       0.52929865     240132.02     -34963561       1043.3148      1043.3148      1043.3148      1978.3426      3021.6574      1978.3426      3021.6574      1978.3426      3021.6574      1.135654e+09   0.5            10865900       2.1065679      5223.5033      10446.963      7.5565958    
  21727000   83442.196      13.290077     -35195289       0.52929865     248476.61     -34946812       1043.3148      1043.3148      1043.3148      1978.3426      3021.6574      1978.3426      3021.6574      1978.3426      3021.6574      1.135654e+09   0.5            10866000       2.1261076      5117.7989      10235.616      7.5380261    
  21727200   84111.881      13.484888     -35188431       0.52929865     250470.82     -34937960       1043.3148      1043.3148      1043.3148      1978.3426      3021.6574      1978.3426      3021.6574      1978.3426      3021.6574      1.135654e+09   0.5            10866100       2.1453047      5209.141       10418.326      7.5182371    
  21727400   80562.493      12.941722     -35187456       0.52929865     239901.35     -34947555       1043.3148      1043.3148      1043.3148      1978.3426      3021.6574      1978.3426      3021.6574      1978.3426      3021.6574      1.135654e+09   0.5            10866200       2.1649948      5078.6897      10157.389      7.5001676    
  21727600   79146.287      12.353848     -35192019       0.52929865     235684.13     -34956335       1043.3148      1043.3148      1043.3148      1978.3426      3021.6574      1978.3426      3021.6574      1978.3426      3021.6574      1.135654e+09   0.5            10866300       2.1843752      5159.8091      10319.532      7.481011     
  21727800   85032.857      12.312883     -35185645       0.52929865     253213.33     -34932432       1043.3148      1043.3148      1043.3148      1978.3426      3021.6574      1978.3426      3021.6574      1978.3426      3021.6574      1.135654e+09   0.5            10866400       2.2038979      5122.2418      10244.565      7.4623285    
  21728000   85911.533      12.282981     -35169990       0.52929865     255829.88     -34914160       1043.3148      1043.3148      1043.3148      1978.3426      3021.6574      1978.3426      3021.6574      1978.3426      3021.6574      1.135654e+09   0.5            10866500       2.2230931      5209.6442      10419.198      7.4425372    
  21728200   85487.736      11.5732       -35185751       0.52929865     254567.88     -34931183       1043.3148      1043.3148      1043.3148      1978.3426      3021.6574      1978.3426      3021.6574      1978.3426      3021.6574      1.135654e+09   0.5            10866600       2.2423049      5205.1381      10410.305      7.4228098    
  21728400   86333.485      11.869213     -35177498       0.52929865     257086.38     -34920411       1043.3148      1043.3148      1043.3148      1978.3426      3021.6574      1978.3426      3021.6574      1978.3426      3021.6574      1.135654e+09   0.5            10866700       2.2619352      5094.1719      10188.368      7.4044618    
  21728600   89987.929      12.099491     -35161860       0.52929865     267968.69     -34893891       1043.3148      1043.3148      1043.3148      1978.3426      3021.6574      1978.3426      3021.6574      1978.3426      3021.6574      1.135654e+09   0.5            10866800       2.2813555      5149.2386      10298.265      7.3854141    
  21728800   90694.438      11.53824      -35155471       0.52929865     270072.55     -34885398       1043.3148      1043.3148      1043.3148      1978.3426      3021.6574      1978.3426      3021.6574      1978.3426      3021.6574      1.135654e+09   0.5            10866900       2.3008425      5131.6465      10263.53       7.3665702    
  21729000   85236.216      10.204774     -35161950       0.52929865     253818.9      -34908131       1043.3148      1043.3148      1043.3148      1978.3426      3021.6574      1978.3426      3021.6574      1978.3426      3021.6574      1.135654e+09   0.5            10867000       2.3200245      5213.1702      10426.283      7.3467522    
  21729200   85019.511      9.426689      -35166575       0.52929865     253173.59     -34913402       1043.3148      1043.3148      1043.3148      1978.3426      3021.6574      1978.3426      3021.6574      1978.3426      3021.6574      1.135654e+09   0.5            10867100       2.3396047      5107.196       10214.417      7.3281908    
  21729400   89090.218      9.6542374     -35173106       0.52929865     265295.46     -34907811       1043.3148      1043.3148      1043.3148      1978.3426      3021.6574      1978.3426      3021.6574      1978.3426      3021.6574      1.135654e+09   0.5            10867200       2.3588617      5192.957       10385.946      7.308611     
  21729600   91143.3        8.7985112     -35179630       0.52929865     271409.18     -34908221       1043.3148      1043.3148      1043.3148      1978.3426      3021.6574      1978.3426      3021.6574      1978.3426      3021.6574      1.135654e+09   0.5            10867300       2.3786855      5044.4698      10088.962      7.290774     
  21729800   93047.22       8.2615635     -35179507       0.52929865     277078.73     -34902429       1043.3148      1043.3148      1043.3148      1978.3426      3021.6574      1978.3426      3021.6574      1978.3426      3021.6574      1.135654e+09   0.5            10867400       2.3978519      5217.4712      10434.891      7.2709121    
  21730000   93617.407      8.0691359     -35184142       0.52929865     278776.65     -34905365       1043.3148      1043.3148      1043.3148      1978.3426      3021.6574      1978.3426      3021.6574      1978.3426      3021.6574      1.135654e+09   0.5            10867500       2.4174504      5102.3959      10204.804      7.252358     
  21730200   92473.849      7.1883862     -35168579       0.52929865     275371.33     -34893207       1043.3148      1043.3148      1043.3148      1978.3426      3021.6574      1978.3426      3021.6574      1978.3426      3021.6574      1.135654e+09   0.5            10867600       2.436687       5198.4579      10396.943      7.2327119    
  21730400   91935.243      6.4967753     -35166273       0.52929865     273767.46     -34892505       1043.3148      1043.3148      1043.3148      1978.3426      3021.6574      1978.3426      3021.6574      1978.3426      3021.6574      1.135654e+09   0.5            10867700       2.4563793      5078.1298      10156.276      7.2144113    
  21730600   96083.451      6.167791      -35160392       0.52929865     286120.11     -34874272       1043.3148      1043.3148      1043.3148      1978.3426      3021.6574      1978.3426      3021.6574      1978.3426      3021.6574      1.135654e+09   0.5            10867800       2.475768       5157.6104      10315.196      7.1952069    
  21730800   98225.081      6.2205759     -35145262       0.52929865     292497.52     -34852764       1043.3148      1043.3148      1043.3148      1978.3426      3021.6574      1978.3426      3021.6574      1978.3426      3021.6574      1.135654e+09   0.5            10867900       2.4954465      5081.6721      10163.36       7.1768329    
  21731000   95342.969      5.2397506     -35142644       0.52929865     283915.08     -34858729       1043.3148      1043.3148      1043.3148      1978.3426      3021.6574      1978.3426      3021.6574      1978.3426      3021.6574      1.135654e+09   0.5            10868000       2.514727       5186.57        10373.025      7.1573073    
  21731200   91564.355      4.2590868     -35136472       0.52929865     272663.02     -34863809       1043.3148      1043.3148      1043.3148      1978.3426      3021.6574      1978.3426      3021.6574      1978.3426      3021.6574      1.135654e+09   0.5            10868100       2.5344076      5081.1908      10162.473      7.1389098    
  21731400   96702.385      4.34881       -35135810       0.52929865     287963.19     -34847847       1043.3148      1043.3148      1043.3148      1978.3426      3021.6574      1978.3426      3021.6574      1978.3426      3021.6574      1.135654e+09   0.5            10868200       2.5537485      5170.4033      10340.825      7.1195469    
  21731600   100782.88      4.0580278     -35135491       0.52929865     300114.2      -34835377       1043.3148      1043.3148      1043.3148      1978.3426      3021.6574      1978.3426      3021.6574      1978.3426      3021.6574      1.135654e+09   0.5            10868300       2.573547       5050.8573      10101.675      7.1014478    
  21731800   99523.289      3.4274867     -35132540       0.52929865     296363.36     -34836177       1043.3148      1043.3148      1043.3148      1978.3426      3021.6574      1978.3426      3021.6574      1978.3426      3021.6574      1.135654e+09   0.5            10868400       2.5929333      5158.2779      10316.545      7.0821971    
  21732000   97388.415      2.5031615     -35125992       0.52929865     290006.07     -34835986       1043.3148      1043.3148      1043.3148      1978.3426      3021.6574      1978.3426      3021.6574      1978.3426      3021.6574      1.135654e+09   0.5            10868500       2.6125708      5092.314       10184.471      7.0636243    
  21732200   100254.12      2.08966       -35130951       0.52929865     298539.64     -34832411       1043.3148      1043.3148      1043.3148      1978.3426      3021.6574      1978.3426      3021.6574      1978.3426      3021.6574      1.135654e+09   0.5            10868600       2.6318452      5188.2486      10376.679      7.0440619    
  21732400   104992.25      1.6949864     -35130171       0.52929865     312648.98     -34817522       1043.3148      1043.3148      1043.3148      1978.3426      3021.6574      1978.3426      3021.6574      1978.3426      3021.6574      1.135654e+09   0.5            10868700       2.6514483      5101.2301      10202.476      7.025376     
  21732600   103021.19      1.015544      -35129321       0.52929865     306779.51     -34822542       1043.3148      1043.3148      1043.3148      1978.3426      3021.6574      1978.3426      3021.6574      1978.3426      3021.6574      1.135654e+09   0.5            10868800       2.6707704      5175.4003      10350.796      7.0059396    
  21732800   100860.84      0.13589378    -35135797       0.52929865     300346.35     -34835451       1043.3148      1043.3148      1043.3148      1978.3426      3021.6574      1978.3426      3021.6574      1978.3426      3021.6574      1.135654e+09   0.5            10868900       2.6907145      5014.0031      10027.995      6.9881206    
  21733000   102379.25     -0.37816911    -35140314       0.52929865     304867.93     -34835446       1043.3148      1043.3148      1043.3148      1978.3426      3021.6574      1978.3426      3021.6574      1978.3426      3021.6574      1.135654e+09   0.5            10869000       2.7100661      5167.5402      10335.007      6.9687475    
  21733200   103948.04     -0.33669362    -35119030       0.52929865     309539.5      -34809490       1043.3148      1043.3148      1043.3148      1978.3426      3021.6574      1978.3426      3021.6574      1978.3426      3021.6574      1.135654e+09   0.5            10869100       2.729739       5083.1582      10166.409      6.9501918    
  21733400   104670.23     -0.76179518    -35125286       0.52929865     311690.09     -34813596       1043.3148      1043.3148      1043.3148      1978.3426      3021.6574      1978.3426      3021.6574      1978.3426      3021.6574      1.135654e+09   0.5            10869200       2.7489237      5212.455       10424.835      6.9303912    
  21733600   106491.97     -0.87146619    -35109322       0.52929865     317114.91     -34792207       1043.3148      1043.3148      1043.3148      1978.3426      3021.6574      1978.3426      3021.6574      1978.3426      3021.6574      1.135654e+09   0.5            10869300       2.768684       5060.6696      10121.397      6.9120346    
  21733800   108739.42     -1.0843064     -35124660       0.52929865     323807.42     -34800853       1043.3148      1043.3148      1043.3148      1978.3426      3021.6574      1978.3426      3021.6574      1978.3426      3021.6574      1.135654e+09   0.5            10869400       2.7881721      5131.3534      10262.659      6.8929864    
  21734000   109388.58     -1.2451056     -35132884       0.52929865     325740.5      -34807144       1043.3148      1043.3148      1043.3148      1978.3426      3021.6574      1978.3426      3021.6574      1978.3426      3021.6574      1.135654e+09   0.5            10869500       2.8078186      5089.9473      10179.901      6.8743201    
  21734200   106174.52     -2.148209      -35135177       0.52929865     316169.58     -34819008       1043.3148      1043.3148      1043.3148      1978.3426      3021.6574      1978.3426      3021.6574      1978.3426      3021.6574      1.135654e+09   0.5            10869600       2.8271219      5180.4732      10360.961      6.8548076    
  21734400   104717.78     -2.7725679     -35126261       0.52929865     311831.68     -34814429       1043.3148      1043.3148      1043.3148      1978.3426      3021.6574      1978.3426      3021.6574      1978.3426      3021.6574      1.135654e+09   0.5            10869700       2.8467219      5102.0424      10204.115      6.8360106    
  21734600   110750.79     -2.5709297     -35124624       0.52929865     329796.95     -34794827       1043.3148      1043.3148      1043.3148      1978.3426      3021.6574      1978.3426      3021.6574      1978.3426      3021.6574      1.135654e+09   0.5            10869800       2.8661681      5142.3736      10284.759      6.8168374    
  21734800   112225.21     -2.4702411     -35122867       0.52929865     334187.51     -34788679       1043.3148      1043.3148      1043.3148      1978.3426      3021.6574      1978.3426      3021.6574      1978.3426      3021.6574      1.135654e+09   0.5            10869900       2.8860725      5024.0231      10047.984      6.7987399    
  21735000   110172.79     -3.3298239     -35121044       0.52929865     328075.74     -34792968       1043.3148      1043.3148      1043.3148      1978.3426      3021.6574      1978.3426      3021.6574      1978.3426      3021.6574      1.135654e+09   0.5            10870000       2.9060152      5014.3634      10028.723      6.7807077    
  21735200   109640        -3.2655851     -35117264       0.52929865     326489.19     -34790775       1043.3148      1043.3148      1043.3148      1978.3426      3021.6574      1978.3426      3021.6574      1978.3426      3021.6574      1.135654e+09   0.5            10870100       2.9257081      5077.9748      10151.049      6.7620943    
  21735400   116476.07     -2.421485      -35100569       0.52929865     346845.85     -34753723       1043.3148      1043.3148      1043.3148      1978.3426      3021.6574      1978.3426      3021.6574      1978.3426      3021.6574      1.135654e+09   0.5            10870200       2.9454003      5078.119       10161.13       6.7434222    
  21735600   116365.4      -2.1179119     -35096640       0.52929865     346516.29     -34750123       1043.3148      1043.3148      1043.3148      1978.3426      3021.6574      1978.3426      3021.6574      1978.3426      3021.6574      1.135654e+09   0.5            10870300       2.9647956      5155.9319      10311.839      6.724084     
  21735800   111358.32     -3.2167233     -35109365       0.52929865     331606.07     -34777759       1043.3148      1043.3148      1043.3148      1978.3426      3021.6574      1978.3426      3021.6574      1978.3426      3021.6574      1.135654e+09   0.5            10870400       2.9846538      5035.6648      10071.428      6.7057856    
  21736000   111581.62     -3.6305034     -35107368       0.52929865     332271.02     -34775097       1043.3148      1043.3148      1043.3148      1978.3426      3021.6574      1978.3426      3021.6574      1978.3426      3021.6574      1.135654e+09   0.5            10870500       3.0039223      5189.8227      10379.57       6.6861551    
  21736200   118483.99     -3.1257092     -35103435       0.52929865     352825.08     -34750610       1043.3148      1043.3148      1043.3148      1978.3426      3021.6574      1978.3426      3021.6574      1978.3426      3021.6574      1.135654e+09   0.5            10870600       3.0235977      5082.5239      10165.119      6.6674252    
  21736400   117675.53     -2.9767196     -35094010       0.52929865     350417.65     -34743592       1043.3148      1043.3148      1043.3148      1978.3426      3021.6574      1978.3426      3021.6574      1978.3426      3021.6574      1.135654e+09   0.5            10870700       3.0428266      5200.5049      10401.029      6.6477083    
  21736600   115163.25     -3.4403269     -35084625       0.52929865     342936.5      -34741688       1043.3148      1043.3148      1043.3148      1978.3426      3021.6574      1978.3426      3021.6574      1978.3426      3021.6574      1.135654e+09   0.5            10870800       3.0625344      5074.1081      10148.228      6.6290348    
  21736800   116197.05     -3.8255176     -35084585       0.52929865     346014.97     -34738570       1043.3148      1043.3148      1043.3148      1978.3426      3021.6574      1978.3426      3021.6574      1978.3426      3021.6574      1.135654e+09   0.5            10870900       3.0820277      5130.0027      10259.969      6.6098877    
  21737000   121795.79     -3.6698307     -35095530       0.52929865     362687.08     -34732843       1043.3148      1043.3148      1043.3148      1978.3426      3021.6574      1978.3426      3021.6574      1978.3426      3021.6574      1.135654e+09   0.5            10871000       3.1016284      5101.8219      10203.634      6.5909651    
  21737200   121628.81     -4.3938457     -35090020       0.52929865     362189.83     -34727830       1043.3148      1043.3148      1043.3148      1978.3426      3021.6574      1978.3426      3021.6574      1978.3426      3021.6574      1.135654e+09   0.5            10871100       3.1209113      5185.9783      10371.971      6.5713641    
  21737400   116694.42     -4.8875372     -35084594       0.52929865     347496.07     -34737098       1043.3148      1043.3148      1043.3148      1978.3426      3021.6574      1978.3426      3021.6574      1978.3426      3021.6574      1.135654e+09   0.5            10871200       3.140508       5102.8643      10205.711      6.5524225    
  21737600   111579.7      -5.4227506     -35082488       0.52929865     332265.28     -34750223       1043.3148      1043.3148      1043.3148      1978.3426      3021.6574      1978.3426      3021.6574      1978.3426      3021.6574      1.135654e+09   0.5            10871300       3.1601963      5079.1731      10158.341      6.5336618    
  21737800   117450.05     -4.6795453     -35064167       0.52929865     349746.2      -34714421       1043.3148      1043.3148      1043.3148      1978.3426      3021.6574      1978.3426      3021.6574      1978.3426      3021.6574      1.135654e+09   0.5            10871400       3.1795935      5155.3968      10310.797      6.5142935    
  21738000   123641.45     -4.3641237     -35071756       0.52929865     368183.13     -34703573       1043.3148      1043.3148      1043.3148      1978.3426      3021.6574      1978.3426      3021.6574      1978.3426      3021.6574      1.135654e+09   0.5            10871500       3.1993301      5066.7232      10133.418      6.4956144    
  21738200   124954.63     -3.9880002     -35062659       0.52929865     372093.54     -34690565       1043.3148      1043.3148      1043.3148      1978.3426      3021.6574      1978.3426      3021.6574      1978.3426      3021.6574      1.135654e+09   0.5            10871600       3.2186243      5182.9004      10365.834      6.4760315    
  21738400   122737.1      -4.3044695     -35046168       0.52929865     365490.14     -34680678       1043.3148      1043.3148      1043.3148      1978.3426      3021.6574      1978.3426      3021.6574      1978.3426      3021.6574      1.135654e+09   0.5            10871700       3.2382811      5087.2918      10174.593      6.4571758    
  21738600   121397.36     -3.9355363     -35035178       0.52929865     361500.6      -34673677       1043.3148      1043.3148      1043.3148      1978.3426      3021.6574      1978.3426      3021.6574      1978.3426      3021.6574      1.135654e+09   0.5            10871800       3.257686       5153.3439      10306.662      6.4378123    
  21738800   126960.02     -3.4688833     -35044589       0.52929865     378065.26     -34666524       1043.3148      1043.3148      1043.3148      1978.3426      3021.6574      1978.3426      3021.6574      1978.3426      3021.6574      1.135654e+09   0.5            10871900       3.2775528      5033.5164      10067.078      6.4193531    
  21739000   129764.52     -2.5780952     -35020662       0.52929865     386416.57     -34634245       1043.3148      1043.3148      1043.3148      1978.3426      3021.6574      1978.3426      3021.6574      1978.3426      3021.6574      1.135654e+09   0.5            10872000       3.2973106      5061.2835      10122.52       6.4006663    
  21739200   125704        -3.9592778     -35018821       0.52929865     374325.03     -34644496       1043.3148      1043.3148      1043.3148      1978.3426      3021.6574      1978.3426      3021.6574      1978.3426      3021.6574      1.135654e+09   0.5            10872100       3.3167048      5156.2015      10312.428      6.3812666    
  21739400   123232.25     -4.6538296     -35024345       0.52929865     366964.6      -34657381       1043.3148      1043.3148      1043.3148      1978.3426      3021.6574      1978.3426      3021.6574      1978.3426      3021.6574      1.135654e+09   0.5            10872200       3.3363501      5090.2576      10180.548      6.3623462    
  21739600   133009.8      -3.330092      -35029870       0.52929865     396080.46     -34633789       1043.3148      1043.3148      1043.3148      1978.3426      3021.6574      1978.3426      3021.6574      1978.3426      3021.6574      1.135654e+09   0.5            10872300       3.3557541      5153.5915      10307.152      6.3429612    
  21739800   132858.37     -3.2085867     -35026046       0.52929865     395629.55     -34630417       1043.3148      1043.3148      1043.3148      1978.3426      3021.6574      1978.3426      3021.6574      1978.3426      3021.6574      1.135654e+09   0.5            10872400       3.375603       5038.0516      10076.113      6.3244096    
  21740000   126514.59     -3.8422819     -35016771       0.52929865     376738.85     -34640032       1043.3148      1043.3148      1043.3148      1978.3426      3021.6574      1978.3426      3021.6574      1978.3426      3021.6574      1.135654e+09   0.5            10872500       3.3953404      5066.534       10133.011      6.3056365    
  21740200   126544.96     -3.537704      -35007566       0.52929865     376829.29     -34630736       1043.3148      1043.3148      1043.3148      1978.3426      3021.6574      1978.3426      3021.6574      1978.3426      3021.6574      1.135654e+09   0.5            10872600       3.4146491      5179.0018      10358.051      6.2860626    
  21740400   133128.73     -3.2243936     -35029817       0.52929865     396434.62     -34633382       1043.3148      1043.3148      1043.3148      1978.3426      3021.6574      1978.3426      3021.6574      1978.3426      3021.6574      1.135654e+09   0.5            10872700       3.4342653      5097.8263      10195.629      6.2670534    
  21740600   133515.89     -3.1940249     -35028099       0.52929865     397587.52     -34630511       1043.3148      1043.3148      1043.3148      1978.3426      3021.6574      1978.3426      3021.6574      1978.3426      3021.6574      1.135654e+09   0.5            10872800       3.4535114      5195.8673      10391.751      6.2473672    
  21740800   131546.03     -3.6669384     -35024560       0.52929865     391721.6      -34632838       1043.3148      1043.3148      1043.3148      1978.3426      3021.6574      1978.3426      3021.6574      1978.3426      3021.6574      1.135654e+09   0.5            10872900       3.4731171      5100.5723      10201.173      6.2283309    
  21741000   131892.88     -4.2229747     -35045158       0.52929865     392754.48     -34652404       1043.3148      1043.3148      1043.3148      1978.3426      3021.6574      1978.3426      3021.6574      1978.3426      3021.6574      1.135654e+09   0.5            10873000       3.4929632      5038.7703      10077.502      6.2097163    
  21741200   139602.71     -3.3964293     -35058460       0.52929865     415713.02     -34642747       1043.3148      1043.3148      1043.3148      1978.3426      3021.6574      1978.3426      3021.6574      1978.3426      3021.6574      1.135654e+09   0.5            10873100       3.5122492      5185.0912      10370.202      6.1901005    
  21741400   141293.98     -3.4235222     -35062491       0.52929865     420749.34     -34641742       1043.3148      1043.3148      1043.3148      1978.3426      3021.6574      1978.3426      3021.6574      1978.3426      3021.6574      1.135654e+09   0.5            10873200       3.5318086      5112.6177      10225.252      6.1709662    
  21741600   134931.53     -4.03525       -35068482       0.52929865     401803.06     -34666679       1043.3148      1043.3148      1043.3148      1978.3426      3021.6574      1978.3426      3021.6574      1978.3426      3021.6574      1.135654e+09   0.5            10873300       3.5510698      5191.7972      10383.588      6.1513105    
  21741800   134144.78     -4.1777974     -35074555       0.52929865     399460.24     -34675095       1043.3148      1043.3148      1043.3148      1978.3426      3021.6574      1978.3426      3021.6574      1978.3426      3021.6574      1.135654e+09   0.5            10873400       3.5708266      5061.5443      10123.101      6.1325103    
  21742000   137134.02     -3.5389883     -35073247       0.52929865     408361.69     -34664886       1043.3148      1043.3148      1043.3148      1978.3426      3021.6574      1978.3426      3021.6574      1978.3426      3021.6574      1.135654e+09   0.5            10873500       3.5907222      5026.2334      10052.423      6.1139364    
  21742200   140969.75     -2.8190584     -35057174       0.52929865     419783.84     -34637390       1043.3148      1043.3148      1043.3148      1978.3426      3021.6574      1978.3426      3021.6574      1978.3426      3021.6574      1.135654e+09   0.5            10873600       3.6104206      5076.5846      10153.217      6.0950145    
  21742400   141013.6      -2.923732      -35061275       0.52929865     419914.43     -34641361       1043.3148      1043.3148      1043.3148      1978.3426      3021.6574      1978.3426      3021.6574      1978.3426      3021.6574      1.135654e+09   0.5            10873700       3.6300085      5105.1766      10210.351      6.0759       
  21742600   133909.94     -3.4746997     -35052496       0.52929865     398760.92     -34653735       1043.3148      1043.3148      1043.3148      1978.3426      3021.6574      1978.3426      3021.6574      1978.3426      3021.6574      1.135654e+09   0.5            10873800       3.6495818      5109.0005      10217.962      6.0567564    
  21742800   134721.12     -3.2629608     -35056537       0.52929865     401176.48     -34655360       1043.3148      1043.3148      1043.3148      1978.3426      3021.6574      1978.3426      3021.6574      1978.3426      3021.6574      1.135654e+09   0.5            10873900       3.6689163      5172.1159      10344.265      6.0372148    
  21743000   142330.57     -2.336621      -35055028       0.52929865     423836.14     -34631192       1043.3148      1043.3148      1043.3148      1978.3426      3021.6574      1978.3426      3021.6574      1978.3426      3021.6574      1.135654e+09   0.5            10874000       3.6888146      5025.5236      10050.984      6.018596     
  21743200   142987.02     -2.0236041     -35036742       0.52929865     425790.92     -34610951       1043.3148      1043.3148      1043.3148      1978.3426      3021.6574      1978.3426      3021.6574      1978.3426      3021.6574      1.135654e+09   0.5            10874100       3.7084544      5091.7101      10183.469      5.9995449    
  21743400   140701.58     -2.2064663     -35031250       0.52929865     418985.29     -34612265       1043.3148      1043.3148      1043.3148      1978.3426      3021.6574      1978.3426      3021.6574      1978.3426      3021.6574      1.135654e+09   0.5            10874200       3.7276577      5207.4627      10414.903      5.9797876    
  21743600   140276.03     -1.044643      -35012829       0.52929865     417718.07     -34595111       1043.3148      1043.3148      1043.3148      1978.3426      3021.6574      1978.3426      3021.6574      1978.3426      3021.6574      1.135654e+09   0.5            10874300       3.7472124      5113.8708      10227.76       5.960595     
  21743800   147670.58      0.4910438     -35003574       0.52929865     439737.78     -34563836       1043.3148      1043.3148      1043.3148      1978.3426      3021.6574      1978.3426      3021.6574      1978.3426      3021.6574      1.135654e+09   0.5            10874400       3.7665427      5173.1931      10346.4        5.9410449    
  21744000   148489.58      1.6114649     -35001577       0.52929865     442176.61     -34559400       1043.3148      1043.3148      1043.3148      1978.3426      3021.6574      1978.3426      3021.6574      1978.3426      3021.6574      1.135654e+09   0.5            10874500       3.7864827      5015.0514      10030.073      5.9224507    
  21744200   141674.42      1.3078914     -34992128       0.52929865     421882.24     -34570245       1043.3148      1043.3148      1043.3148      1978.3426      3021.6574      1978.3426      3021.6574      1978.3426      3021.6574      1.135654e+09   0.5            10874600       3.8061233      5091.5045      10183.059      5.9033781    
  21744400   140640.98      1.2373157     -34989673       0.52929865     418804.84     -34570868       1043.3148      1043.3148      1043.3148      1978.3426      3021.6574      1978.3426      3021.6574      1978.3426      3021.6574      1.135654e+09   0.5            10874700       3.825293       5216.5603      10433.075      5.8835758    
  21744600   151138.63      3.3677412     -34978237       0.52929865     450065.04     -34528172       1043.3148      1043.3148      1043.3148      1978.3426      3021.6574      1978.3426      3021.6574      1978.3426      3021.6574      1.135654e+09   0.5            10874800       3.8448233      5120.2556      10240.446      5.86433      
  21744800   149670.78      3.6436749     -34990732       0.52929865     445694.02     -34545038       1043.3148      1043.3148      1043.3148      1978.3426      3021.6574      1978.3426      3021.6574      1978.3426      3021.6574      1.135654e+09   0.5            10874900       3.8645933      5058.1799      10116.456      5.8454432    
  21745000   145075.54      4.0087939     -34973714       0.52929865     432010.2      -34541704       1043.3148      1043.3148      1043.3148      1978.3426      3021.6574      1978.3426      3021.6574      1978.3426      3021.6574      1.135654e+09   0.5            10875000       3.8841286      5118.9118      10237.763      5.8261964    
  21745200   145843.41      4.9989459     -34956683       0.52929865     434296.78     -34522386       1043.3148      1043.3148      1043.3148      1978.3426      3021.6574      1978.3426      3021.6574      1978.3426      3021.6574      1.135654e+09   0.5            10875100       3.9037529      5095.7263      10191.504      5.8070784    
  21745400   153565.1       6.2554668     -34956265       0.52929865     457290.66     -34498974       1043.3148      1043.3148      1043.3148      1978.3426      3021.6574      1978.3426      3021.6574      1978.3426      3021.6574      1.135654e+09   0.5            10875200       3.9233114      5112.8935      10225.781      5.7878584    
  21745600   153168.8       6.6953979     -34961264       0.52929865     456110.52     -34505154       1043.3148      1043.3148      1043.3148      1978.3426      3021.6574      1978.3426      3021.6574      1978.3426      3021.6574      1.135654e+09   0.5            10875300       3.9425604      5195.0648      10390.076      5.7681828    
  21745800   149405.17      6.7427879     -34964363       0.52929865     444903.08     -34519460       1043.3148      1043.3148      1043.3148      1978.3426      3021.6574      1978.3426      3021.6574      1978.3426      3021.6574      1.135654e+09   0.5            10875400       3.9622963      5066.9116      10133.895      5.7492172    
  21746000   149396.75      7.2825115     -34956510       0.52929865     444878.01     -34511632       1043.3148      1043.3148      1043.3148      1978.3426      3021.6574      1978.3426      3021.6574      1978.3426      3021.6574      1.135654e+09   0.5            10875500       3.9821856      5027.8179      10055.586      5.7304654    
  21746200   151267.81      7.8359445     -34952626       0.52929865     450449.71     -34502176       1043.3148      1043.3148      1043.3148      1978.3426      3021.6574      1978.3426      3021.6574      1978.3426      3021.6574      1.135654e+09   0.5            10875600       4.0018271      5091.2748      10182.596      5.7113483    
  21746400   153122.24      8.1208657     -34950238       0.52929865     455971.88     -34494266       1043.3148      1043.3148      1043.3148      1978.3426      3021.6574      1978.3426      3021.6574      1978.3426      3021.6574      1.135654e+09   0.5            10875700       4.0210572      5200.1601      10400.282      5.6916444    
  21746600   154663.86      9.6359117     -34945928       0.52929865     460562.57     -34485365       1043.3148      1043.3148      1043.3148      1978.3426      3021.6574      1978.3426      3021.6574      1978.3426      3021.6574      1.135654e+09   0.5            10875800       4.0406669      5099.5316      10199.113      5.6724775    
  21746800   157326.75      10.381981     -34941603       0.52929865     468492.19     -34473111       1043.3148      1043.3148      1043.3148      1978.3426      3021.6574      1978.3426      3021.6574      1978.3426      3021.6574      1.135654e+09   0.5            10875900       4.0603899      5070.2264      10140.45       5.6534643    
  21747000   163499.71      11.827958     -34939083       0.52929865     486874.21     -34452209       1043.3148      1043.3148      1043.3148      1978.3426      3021.6574      1978.3426      3021.6574      1978.3426      3021.6574      1.135654e+09   0.5            10876000       4.0798569      5136.8862      10273.709      5.6340912    
  21747200   157409.69      11.331823     -34936492       0.52929865     468739.18     -34467752       1043.3148      1043.3148      1043.3148      1978.3426      3021.6574      1978.3426      3021.6574      1978.3426      3021.6574      1.135654e+09   0.5            10876100       4.0996232      5059.1247      10118.3        5.6151266    
  21747400   150920.22      11.020073     -34933922       0.52929865     449414.64     -34484508       1043.3148      1043.3148      1043.3148      1978.3426      3021.6574      1978.3426      3021.6574      1978.3426      3021.6574      1.135654e+09   0.5            10876200       4.119166       5116.9528      10233.893      5.5958511    
  21747600   155265.4       11.639769     -34953519       0.52929865     462353.85     -34491166       1043.3148      1043.3148      1043.3148      1978.3426      3021.6574      1978.3426      3021.6574      1978.3426      3021.6574      1.135654e+09   0.5            10876300       4.1383786      5204.9436      10409.81       5.576128     
  21747800   159434.3       12.524563     -34950917       0.52929865     474768.13     -34476149       1043.3148      1043.3148      1043.3148      1978.3426      3021.6574      1978.3426      3021.6574      1978.3426      3021.6574      1.135654e+09   0.5            10876400       4.1580895      5073.2957      10146.657      5.557076     
  21748000   159141.48      12.683354     -34957550       0.52929865     473896.16     -34483654       1043.3148      1043.3148      1043.3148      1978.3426      3021.6574      1978.3426      3021.6574      1978.3426      3021.6574      1.135654e+09   0.5            10876500       4.1779991      5022.7132      10045.4        5.5382809    
  21748200   158982.95      13.015097     -34947131       0.52929865     473424.06     -34473707       1043.3148      1043.3148      1043.3148      1978.3426      3021.6574      1978.3426      3021.6574      1978.3426      3021.6574      1.135654e+09   0.5            10876600       4.1977568      5061.3166      10122.692      5.5192756    
  21748400   163575.48      14.10521      -34944437       0.52929865     487099.86     -34457337       1043.3148      1043.3148      1043.3148      1978.3426      3021.6574      1978.3426      3021.6574      1978.3426      3021.6574      1.135654e+09   0.5            10876700       4.216987       5200.1542      10400.226      5.4995759    
  21748600   170283.18      15.035951     -34960202       0.52929865     507074.22     -34453128       1043.3148      1043.3148      1043.3148      1978.3426      3021.6574      1978.3426      3021.6574      1978.3426      3021.6574      1.135654e+09   0.5            10876800       4.2366221      5092.9509      10185.951      5.4804037    
  21748800   161595.25      14.447593     -34955500       0.52929865     481203.06     -34474297       1043.3148      1043.3148      1043.3148      1978.3426      3021.6574      1978.3426      3021.6574      1978.3426      3021.6574      1.135654e+09   0.5            10876900       4.2561752      5114.2644      10228.532      5.4611225    
  21749000   157115.21      14.526933     -34954683       0.52929865     467862.26     -34486821       1043.3148      1043.3148      1043.3148      1978.3426      3021.6574      1978.3426      3021.6574      1978.3426      3021.6574      1.135654e+09   0.5            10877000       4.2761346      5010.1804      10020.332      5.4423559    
  21749200   161275.57      14.587448     -34953931       0.52929865     480251.11     -34473680       1043.3148      1043.3148      1043.3148      1978.3426      3021.6574      1978.3426      3021.6574      1978.3426      3021.6574      1.135654e+09   0.5            10877100       4.2955437      5152.215       10304.436      5.4228836    
  21749400   165525.3       15.237217     -34953213       0.52929865     492906.08     -34460307       1043.3148      1043.3148      1043.3148      1978.3426      3021.6574      1978.3426      3021.6574      1978.3426      3021.6574      1.135654e+09   0.5            10877200       4.315212       5084.2852      10168.541      5.403737     
  21749600   166308.87      15.482503     -34950665       0.52929865     495239.43     -34455426       1043.3148      1043.3148      1043.3148      1978.3426      3021.6574      1978.3426      3021.6574      1978.3426      3021.6574      1.135654e+09   0.5            10877300       4.3348229      5099.1897      10198.436      5.3845138    
  21749800   164865.56      15.437889     -34937014       0.52929865     490941.49     -34446073       1043.3148      1043.3148      1043.3148      1978.3426      3021.6574      1978.3426      3021.6574      1978.3426      3021.6574      1.135654e+09   0.5            10877400       4.3543627      5117.7832      10235.518      5.3651998    
[...]
  22394400   307.29855      0.5233394     -34880369       0.54427092     915.08259     -34879454       1033.6589      1033.6589      1033.6589      1983.1706      3016.8294      1983.1706      3016.8294      1983.1706      3016.8294      1.1044135e+09  0.5            11199700       33.538784      4279.6135      8559.2234      1.2284421    
  22394600   307.32383      1.5118431     -34880456       0.54430744     915.15789     -34879541       1033.6357      1033.6357      1033.6357      1983.1821      3016.8179      1983.1821      3016.8179      1983.1821      3016.8179      1.1043394e+09  0.5            11199800       33.561851      4335.1422      8670.2826      1.2052599    
  22394800   307.17877     -0.24662999    -34880545       0.54425593     914.72593     -34879630       1033.6684      1033.6684      1033.6684      1983.1658      3016.8342      1983.1658      3016.8342      1983.1658      3016.8342      1.1044439e+09  0.5            11199900       33.585012      4317.6836      8635.3623      1.1820812    
  22395000   306.92738      1.9549098     -34880631       0.54433166     913.97732     -34879717       1033.6204      1033.6204      1033.6204      1983.1898      3016.8102      1983.1898      3016.8102      1983.1898      3016.8102      1.1042903e+09  0.5            11200000       33.60825       4303.2552      8606.4571      1.1589053    
  22395200   307.21592      1.071239      -34873343       0.54430495     914.83656     -34872428       1033.6373      1033.6373      1033.6373      1983.1813      3016.8187      1983.1813      3016.8187      1983.1813      3016.8187      1.1043444e+09  0.5            11200100       33.631278      4342.4752      8685.0081      1.1357221    
  22395400   307.45629      2.1741106     -34873429       0.54434578     915.55234     -34872514       1033.6115      1033.6115      1033.6115      1983.1943      3016.8057      1983.1943      3016.8057      1983.1943      3016.8057      1.1042616e+09  0.5            11200200       33.654232      4356.5456      8713.0628      1.1125367    
  22395600   307.3114       2.622488      -34873517       0.54436464     915.12088     -34872602       1033.5995      1033.5995      1033.5995      1983.2002      3016.7998      1983.2002      3016.7998      1983.2002      3016.7998      1.1042234e+09  0.5            11200300       33.677413      4313.941       8627.8843      1.0893589    
  22395800   307.03091      2.1493385     -34873605       0.54435336     914.28562     -34872691       1033.6067      1033.6067      1033.6067      1983.1967      3016.8033      1983.1967      3016.8033      1983.1967      3016.8033      1.1042462e+09  0.5            11200400       33.700663      4301.0895      8602.2116      1.0661834    
  22396000   306.68698      0.1609993     -34873694       0.5442938      913.26144     -34872781       1033.6444      1033.6444      1033.6444      1983.1778      3016.8222      1983.1778      3016.8222      1983.1778      3016.8222      1.1043671e+09  0.5            11200500       33.723627      4354.558       8709.0702      1.0429989    
  22396200   306.99486     -1.2544146     -34873779       0.54425338     914.17826     -34872865       1033.67        1033.67        1033.67        1983.165       3016.835       1983.165       3016.835       1983.165       3016.835       1.1044491e+09  0.5            11200600       33.746626      4348.0987      8696.1898      1.0198157    
  22396400   307.3306      -0.70112978    -34866489       0.54427328     915.17805     -34865573       1033.6574      1033.6574      1033.6574      1983.1713      3016.8287      1983.1713      3016.8287      1983.1713      3016.8287      1.1044087e+09  0.5            11200700       33.769556      4360.9318      8721.8918      0.99663077   
  22396600   307.35371      0.93221405    -34873954       0.54433614     915.24688     -34873039       1033.6176      1033.6176      1033.6176      1983.1912      3016.8088      1983.1912      3016.8088      1983.1912      3016.8088      1.1042812e+09  0.5            11200800       33.792819      4298.6852      8597.3852      0.97345578   
  22396800   307.2326       2.1532218     -34874040       0.54438129     914.88621     -34873125       1033.589       1033.589       1033.589       1983.2055      3016.7945      1983.2055      3016.7945      1983.2055      3016.7945      1.1041896e+09  0.5            11200900       33.815956      4322.2425      8644.4832      0.95027709   
  22397000   306.99559      2.9085361     -34874126       0.54441126     914.18043     -34873212       1033.57        1033.57        1033.57        1983.215       3016.785       1983.215       3016.785       1983.215       3016.785       1.1041288e+09  0.5            11201000       33.838943      4350.1148      8700.1891      0.92709441   
  22397200   307.29504      2.1795664     -34866839       0.54438899     915.07216     -34865923       1033.5841      1033.5841      1033.5841      1983.2079      3016.7921      1983.2079      3016.7921      1983.2079      3016.7921      1.104174e+09   0.5            11201100       33.862015      4334.2516      8668.5509      0.90391424   
  22397400   307.48987      1.4603272     -34866929       0.54437046     915.65231     -34866013       1033.5959      1033.5959      1033.5959      1983.2021      3016.7979      1983.2021      3016.7979      1983.2021      3016.7979      1.1042115e+09  0.5            11201200       33.885069      4337.7871      8675.5754      0.88073373   
  22397600   307.30509     -0.35727517    -34867019       0.54431551     915.10207     -34866104       1033.6306      1033.6306      1033.6306      1983.1847      3016.8153      1983.1847      3016.8153      1983.1847      3016.8153      1.104323e+09   0.5            11201300       33.908273      4309.5667      8619.1289      0.85755721   
  22397800   307.06221      1.7891988     -34867105       0.54438821     914.37883     -34866191       1033.5846      1033.5846      1033.5846      1983.2077      3016.7923      1983.2077      3016.7923      1983.2077      3016.7923      1.1041755e+09  0.5            11201400       33.931789      4252.4546      8504.8948      0.83438831   
  22398000   306.78005      1.8073203     -34874570       0.5443968      913.53861     -34873657       1033.5792      1033.5792      1033.5792      1983.2104      3016.7896      1983.2104      3016.7896      1983.2104      3016.7896      1.1041581e+09  0.5            11201500       33.954786      4348.2637      8696.5044      0.81120656   
  22398200   307.16165      0.87294997    -34874659       0.54437194     914.67494     -34873744       1033.5949      1033.5949      1033.5949      1983.2025      3016.7975      1983.2025      3016.7975      1983.2025      3016.7975      1.1042085e+09  0.5            11201600       33.977962      4314.8706      8629.7885      0.78802919   
  22398400   307.50264      0.62581543    -34874747       0.54436971     915.69037     -34873831       1033.5963      1033.5963      1033.5963      1983.2018      3016.7982      1983.2018      3016.7982      1983.2018      3016.7982      1.1042131e+09  0.5            11201700       34.001166      4309.7101      8619.4328      0.76485245   
  22398600   307.41363      0.65713878    -34874836       0.54437528     915.4253      -34873920       1033.5928      1033.5928      1033.5928      1983.2036      3016.7964      1983.2036      3016.7964      1983.2036      3016.7964      1.1042018e+09  0.5            11201800       34.024125      4355.499       8710.9649      0.74167035   
  22398800   307.15108      2.5597407     -34882299       0.54444418     914.64347     -34881385       1033.5492      1033.5492      1033.5492      1983.2254      3016.7746      1983.2254      3016.7746      1983.2254      3016.7746      1.104062e+09   0.5            11201900       34.047082      4355.9298      8711.8319      0.71848851   
  22399000   306.86941      2.262415      -34882388       0.54443825     913.8047      -34881474       1033.553       1033.553       1033.553       1983.2235      3016.7765      1983.2235      3016.7765      1983.2235      3016.7765      1.1040741e+09  0.5            11202000       34.070079      4348.398       8696.7759      0.69530779   
  22399200   307.29226      1.0517771     -34882478       0.54440323     915.06387     -34881563       1033.5751      1033.5751      1033.5751      1983.2124      3016.7876      1983.2124      3016.7876      1983.2124      3016.7876      1.1041451e+09  0.5            11202100       34.093369      4293.6356      8587.3419      0.6721331    
  22399400   307.5309      -0.41887634    -34882568       0.54435915     915.77451     -34881652       1033.603       1033.603       1033.603       1983.1985      3016.8015      1983.1985      3016.8015      1983.1985      3016.8015      1.1042345e+09  0.5            11202200       34.116829      4262.6522      8525.2891      0.64896147   
  22399600   307.24394      1.6776586     -34882656       0.54442906     914.91998     -34881741       1033.5588      1033.5588      1033.5588      1983.2206      3016.7794      1983.2206      3016.7794      1983.2206      3016.7794      1.1040927e+09  0.5            11202300       34.139821      4349.3962      8698.783       0.62578087   
  22399800   306.90918      2.0986542     -34882742       0.54444504     913.92314     -34881828       1033.5487      1033.5487      1033.5487      1983.2257      3016.7743      1983.2257      3016.7743      1983.2257      3016.7743      1.1040603e+09  0.5            11202400       34.163363      4247.5981      8495.2059      0.60261025   
  22400000   306.75898     -0.15541752    -34882831       0.54437583     913.47587     -34881918       1033.5925      1033.5925      1033.5925      1983.2038      3016.7962      1983.2038      3016.7962      1983.2038      3016.7962      1.1042006e+09  0.5            11202500       34.186478      4326.258       8652.47        0.57943188   
  22400200   307.305        1.039661      -34882918       0.54441898     915.10181     -34882003       1033.5652      1033.5652      1033.5652      1983.2174      3016.7826      1983.2174      3016.7826      1983.2174      3016.7826      1.1041131e+09  0.5            11202600       34.209754      4296.1942      8592.4121      0.55625621   
  22400400   307.48688      2.1184808     -34883005       0.54445743     915.64343     -34882089       1033.5408      1033.5408      1033.5408      1983.2296      3016.7704      1983.2296      3016.7704      1983.2296      3016.7704      1.1040352e+09  0.5            11202700       34.23274       4350.5367      8701.0881      0.53307588   
  22400600   307.17902      0.71371719    -34883095       0.54441551     914.72665     -34882180       1033.5673      1033.5673      1033.5673      1983.2163      3016.7837      1983.2163      3016.7837      1983.2163      3016.7837      1.1041202e+09  0.5            11202800       34.255796      4337.3709      8674.7618      0.50989686   
  22400800   307.06607     -0.0094853692  -34883183       0.5443963      914.39031     -34882269       1033.5795      1033.5795      1033.5795      1983.2102      3016.7898      1983.2102      3016.7898      1983.2102      3016.7898      1.1041591e+09  0.5            11202900       34.278939      4320.8889      8641.7539      0.48671925   
  22401000   306.97554      0.82060351    -34883271       0.54442717     914.12074     -34882356       1033.56        1033.56        1033.56        1983.22        3016.78        1983.22        3016.78        1983.22        3016.78        1.1040965e+09  0.5            11203000       34.302257      4288.5133      8576.9572      0.46354405   
  22401200   307.12465      1.668327      -34883357       0.54445829     914.56477     -34882442       1033.5403      1033.5403      1033.5403      1983.2299      3016.7701      1983.2299      3016.7701      1983.2299      3016.7701      1.1040334e+09  0.5            11203100       34.325317      4336.5999      8673.2315      0.44036534   
  22401400   307.11616      1.7807708     -34883443       0.54446616     914.53948     -34882529       1033.5353      1033.5353      1033.5353      1983.2324      3016.7676      1983.2324      3016.7676      1983.2324      3016.7676      1.1040175e+09  0.5            11203200       34.348316      4347.8733      8695.7834      0.41718606   
  22401600   307.10075      1.1415368     -34883531       0.54445068     914.49358     -34882616       1033.5451      1033.5451      1033.5451      1983.2275      3016.7725      1983.2275      3016.7725      1983.2275      3016.7725      1.1040489e+09  0.5            11203300       34.371355      4340.5087      8681.019       0.39400747   
  22401800   307.1692       0.43049611    -34883618       0.54443321     914.69743     -34882704       1033.5561      1033.5561      1033.5561      1983.2219      3016.7781      1983.2219      3016.7781      1983.2219      3016.7781      1.1040843e+09  0.5            11203400       34.39463       4296.4309      8592.861       0.37083162   
  22402000   306.92429      0.44570097    -34883705       0.54443859     913.96812     -34882791       1033.5527      1033.5527      1033.5527      1983.2236      3016.7764      1983.2236      3016.7764      1983.2236      3016.7764      1.1040734e+09  0.5            11203500       34.417849      4306.9192      8613.8008      0.34765506   
  22402200   306.9614       0.93127511    -34883791       0.54445874     914.07863     -34882877       1033.54        1033.54        1033.54        1983.23        3016.77        1983.23        3016.77        1983.23        3016.77        1.1040325e+09  0.5            11203600       34.440928      4332.9655      8665.9814      0.32447714   
  22402400   307.09902      1.3561925     -34883877       0.54447702     914.48843     -34882963       1033.5284      1033.5284      1033.5284      1983.2358      3016.7642      1983.2358      3016.7642      1983.2358      3016.7642      1.1039954e+09  0.5            11203700       34.463906      4351.8981      8703.8133      0.30129846   
  22402600   307.16396      0.76602464    -34891342       0.54446596     914.68182     -34890427       1033.5354      1033.5354      1033.5354      1983.2323      3016.7677      1983.2323      3016.7677      1983.2323      3016.7677      1.1040179e+09  0.5            11203800       34.487057      4319.4531      8638.9092      0.27812145   
  22402800   306.97569      1.1277422     -34891427       0.54448085     914.12119     -34890513       1033.526       1033.526       1033.526       1983.237       3016.763       1983.237       3016.763       1983.237       3016.763       1.1039877e+09  0.5            11203900       34.510284      4305.3499      8610.6601      0.25494503   
  22403000   306.6511       1.3845191     -34891512       0.54449267     913.15462     -34890599       1033.5185      1033.5185      1033.5185      1983.2407      3016.7593      1983.2407      3016.7593      1983.2407      3016.7593      1.1039637e+09  0.5            11204000       34.53328       4348.606       8697.192       0.231767     
  22403200   306.90404      1.3626144     -34891597       0.54449608     913.90781     -34890683       1033.5164      1033.5164      1033.5164      1983.2418      3016.7582      1983.2418      3016.7582      1983.2418      3016.7582      1.1039568e+09  0.5            11204100       34.556393      4326.6123      8653.2692      0.20858991   
  22403400   307.1137       1.0112061     -34891682       0.54448938     914.53216     -34890767       1033.5206      1033.5206      1033.5206      1983.2397      3016.7603      1983.2397      3016.7603      1983.2397      3016.7603      1.1039704e+09  0.5            11204200       34.579513      4325.2713      8650.5497      0.18541295   
  22403600   307.03183      0.68928125    -34891767       0.5444841      914.28836     -34890853       1033.5239      1033.5239      1033.5239      1983.238       3016.762       1983.238       3016.762       1983.238       3016.762       1.1039811e+09  0.5            11204300       34.602813      4291.7766      8583.5359      0.16223691   
  22403800   307.00735      0.90353643    -34891852       0.54449657     914.21545     -34890938       1033.5161      1033.5161      1033.5161      1983.242       3016.758       1983.242       3016.758       1983.242       3016.758       1.1039558e+09  0.5            11204400       34.625781      4353.8476      8707.7067      0.13905937   
  22404000   306.96034      1.2572805     -34891938       0.54451323     914.07548     -34891023       1033.5055      1033.5055      1033.5055      1983.2472      3016.7528      1983.2472      3016.7528      1983.2472      3016.7528      1.103922e+09   0.5            11204500       34.649211      4268.1392      8536.2529      0.11588366   
  22404200   307.07787      1.0873944     -34892024       0.54451179     914.42546     -34891109       1033.5064      1033.5064      1033.5064      1983.2468      3016.7532      1983.2468      3016.7532      1983.2468      3016.7532      1.1039249e+09  0.5            11204600       34.672362      4319.427       8638.8383      0.092706857  
  22404400   306.96136      0.81395694    -34892110       0.54450621     914.07851     -34891196       1033.51        1033.51        1033.51        1983.245       3016.755       1983.245       3016.755       1983.245       3016.755       1.1039363e+09  0.5            11204700       34.695681      4288.3811      8576.7854      0.069530427  
  22404600   306.84001      0.83949779    -34892194       0.54451069     913.71716     -34891281       1033.5071      1033.5071      1033.5071      1983.2464      3016.7536      1983.2464      3016.7536      1983.2464      3016.7536      1.1039272e+09  0.5            11204800       34.718796      4326.1674      8652.3397      0.046353536  
  22404800   306.94159      1.0896407     -34892279       0.54452292     914.01965     -34891365       1033.4994      1033.4994      1033.4994      1983.2503      3016.7497      1983.2503      3016.7497      1983.2503      3016.7497      1.1039024e+09  0.5            11204900       34.741774      4351.9614      8703.9111      0.023176635  
  22405000   306.77719      1.1699111     -34892363       0.54452918     913.53009     -34891450       1033.4954      1033.4954      1033.4954      1983.2523      3016.7477      1983.2523      3016.7477      1983.2523      3016.7477      1.1038897e+09  0.5            11205000       34.764784      4345.8533      8691.6706      0            
Loop time of 34.7649 on 4 procs for 300000 steps with 1000 atoms

Performance: 372.790 ns/day, 0.064 hours/ns, 8629.402 timesteps/s
99.6% CPU use with 4 MPI tasks x no OpenMP threads

MPI task timing breakdown:
Section |  min time  |  avg time  |  max time  |%varavg| %total
---------------------------------------------------------------
Pair    | 1.857      | 7.9293     | 18.02      | 215.2 | 22.81
Neigh   | 0.0042462  | 0.015263   | 0.0336     |   8.9 |  0.04
Comm    | 7.9608     | 16.774     | 21.742     | 127.9 | 48.25
Output  | 0.055911   | 0.076349   | 0.13599    |  12.5 |  0.22
Modify  | 7.0086     | 7.5398     | 7.8545     |  12.1 | 21.69
Other   |            | 2.43       |            |       |  6.99

Nlocal:            250 ave         471 max         114 min
Histogram: 1 0 2 0 0 0 0 0 0 1
Nghost:          428.5 ave         532 max         316 min
Histogram: 1 0 0 0 0 2 0 0 0 1
Neighs:           1139 ave        2685 max         206 min
Histogram: 1 0 2 0 0 0 0 0 0 1

Total # of neighbors = 4556
Ave neighs/atom = 4.556
Neighbor list builds = 106
Dangerous builds = 24

# run_style
run_style verlet

# write restart
write_restart ${write_res}
write_restart ./pgnpmf/37/equpmf32.res
System init for write_restart ...
Generated 0 of 1 mixed pair_coeff terms from geometric mixing rule

Total wall time: 0:01:13
