LAMMPS (23 Jun 2022 - Update 1)
OMP_NUM_THREADS environment is not set. Defaulting to 1 thread. (src/comm.cpp:98)
  using 1 OpenMP thread(s) per MPI task
# Read restart
read_restart ${read_res}
read_restart ./pgnpmf/37/equpmf80.res
Reading restart file ...
  restart file = 23 Jun 2022, LAMMPS = 23 Jun 2022
  restoring atom style atomic from restart
  orthogonal box = (2147.5826 2147.5826 2147.5826) to (2852.4174 2852.4174 2852.4174)
  1 by 1 by 1 MPI processor grid
  restoring pair style table from restart
  1000 atoms
  read_restart CPU = 0.004 seconds

# Settings

pair_style table spline 9941

pair_coeff 1 1 ./pgnpmf/N20.txt DE_GNP 75.6
pair_coeff 2 2 ./pgnpmf/N100.txt DE_GNP 115.92
WARNING: 3 of 9941 force values in table DE_GNP are inconsistent with -dE/dr.
WARNING:  Should only be flagged at inflection points (src/pair_table.cpp:463)
pair_coeff 1 2 ./pgnpmf/mixed_potential.txt DE_GNP 95.66
WARNING: 1562 of 9941 force values in table DE_GNP are inconsistent with -dE/dr.
WARNING:  Should only be flagged at inflection points (src/pair_table.cpp:463)

#Neigh_list Calc Frequency

neigh_modify delay 0 every 1 check yes

# Saving Frequency (50 frames)

variable ts_save equal ${steps_equ}
variable ts_save equal 5000

# Dump
#dump 1 all custom ${ts_save} ./pgnpmf/${folder}/equilibration/trajectory/trajectory_${usic}_${trial}.equ.custom type x y z ix iy iz
#dump_modify 1 first no sort id
#dump 2 all cfg 50000 ./equilibration/trajectory/ovito/dumpgen.tens_*.cfg mass type xs ys zs fx fy fz

# thermo_style
thermo_style custom step temp press pe density ke etotal lx ly lz xlo xhi ylo yhi zlo zhi vol dt time cpu tpcpu spcpu cpuremain

# run info
timestep ${ts}
timestep 0.1
thermo 200

# fix

fix 1 all momentum 1000 linear 1 1 1 angular
variable T equal ${temp}
variable T equal 300
fix 2 all nvt temp ${T} 370000 100.0
fix 2 all nvt temp 300 370000 100.0

run 100000
Generated 0 of 1 mixed pair_coeff terms from geometric mixing rule
Unused restart file global fix info:
  fix style: npt, fix ID: 5
Neighbor list info ...
  update every 1 steps, delay 0 steps, check yes
  max neighbors/atom: 2000, page size: 100000
  master list distance cutoff = 117.92
  ghost atom cutoff = 117.92
  binsize = 58.96, bins = 12 12 12
  1 neighbor lists, perpetual/occasional/extra = 1 0 0
  (1) pair table, perpetual
      attributes: half, newton on
      pair build: half/bin/atomonly/newton
      stencil: half/bin/3d
      bin: standard
Per MPI rank memory allocation (min/avg/max) = 3.112 | 3.112 | 3.112 Mbytes
   Step          Temp          Press          PotEng        Density         KinEng         TotEng           Lx             Ly             Lz            Xlo            Xhi            Ylo            Yhi            Zlo            Zhi           Volume           Dt            Time           CPU           T/CPU          S/CPU         CPULeft    
  56005000   305.48084     -6.0518764     -43861320       1.7166627      909.66977     -43860410       704.83472      704.83472      704.83472      2147.5826      2852.4174      2147.5826      2852.4174      2147.5826      2852.4174      3.5015623e+08  0.1            16525000       0              0              0              0            
  56005200   333.93719     -6.2112743     -43861390       1.7166627      994.40792     -43860396       704.83472      704.83472      704.83472      2147.5826      2852.4174      2147.5826      2852.4174      2147.5826      2852.4174      3.5015623e+08  0.1            16525020       0.041041441    487.29966      4872.8908      20.481084    
  56005400   376.07953     -6.3694971     -43861465       1.7166627      1119.9006     -43860345       704.83472      704.83472      704.83472      2147.5826      2852.4174      2147.5826      2852.4174      2147.5826      2852.4174      3.5015623e+08  0.1            16525040       0.082029027    487.95568      4879.5397      20.425877    
  56005600   421.79898     -6.5310329     -43861543       1.7166627      1256.0453     -43860287       704.83472      704.83472      704.83472      2147.5826      2852.4174      2147.5826      2852.4174      2147.5826      2852.4174      3.5015623e+08  0.1            16525060       0.12296956     488.51541      4885.1662      20.372341    
  56005800   477.23231     -6.6932834     -43861627       1.7166627      1421.1163     -43860206       704.83472      704.83472      704.83472      2147.5826      2852.4174      2147.5826      2852.4174      2147.5826      2852.4174      3.5015623e+08  0.1            16525080       0.1639551      487.97621      4879.7669      20.33073     
  56006000   541.72713     -6.8568        -43861716       1.7166627      1613.1709     -43860103       704.83472      704.83472      704.83472      2147.5826      2852.4174      2147.5826      2852.4174      2147.5826      2852.4174      3.5015623e+08  0.1            16525100       0.20497878     487.52399      4875.2368      20.293127    
  56006200   615.95881     -7.0208027     -43861810       1.7166627      1834.2201     -43859976       704.83472      704.83472      704.83472      2147.5826      2852.4174      2147.5826      2852.4174      2147.5826      2852.4174      3.5015623e+08  0.1            16525120       0.24590602     488.67203      4886.7214      20.246453    
  56006400   700.83399     -7.1848841     -43861911       1.7166627      2086.9639     -43859824       704.83472      704.83472      704.83472      2147.5826      2852.4174      2147.5826      2852.4174      2147.5826      2852.4174      3.5015623e+08  0.1            16525140       0.28686979     488.23715      4882.3711      20.203987    
  56006600   797.5212      -7.3483713     -43862019       1.7166627      2374.882      -43859644       704.83472      704.83472      704.83472      2147.5826      2852.4174      2147.5826      2852.4174      2147.5826      2852.4174      3.5015623e+08  0.1            16525160       0.32878908     477.1063       4771.0653      20.220677    
  56006800   907.38765     -7.5107048     -43862133       1.7166627      2702.0455     -43859431       704.83472      704.83472      704.83472      2147.5826      2852.4174      2147.5826      2852.4174      2147.5826      2852.4174      3.5015623e+08  0.1            16525180       0.36976871     488.04714      4880.4708      20.173064    
  56007000   1031.6616     -7.6717854     -43862255       1.7166627      3072.1121     -43859183       704.83472      704.83472      704.83472      2147.5826      2852.4174      2147.5826      2852.4174      2147.5826      2852.4174      3.5015623e+08  0.1            16525200       0.41076579     487.84062      4878.4047      20.127634    
  56007200   1172.5995     -7.8315829     -43862385       1.7166627      3491.8011     -43858893       704.83472      704.83472      704.83472      2147.5826      2852.4174      2147.5826      2852.4174      2147.5826      2852.4174      3.5015623e+08  0.1            16525220       0.45170024     488.58644      4885.8615      20.080231    
  56007400   1331.9748     -7.9912212     -43862523       1.7166627      3966.3934     -43858557       704.83472      704.83472      704.83472      2147.5826      2852.4174      2147.5826      2852.4174      2147.5826      2852.4174      3.5015623e+08  0.1            16525240       0.49260978     488.88335      4888.8314      20.032893    
  56007600   1512.0018     -7.9899088     -43860776       1.7166627      4502.4831     -43856273       704.83472      704.83472      704.83472      2147.5826      2852.4174      2147.5826      2852.4174      2147.5826      2852.4174      3.5015623e+08  0.1            16525260       0.53360575     487.85256      4878.5239      19.989782    
  56007800   1715.1046     -8.1538286     -43860932       1.7166627      5107.2888     -43855825       704.83472      704.83472      704.83472      2147.5826      2852.4174      2147.5826      2852.4174      2147.5826      2852.4174      3.5015623e+08  0.1            16525280       0.57450899     488.95922      4889.5951      19.943749    
  56008000   1943.6345     -8.326229      -43861099       1.7166627      5787.8116     -43855311       704.83472      704.83472      704.83472      2147.5826      2852.4174      2147.5826      2852.4174      2147.5826      2852.4174      3.5015623e+08  0.1            16525300       0.6154945      487.97753      4879.7748      19.901064    
  56008200   2201.0793     -8.5132631     -43861275       1.7166627      6554.4384     -43854721       704.83472      704.83472      704.83472      2147.5826      2852.4174      2147.5826      2852.4174      2147.5826      2852.4174      3.5015623e+08  0.1            16525320       0.65753078     475.77764      4757.7716      19.890382    
  56008400   2490.512      -8.7218908     -43861463       1.7166627      7416.3195     -43854047       704.83472      704.83472      704.83472      2147.5826      2852.4174      2147.5826      2852.4174      2147.5826      2852.4174      3.5015623e+08  0.1            16525340       0.6984723      488.50244      4885.0241      19.844902    
  56008600   2815.5075     -8.9580698     -43861663       1.7166627      8384.1004     -43853279       704.83472      704.83472      704.83472      2147.5826      2852.4174      2147.5826      2852.4174      2147.5826      2852.4174      3.5015623e+08  0.1            16525360       0.73939542     488.72145      4887.2209      19.79943     
  56008800   3179.9572     -9.2254598     -43861875       1.7166627      9469.3695     -43852405       704.83472      704.83472      704.83472      2147.5826      2852.4174      2147.5826      2852.4174      2147.5826      2852.4174      3.5015623e+08  0.1            16525380       0.78042448     487.45831      4874.5794      19.757124    
  56009000   3587.7302     -9.5247378     -43862099       1.7166627      10683.648     -43851416       704.83472      704.83472      704.83472      2147.5826      2852.4174      2147.5826      2852.4174      2147.5826      2852.4174      3.5015623e+08  0.1            16525400       0.8213239      489.00601      4890.068       19.711828    
  56009200   4043.8701     -9.8549342     -43862338       1.7166627      12041.955     -43850296       704.83472      704.83472      704.83472      2147.5826      2852.4174      2147.5826      2852.4174      2147.5826      2852.4174      3.5015623e+08  0.1            16525420       0.86226256     488.53474      4885.343       19.667853    
  56009400   4553.0095     -10.494713     -43864853       1.7166627      13558.085     -43851295       704.83472      704.83472      704.83472      2147.5826      2852.4174      2147.5826      2852.4174      2147.5826      2852.4174      3.5015623e+08  0.1            16525440       0.90359483     483.8849       4838.8516      19.632701    
  56009600   5120.2628     -10.894349     -43865121       1.7166627      15247.268     -43849874       704.83472      704.83472      704.83472      2147.5826      2852.4174      2147.5826      2852.4174      2147.5826      2852.4174      3.5015623e+08  0.1            16525460       0.9445231      488.6594       4886.5929      19.588635    
  56009800   5750.9012     -11.31773      -43865404       1.7166627      17125.202     -43848279       704.83472      704.83472      704.83472      2147.5826      2852.4174      2147.5826      2852.4174      2147.5826      2852.4174      3.5015623e+08  0.1            16525480       0.98551924     487.85001      4878.5026      19.546177    
  56010000   6450.0517     -11.577619     -43863809       1.7166627      19207.152     -43844602       704.83472      704.83472      704.83472      2147.5826      2852.4174      2147.5826      2852.4174      2147.5826      2852.4174      3.5015623e+08  0.1            16525500       1.0264761      488.31967      4883.1929      19.503089    
  56010200   7223.7236     -11.970972     -43864125       1.7166627      21511.015     -43842614       704.83472      704.83472      704.83472      2147.5826      2852.4174      2147.5826      2852.4174      2147.5826      2852.4174      3.5015623e+08  0.1            16525520       1.0674005      488.70657      4887.0668      19.459573    
  56010400   8077.1344     -12.323906     -43864458       1.7166627      24052.327     -43840406       704.83472      704.83472      704.83472      2147.5826      2852.4174      2147.5826      2852.4174      2147.5826      2852.4174      3.5015623e+08  0.1            16525540       1.1083008      488.99381      4889.9349      19.415829    
  56010600   9015.5309     -12.256816     -43857431       1.7166627      26846.712     -43830584       704.83472      704.83472      704.83472      2147.5826      2852.4174      2147.5826      2852.4174      2147.5826      2852.4174      3.5015623e+08  0.1            16525560       1.1491714      489.34879      4893.4889      19.371785    
  56010800   10043.762     -12.550317     -43857800       1.7166627      29908.609     -43827891       704.83472      704.83472      704.83472      2147.5826      2852.4174      2147.5826      2852.4174      2147.5826      2852.4174      3.5015623e+08  0.1            16525580       1.1901131      488.50056      4885.008       19.329114    
  56011000   11165.689     -12.670363     -43856293       1.7166627      33249.517     -43823043       704.83472      704.83472      704.83472      2147.5826      2852.4174      2147.5826      2852.4174      2147.5826      2852.4174      3.5015623e+08  0.1            16525600       1.2324428      472.47988      4724.803       19.308308    
  56011200   12385.192     -12.9604       -43856699       1.7166627      36880.986     -43819818       704.83472      704.83472      704.83472      2147.5826      2852.4174      2147.5826      2852.4174      2147.5826      2852.4174      3.5015623e+08  0.1            16525620       1.273406       488.24302      4882.42        19.265438    
  56011400   13704.176     -13.26666      -43857125       1.7166627      40808.696     -43816316       704.83472      704.83472      704.83472      2147.5826      2852.4174      2147.5826      2852.4174      2147.5826      2852.4174      3.5015623e+08  0.1            16525640       1.315414       476.09894      4760.9976      19.237966    
  56011600   15123.119     -13.594683     -43857571       1.7166627      45034.066     -43812537       704.83472      704.83472      704.83472      2147.5826      2852.4174      2147.5826      2852.4174      2147.5826      2852.4174      3.5015623e+08  0.1            16525660       1.3563142      488.99758      4889.9674      19.193934    
  56011800   16640.408     -13.585742     -43850660       1.7166627      49552.295     -43801108       704.83472      704.83472      704.83472      2147.5826      2852.4174      2147.5826      2852.4174      2147.5826      2852.4174      3.5015623e+08  0.1            16525680       1.3973245      487.68277      4876.8318      19.151596    
  56012000   18251.576     -13.912347     -43849254       1.7166627      54350.076     -43794904       704.83472      704.83472      704.83472      2147.5826      2852.4174      2147.5826      2852.4174      2147.5826      2852.4174      3.5015623e+08  0.1            16525700       1.4383367      487.65906      4876.5872      19.10936     
  56012200   19949.773     -14.552143     -43849763       1.7166627      59407.017     -43790356       704.83472      704.83472      704.83472      2147.5826      2852.4174      2147.5826      2852.4174      2147.5826      2852.4174      3.5015623e+08  0.1            16525720       1.4801921      477.83534      4778.3533      19.078061    
  56012400   21723.919     -15.236953     -43850293       1.7166627      64690.121     -43785603       704.83472      704.83472      704.83472      2147.5826      2852.4174      2147.5826      2852.4174      2147.5826      2852.4174      3.5015623e+08  0.1            16525740       1.5211474      488.3373       4883.3653      19.034929    
  56012600   23559.106     -15.795928     -43850844       1.7166627      70154.994     -43780689       704.83472      704.83472      704.83472      2147.5826      2852.4174      2147.5826      2852.4174      2147.5826      2852.4174      3.5015623e+08  0.1            16525760       1.5621404      487.88816      4878.8872      18.992366    
  56012800   25435.868     -16.184657     -43851416       1.7166627      75743.672     -43775672       704.83472      704.83472      704.83472      2147.5826      2852.4174      2147.5826      2852.4174      2147.5826      2852.4174      3.5015623e+08  0.1            16525780       1.6031097      488.17043      4881.711       18.949606    
  56013000   27329.512     -15.927608     -43842734       1.7166627      81382.619     -43761352       704.83472      704.83472      704.83472      2147.5826      2852.4174      2147.5826      2852.4174      2147.5826      2852.4174      3.5015623e+08  0.1            16525800       1.644158       487.23085      4872.3029      18.907844    
  56013200   29211.439     -16.090197     -43842976       1.7166627      86986.677     -43755990       704.83472      704.83472      704.83472      2147.5826      2852.4174      2147.5826      2852.4174      2147.5826      2852.4174      3.5015623e+08  0.1            16525820       1.6851276      488.16669      4881.6684      18.865235    
  56013400   31046.94      -16.530434     -43843971       1.7166627      92452.486     -43751519       704.83472      704.83472      704.83472      2147.5826      2852.4174      2147.5826      2852.4174      2147.5826      2852.4174      3.5015623e+08  0.1            16525840       1.7261068      488.05101      4880.5163      18.82281     
  56013600   32797.797     -16.880798     -43844612       1.7166627      97666.239     -43746946       704.83472      704.83472      704.83472      2147.5826      2852.4174      2147.5826      2852.4174      2147.5826      2852.4174      3.5015623e+08  0.1            16525860       1.7671509      487.28319      4872.8217      18.781139    
  56013800   34423.093     -17.308271     -43845265       1.7166627      102506.09     -43742759       704.83472      704.83472      704.83472      2147.5826      2852.4174      2147.5826      2852.4174      2147.5826      2852.4174      3.5015623e+08  0.1            16525880       1.8081544      487.76325      4877.6364      18.739078    
  56014000   35880.922     -17.941598     -43845930       1.7166627      106847.26     -43739082       704.83472      704.83472      704.83472      2147.5826      2852.4174      2147.5826      2852.4174      2147.5826      2852.4174      3.5015623e+08  0.1            16525900       1.849201       487.24996      4872.4958      18.697501    
  56014200   37132.655     -18.685318     -43844708       1.7166627      110574.71     -43734133       704.83472      704.83472      704.83472      2147.5826      2852.4174      2147.5826      2852.4174      2147.5826      2852.4174      3.5015623e+08  0.1            16525920       1.8902628      487.0716       4870.7157      18.656095    
  56014400   38145.273     -19.77284      -43845388       1.7166627      113590.11     -43731798       704.83472      704.83472      704.83472      2147.5826      2852.4174      2147.5826      2852.4174      2147.5826      2852.4174      3.5015623e+08  0.1            16525940       1.9311796      488.79653      4887.9686      18.613306    
  56014600   38897.808     -20.924866     -43846071       1.7166627      115831.03     -43730240       704.83472      704.83472      704.83472      2147.5826      2852.4174      2147.5826      2852.4174      2147.5826      2852.4174      3.5015623e+08  0.1            16525960       1.9721655      487.97312      4879.7343      18.571246    
  56014800   39387.202     -22.215936     -43846753       1.7166627      117288.36     -43729465       704.83472      704.83472      704.83472      2147.5826      2852.4174      2147.5826      2852.4174      2147.5826      2852.4174      3.5015623e+08  0.1            16525980       2.0131303      488.22362      4882.2373      18.529039    
  56015000   39632.671     -24.059951     -43849328       1.7166627      118019.33     -43731309       704.83472      704.83472      704.83472      2147.5826      2852.4174      2147.5826      2852.4174      2147.5826      2852.4174      3.5015623e+08  0.1            16526000       2.054088       488.30857      4883.0899      18.486812    
  56015200   39677.438     -26.155876     -43850004       1.7166627      118152.63     -43731851       704.83472      704.83472      704.83472      2147.5826      2852.4174      2147.5826      2852.4174      2147.5826      2852.4174      3.5015623e+08  0.1            16526020       2.0950753      487.95488      4879.5401      18.444899    
  56015400   39582.382     -28.474454     -43852570       1.7166627      117869.57     -43734701       704.83472      704.83472      704.83472      2147.5826      2852.4174      2147.5826      2852.4174      2147.5826      2852.4174      3.5015623e+08  0.1            16526040       2.1360112      488.5705       4885.7077      18.402577    
  56015600   39418.856     -29.968216     -43845856       1.7166627      117382.62     -43728474       704.83472      704.83472      704.83472      2147.5826      2852.4174      2147.5826      2852.4174      2147.5826      2852.4174      3.5015623e+08  0.1            16526060       2.1769842      488.12584      4881.2581      18.360622    
  56015800   39260.456     -31.426626     -43844616       1.7166627      116910.93     -43727706       704.83472      704.83472      704.83472      2147.5826      2852.4174      2147.5826      2852.4174      2147.5826      2852.4174      3.5015623e+08  0.1            16526080       2.2187144      479.26968      4792.697       18.324956    
  56016000   39176.292     -32.903346     -43845266       1.7166627      116660.31     -43728605       704.83472      704.83472      704.83472      2147.5826      2852.4174      2147.5826      2852.4174      2147.5826      2852.4174      3.5015623e+08  0.1            16526100       2.2597181      487.76043      4877.6056      18.283192    
  56016200   39227.337     -34.254741     -43845911       1.7166627      116812.31     -43729099       704.83472      704.83472      704.83472      2147.5826      2852.4174      2147.5826      2852.4174      2147.5826      2852.4174      3.5015623e+08  0.1            16526120       2.3006447      488.67846      4886.7831      18.240845    
  56016400   39463.082     -35.451094     -43846555       1.7166627      117514.32     -43729041       704.83472      704.83472      704.83472      2147.5826      2852.4174      2147.5826      2852.4174      2147.5826      2852.4174      3.5015623e+08  0.1            16526140       2.3427257      475.2753       4752.7513      18.207518    
  56016600   39920.94      -36.678369     -43847568       1.7166627      118877.74     -43728690       704.83472      704.83472      704.83472      2147.5826      2852.4174      2147.5826      2852.4174      2147.5826      2852.4174      3.5015623e+08  0.1            16526160       2.3837048      488.05381      4880.5454      18.165492    
  56016800   40623.734     -37.772473     -43848212       1.7166627      120970.54     -43727241       704.83472      704.83472      704.83472      2147.5826      2852.4174      2147.5826      2852.4174      2147.5826      2852.4174      3.5015623e+08  0.1            16526180       2.4246241      488.76725      4887.6703      18.123054    
  56017000   41576.108     -38.772272     -43848856       1.7166627      123806.55     -43725050       704.83472      704.83472      704.83472      2147.5826      2852.4174      2147.5826      2852.4174      2147.5826      2852.4174      3.5015623e+08  0.1            16526200       2.4656149      487.9143       4879.1398      18.081192    
  56017200   42763.19      -39.666355     -43849500       1.7166627      127341.48     -43722159       704.83472      704.83472      704.83472      2147.5826      2852.4174      2147.5826      2852.4174      2147.5826      2852.4174      3.5015623e+08  0.1            16526220       2.506591       488.08803      4880.8881      18.039253    
  56017400   44149.347     -40.605362     -43850147       1.7166627      131469.22     -43718677       704.83472      704.83472      704.83472      2147.5826      2852.4174      2147.5826      2852.4174      2147.5826      2852.4174      3.5015623e+08  0.1            16526240       2.5475172      488.68578      4886.8523      17.996992    
  56017600   45682.261     -41.605875     -43850799       1.7166627      136033.97     -43714765       704.83472      704.83472      704.83472      2147.5826      2852.4174      2147.5826      2852.4174      2147.5826      2852.4174      3.5015623e+08  0.1            16526260       2.5885053      487.94629      4879.4633      17.955203    
  56017800   47298.146     -42.434838     -43849564       1.7166627      140845.8      -43708718       704.83472      704.83472      704.83472      2147.5826      2852.4174      2147.5826      2852.4174      2147.5826      2852.4174      3.5015623e+08  0.1            16526280       2.6295543      487.22318      4872.2311      17.913854    
  56018000   48928.229     -43.662327     -43857609       1.7166627      145699.91     -43711909       704.83472      704.83472      704.83472      2147.5826      2852.4174      2147.5826      2852.4174      2147.5826      2852.4174      3.5015623e+08  0.1            16526300       2.6705505      487.84869      4878.4868      17.872161    
  56018200   50504.962     -44.307557     -43858283       1.7166627      150395.15     -43707887       704.83472      704.83472      704.83472      2147.5826      2852.4174      2147.5826      2852.4174      2147.5826      2852.4174      3.5015623e+08  0.1            16526320       2.711494       488.47825      4884.7843      17.830142    
  56018400   51964.651     -45.013914     -43860855       1.7166627      154741.86     -43706113       704.83472      704.83472      704.83472      2147.5826      2852.4174      2147.5826      2852.4174      2147.5826      2852.4174      3.5015623e+08  0.1            16526340       2.7525288      487.39121      4873.9114      17.788746    
  56018600   53251.033     -45.58257      -43861532       1.7166627      158572.48     -43702959       704.83472      704.83472      704.83472      2147.5826      2852.4174      2147.5826      2852.4174      2147.5826      2852.4174      3.5015623e+08  0.1            16526360       2.7934994      488.15564      4881.5552      17.746952    
  56018800   54319.808     -46.413685     -43862206       1.7166627      161755.11     -43700450       704.83472      704.83472      704.83472      2147.5826      2852.4174      2147.5826      2852.4174      2147.5826      2852.4174      3.5015623e+08  0.1            16526380       2.834407       488.90581      4889.0679      17.704788    
  56019000   55142.55      -47.460388     -43862877       1.7166627      164205.1      -43698672       704.83472      704.83472      704.83472      2147.5826      2852.4174      2147.5826      2852.4174      2147.5826      2852.4174      3.5015623e+08  0.1            16526400       2.8758201      482.93929      4829.381       17.665766    
  56019200   55710.279     -48.531582     -43863545       1.7166627      165895.7      -43697650       704.83472      704.83472      704.83472      2147.5826      2852.4174      2147.5826      2852.4174      2147.5826      2852.4174      3.5015623e+08  0.1            16526420       2.9167484      488.65942      4886.5967      17.623747    
  56019400   56034.531     -49.590586     -43864208       1.7166627      166861.27     -43697347       704.83472      704.83472      704.83472      2147.5826      2852.4174      2147.5826      2852.4174      2147.5826      2852.4174      3.5015623e+08  0.1            16526440       2.9576987      488.39666      4883.9676      17.581889    
  56019600   56149.127     -50.527245     -43857487       1.7166627      167202.51     -43690284       704.83472      704.83472      704.83472      2147.5826      2852.4174      2147.5826      2852.4174      2147.5826      2852.4174      3.5015623e+08  0.1            16526460       2.9986674      488.17792      4881.7812      17.540164    
  56019800   56106.893     -52.03211      -43858136       1.7166627      167076.75     -43691059       704.83472      704.83472      704.83472      2147.5826      2852.4174      2147.5826      2852.4174      2147.5826      2852.4174      3.5015623e+08  0.1            16526480       3.0396065      488.52983      4885.2967      17.498289    
  56020000   55973.09      -53.464148     -43858407       1.7166627      166678.3      -43691729       704.83472      704.83472      704.83472      2147.5826      2852.4174      2147.5826      2852.4174      2147.5826      2852.4174      3.5015623e+08  0.1            16526500       3.0806026      487.85206      4878.5326      17.45676     
  56020200   55820.062     -54.23477      -43844283       1.7166627      166222.61     -43678060       704.83472      704.83472      704.83472      2147.5826      2852.4174      2147.5826      2852.4174      2147.5826      2852.4174      3.5015623e+08  0.1            16526520       3.1215913      487.93917      4879.3811      17.415206    
  56020400   55718.197     -55.777519     -43844907       1.7166627      165919.28     -43678988       704.83472      704.83472      704.83472      2147.5826      2852.4174      2147.5826      2852.4174      2147.5826      2852.4174      3.5015623e+08  0.1            16526540       3.1624756      489.18573      4891.8569      17.373092    
  56020600   55731.306     -57.073291     -43845526       1.7166627      165958.31     -43679568       704.83472      704.83472      704.83472      2147.5826      2852.4174      2147.5826      2852.4174      2147.5826      2852.4174      3.5015623e+08  0.1            16526560       3.2034282      488.36927      4883.6924      17.33138     
  56020800   55913.352     -58.003359     -43846138       1.7166627      166500.41     -43679638       704.83472      704.83472      704.83472      2147.5826      2852.4174      2147.5826      2852.4174      2147.5826      2852.4174      3.5015623e+08  0.1            16526580       3.244316       489.14299      4891.4301      17.289342    
  56021000   56305.955     -58.815676     -43846745       1.7166627      167669.52     -43679075       704.83472      704.83472      704.83472      2147.5826      2852.4174      2147.5826      2852.4174      2147.5826      2852.4174      3.5015623e+08  0.1            16526600       3.2860859      478.81281      4788.1261      17.251963    
  56021200   56937.26      -59.597945     -43847346       1.7166627      169549.44     -43677796       704.83472      704.83472      704.83472      2147.5826      2852.4174      2147.5826      2852.4174      2147.5826      2852.4174      3.5015623e+08  0.1            16526620       3.3279432      477.81576      4778.1536      17.214928    
  56021400   57817.525     -60.361435     -43847940       1.7166627      172170.72     -43675769       704.83472      704.83472      704.83472      2147.5826      2852.4174      2147.5826      2852.4174      2147.5826      2852.4174      3.5015623e+08  0.1            16526640       3.3688767      488.59664      4885.9708      17.173066    
  56021600   58938.477     -61.238283     -43848528       1.7166627      175508.72     -43673019       704.83472      704.83472      704.83472      2147.5826      2852.4174      2147.5826      2852.4174      2147.5826      2852.4174      3.5015623e+08  0.1            16526660       3.4098019      488.69609      4886.9661      17.131185    
  56021800   60272.909     -62.160341     -43849111       1.7166627      179482.43     -43669629       704.83472      704.83472      704.83472      2147.5826      2852.4174      2147.5826      2852.4174      2147.5826      2852.4174      3.5015623e+08  0.1            16526680       3.4506951      489.07953      4890.7923      17.089168    
  56022000   61775.357     -62.510102     -43842316       1.7166627      183956.46     -43658360       704.83472      704.83472      704.83472      2147.5826      2852.4174      2147.5826      2852.4174      2147.5826      2852.4174      3.5015623e+08  0.1            16526700       3.4916305      488.57475      4885.7436      17.047383    
  56022200   63386.386     -63.035707     -43842900       1.7166627      188753.83     -43654146       704.83472      704.83472      704.83472      2147.5826      2852.4174      2147.5826      2852.4174      2147.5826      2852.4174      3.5015623e+08  0.1            16526720       3.5325851      488.34589      4883.4605      17.005711    
  56022400   65036.171     -63.413948     -43845376       1.7166627      193666.61     -43651710       704.83472      704.83472      704.83472      2147.5826      2852.4174      2147.5826      2852.4174      2147.5826      2852.4174      3.5015623e+08  0.1            16526740       3.5736035      487.58562      4875.8669      16.964358    
  56022600   66652.784     -63.174396     -43838578       1.7166627      198480.61     -43640098       704.83472      704.83472      704.83472      2147.5826      2852.4174      2147.5826      2852.4174      2147.5826      2852.4174      3.5015623e+08  0.1            16526760       3.6146087      487.74332      4877.4217      16.922951    
  56022800   68167.212     -63.622248     -43839156       1.7166627      202990.32     -43636165       704.83472      704.83472      704.83472      2147.5826      2852.4174      2147.5826      2852.4174      2147.5826      2852.4174      3.5015623e+08  0.1            16526780       3.6555544      488.45167      4884.5232      16.881278    
  56023000   69516.786     -64.152445     -43837834       1.7166627      207009.12     -43630824       704.83472      704.83472      704.83472      2147.5826      2852.4174      2147.5826      2852.4174      2147.5826      2852.4174      3.5015623e+08  0.1            16526800       3.6965527      487.82482      4878.2412      16.839862    
  56023200   70651.676     -65.051713     -43840295       1.7166627      210388.63     -43629907       704.83472      704.83472      704.83472      2147.5826      2852.4174      2147.5826      2852.4174      2147.5826      2852.4174      3.5015623e+08  0.1            16526820       3.737619       487.01437      4870.145       16.798761    
  56023400   71537.068     -65.496227     -43838960       1.7166627      213025.17     -43625935       704.83472      704.83472      704.83472      2147.5826      2852.4174      2147.5826      2852.4174      2147.5826      2852.4174      3.5015623e+08  0.1            16526840       3.7786182      487.8178       4878.1818      16.75736     
  56023600   72158.012     -65.514011     -43832133       1.7166627      214874.24     -43617258       704.83472      704.83472      704.83472      2147.5826      2852.4174      2147.5826      2852.4174      2147.5826      2852.4174      3.5015623e+08  0.1            16526860       3.8195186      488.99302      4889.9289      16.715537    
  56023800   72522.093     -65.903308     -43832675       1.7166627      215958.41     -43616716       704.83472      704.83472      704.83472      2147.5826      2852.4174      2147.5826      2852.4174      2147.5826      2852.4174      3.5015623e+08  0.1            16526880       3.8604402      488.73869      4887.3886      16.673826    
  56024000   72658.855     -66.338459     -43833207       1.7166627      216365.66     -43616841       704.83472      704.83472      704.83472      2147.5826      2852.4174      2147.5826      2852.4174      2147.5826      2852.4174      3.5015623e+08  0.1            16526900       3.9014823      487.30477      4873.0462      16.632645    
  56024200   72618.346     -66.885295     -43839210       1.7166627      216245.03     -43622965       704.83472      704.83472      704.83472      2147.5826      2852.4174      2147.5826      2852.4174      2147.5826      2852.4174      3.5015623e+08  0.1            16526920       3.9426341      486.00423      4860.0505      16.591928    
  56024400   72464.946     -67.101669     -43839716       1.7166627      215788.24     -43623928       704.83472      704.83472      704.83472      2147.5826      2852.4174      2147.5826      2852.4174      2147.5826      2852.4174      3.5015623e+08  0.1            16526940       3.9834975      489.43629      4894.3545      16.550004    
  56024600   72271.83      -67.528419     -43840208       1.7166627      215213.17     -43624995       704.83472      704.83472      704.83472      2147.5826      2852.4174      2147.5826      2852.4174      2147.5826      2852.4174      3.5015623e+08  0.1            16526960       4.0243046      490.1114       4901.1147      16.507871    
  56024800   72113.938     -67.594833     -43831416       1.7166627      214742.99     -43616673       704.83472      704.83472      704.83472      2147.5826      2852.4174      2147.5826      2852.4174      2147.5826      2852.4174      3.5015623e+08  0.1            16526980       4.0651471      489.6855       4896.8546      16.465908    
  56025000   72060.776     -68.234578     -43826406       1.7166627      214584.68     -43611821       704.83472      704.83472      704.83472      2147.5826      2852.4174      2147.5826      2852.4174      2147.5826      2852.4174      3.5015623e+08  0.1            16527000       4.1060325      489.17253      4891.733       16.424139    
  56025200   72172.777     -69.477723     -43826869       1.7166627      214918.2      -43611951       704.83472      704.83472      704.83472      2147.5826      2852.4174      2147.5826      2852.4174      2147.5826      2852.4174      3.5015623e+08  0.1            16527020       4.1476964      480.03169      4800.3069      16.385463    
  56025400   72496.883     -70.747247     -43827323       1.7166627      215883.34     -43611439       704.83472      704.83472      704.83472      2147.5826      2852.4174      2147.5826      2852.4174      2147.5826      2852.4174      3.5015623e+08  0.1            16527040       4.1886403      488.47231      4884.7298      16.343919    
  56025600   73065.59      -71.778124     -43825872       1.7166627      217576.85     -43608295       704.83472      704.83472      704.83472      2147.5826      2852.4174      2147.5826      2852.4174      2147.5826      2852.4174      3.5015623e+08  0.1            16527060       4.2294884      489.61829      4896.1832      16.302018    
  56025800   73894.301     -72.374338     -43825938       1.7166627      220044.61     -43605894       704.83472      704.83472      704.83472      2147.5826      2852.4174      2147.5826      2852.4174      2147.5826      2852.4174      3.5015623e+08  0.1            16527080       4.2706006      486.47456      4864.7348      16.261142    
  56026000   74978.701     -72.41481      -43826364       1.7166627      223273.77     -43603090       704.83472      704.83472      704.83472      2147.5826      2852.4174      2147.5826      2852.4174      2147.5826      2852.4174      3.5015623e+08  0.1            16527100       4.3114834      489.2049       4892.0539      16.219398    
  56026200   76294.439     -72.108768     -43826781       1.7166627      227191.81     -43599589       704.83472      704.83472      704.83472      2147.5826      2852.4174      2147.5826      2852.4174      2147.5826      2852.4174      3.5015623e+08  0.1            16527120       4.3532254      479.13334      4791.3315      16.180865    
  56026400   77797.174     -71.346319     -43819441       1.7166627      231666.7      -43587774       704.83472      704.83472      704.83472      2147.5826      2852.4174      2147.5826      2852.4174      2147.5826      2852.4174      3.5015623e+08  0.1            16527140       4.394114       489.13301      4891.3423      16.139137    
  56026600   79426.672     -71.299327     -43819835       1.7166627      236519.07     -43583316       704.83472      704.83472      704.83472      2147.5826      2852.4174      2147.5826      2852.4174      2147.5826      2852.4174      3.5015623e+08  0.1            16527160       4.4349534      489.72424      4897.2328      16.097246    
  56026800   81112.871     -71.620517     -43822115       1.7166627      241540.28     -43580575       704.83472      704.83472      704.83472      2147.5826      2852.4174      2147.5826      2852.4174      2147.5826      2852.4174      3.5015623e+08  0.1            16527180       4.4758269      489.31344      4893.1405      16.055497    
  56027000   82781.463     -71.756319     -43820597       1.7166627      246509.06     -43574088       704.83472      704.83472      704.83472      2147.5826      2852.4174      2147.5826      2852.4174      2147.5826      2852.4174      3.5015623e+08  0.1            16527200       4.516638       490.06399      4900.6443      16.013542    
  56027200   84360.287     -72.343766     -43828349       1.7166627      251210.53     -43577138       704.83472      704.83472      704.83472      2147.5826      2852.4174      2147.5826      2852.4174      2147.5826      2852.4174      3.5015623e+08  0.1            16527220       4.5574795      489.69694      4896.953       15.971716    
  56027400   85780.369     -72.179285     -43828713       1.7166627      255439.29     -43573274       704.83472      704.83472      704.83472      2147.5826      2852.4174      2147.5826      2852.4174      2147.5826      2852.4174      3.5015623e+08  0.1            16527240       4.5984027      488.72062      4887.2116      15.930189    
  56027600   86984.276     -71.603946     -43829062       1.7166627      259024.32     -43570037       704.83472      704.83472      704.83472      2147.5826      2852.4174      2147.5826      2852.4174      2147.5826      2852.4174      3.5015623e+08  0.1            16527260       4.6392197      489.99154      4899.9201      15.888309    
  56027800   87932.814     -71.030417     -43829396       1.7166627      261848.9      -43567547       704.83472      704.83472      704.83472      2147.5826      2852.4174      2147.5826      2852.4174      2147.5826      2852.4174      3.5015623e+08  0.1            16527280       4.6815297      472.70156      4727.0192      15.851503    
  56028000   88606.828     -71.241173     -43837096       1.7166627      263856        -43573240       704.83472      704.83472      704.83472      2147.5826      2852.4174      2147.5826      2852.4174      2147.5826      2852.4174      3.5015623e+08  0.1            16527300       4.7233404      478.34597      4783.4443      15.81293     
  56028200   89010.379     -71.517686     -43837405       1.7166627      265057.71     -43572347       704.83472      704.83472      704.83472      2147.5826      2852.4174      2147.5826      2852.4174      2147.5826      2852.4174      3.5015623e+08  0.1            16527320       4.7641472      490.11543      4901.1641      15.770977    
  56028400   89169.687     -72.2277       -43837702       1.7166627      265532.1      -43572170       704.83472      704.83472      704.83472      2147.5826      2852.4174      2147.5826      2852.4174      2147.5826      2852.4174      3.5015623e+08  0.1            16527340       4.805017       489.35628      4893.5664      15.729252    
  56028600   89132.075     -72.939947     -43837986       1.7166627      265420.1      -43572566       704.83472      704.83472      704.83472      2147.5826      2852.4174      2147.5826      2852.4174      2147.5826      2852.4174      3.5015623e+08  0.1            16527360       4.8458632      489.64464      4896.4386      15.687463    
  56028800   88961.985     -73.394658     -43836363       1.7166627      264913.6      -43571450       704.83472      704.83472      704.83472      2147.5826      2852.4174      2147.5826      2852.4174      2147.5826      2852.4174      3.5015623e+08  0.1            16527380       4.8868047      488.5013       4885.0136      15.645995    
  56029000   88733.433     -73.912786     -43836623       1.7166627      264233.01     -43572390       704.83472      704.83472      704.83472      2147.5826      2852.4174      2147.5826      2852.4174      2147.5826      2852.4174      3.5015623e+08  0.1            16527400       4.9277387      488.59151      4885.9039      15.604513    
  56029200   88524.195     -73.589284     -43822115       1.7166627      263609.94     -43558505       704.83472      704.83472      704.83472      2147.5826      2852.4174      2147.5826      2852.4174      2147.5826      2852.4174      3.5015623e+08  0.1            16527420       4.9694199      479.83166      4798.3299      15.56538     
  56029400   88408.609     -73.475126     -43814972       1.7166627      263265.74     -43551707       704.83472      704.83472      704.83472      2147.5826      2852.4174      2147.5826      2852.4174      2147.5826      2852.4174      3.5015623e+08  0.1            16527440       5.0102979      489.26076      4892.6037      15.523717    
  56029600   88451.178     -73.486718     -43815194       1.7166627      263392.5      -43551802       704.83472      704.83472      704.83472      2147.5826      2852.4174      2147.5826      2852.4174      2147.5826      2852.4174      3.5015623e+08  0.1            16527460       5.0510677      490.55951      4905.5983      15.481735    
  56029800   88704.842     -73.565789     -43815402       1.7166627      264147.87     -43551254       704.83472      704.83472      704.83472      2147.5826      2852.4174      2147.5826      2852.4174      2147.5826      2852.4174      3.5015623e+08  0.1            16527480       5.0918787      490.06413      4900.6477      15.439897    
  56030000   89206.813     -73.880991     -43817488       1.7166627      265642.66     -43551845       704.83472      704.83472      704.83472      2147.5826      2852.4174      2147.5826      2852.4174      2147.5826      2852.4174      3.5015623e+08  0.1            16527500       5.1327926      488.83087      4888.3034      15.398385    
  56030200   89977.816     -74.026894     -43817665       1.7166627      267938.57     -43549726       704.83472      704.83472      704.83472      2147.5826      2852.4174      2147.5826      2852.4174      2147.5826      2852.4174      3.5015623e+08  0.1            16527520       5.1736396      489.63262      4896.3225      15.356683    
  56030400   91018.712     -74.140537     -43810452       1.7166627      271038.18     -43539414       704.83472      704.83472      704.83472      2147.5826      2852.4174      2147.5826      2852.4174      2147.5826      2852.4174      3.5015623e+08  0.1            16527540       5.214464       489.9031       4899.0397      15.314928    
  56030600   92309.409     -75.000347     -43814399       1.7166627      274881.66     -43539518       704.83472      704.83472      704.83472      2147.5826      2852.4174      2147.5826      2852.4174      2147.5826      2852.4174      3.5015623e+08  0.1            16527560       5.2552378      490.5113       4905.1081      15.273041    
  56030800   93807.736     -75.139343     -43814548       1.7166627      279343.42     -43535205       704.83472      704.83472      704.83472      2147.5826      2852.4174      2147.5826      2852.4174      2147.5826      2852.4174      3.5015623e+08  0.1            16527580       5.2961153      489.26611      4892.6577      15.23147     
  56031000   95453.015     -75.258432     -43822064       1.7166627      284242.78     -43537821       704.83472      704.83472      704.83472      2147.5826      2852.4174      2147.5826      2852.4174      2147.5826      2852.4174      3.5015623e+08  0.1            16527600       5.3378896      478.76291      4787.6302      15.192462    
  56031200   97173.943     -75.258331     -43829566       1.7166627      289367.41     -43540199       704.83472      704.83472      704.83472      2147.5826      2852.4174      2147.5826      2852.4174      2147.5826      2852.4174      3.5015623e+08  0.1            16527620       5.3787333      489.67231      4896.7237      15.15079     
  56031400   98892.553     -74.446387     -43822301       1.7166627      294485.14     -43527816       704.83472      704.83472      704.83472      2147.5826      2852.4174      2147.5826      2852.4174      2147.5826      2852.4174      3.5015623e+08  0.1            16527640       5.4196067      489.31591      4893.1602      15.109213    
  56031600   100530.86     -73.896573     -43822401       1.7166627      299363.75     -43523037       704.83472      704.83472      704.83472      2147.5826      2852.4174      2147.5826      2852.4174      2147.5826      2852.4174      3.5015623e+08  0.1            16527660       5.4604439      489.74904      4897.4924      15.067547    
  56031800   102017.02     -73.267105     -43822488       1.7166627      303789.26     -43518699       704.83472      704.83472      704.83472      2147.5826      2852.4174      2147.5826      2852.4174      2147.5826      2852.4174      3.5015623e+08  0.1            16527680       5.5013244      489.23117      4892.316       15.026012    
  56032000   103289.86     -72.55644      -43822562       1.7166627      307579.56     -43514982       704.83472      704.83472      704.83472      2147.5826      2852.4174      2147.5826      2852.4174      2147.5826      2852.4174      3.5015623e+08  0.1            16527700       5.5422576      488.60156      4886.0209      14.984628    
  56032200   104305.11     -71.930933     -43822619       1.7166627      310602.82     -43512016       704.83472      704.83472      704.83472      2147.5826      2852.4174      2147.5826      2852.4174      2147.5826      2852.4174      3.5015623e+08  0.1            16527720       5.5832373      488.04653      4880.4483      14.943377    
  56032400   105038.43     -71.398058     -43822662       1.7166627      312786.5      -43509875       704.83472      704.83472      704.83472      2147.5826      2852.4174      2147.5826      2852.4174      2147.5826      2852.4174      3.5015623e+08  0.1            16527740       5.6241001      489.44225      4894.4357      14.901818    
  56032600   105488.01     -70.730916     -43822688       1.7166627      314125.29     -43508563       704.83472      704.83472      704.83472      2147.5826      2852.4174      2147.5826      2852.4174      2147.5826      2852.4174      3.5015623e+08  0.1            16527760       5.665744       480.25828      4802.5784      14.862321    
  56032800   105676.77     -70.435626     -43830079       1.7166627      314687.37     -43515391       704.83472      704.83472      704.83472      2147.5826      2852.4174      2147.5826      2852.4174      2147.5826      2852.4174      3.5015623e+08  0.1            16527780       5.7066614      488.79401      4887.9353      14.820904    
  56033000   105649.92     -70.280795     -43830079       1.7166627      314607.42     -43515472       704.83472      704.83472      704.83472      2147.5826      2852.4174      2147.5826      2852.4174      2147.5826      2852.4174      3.5015623e+08  0.1            16527800       5.7475609      489.00316      4890.0359      14.779448    
  56033200   105470.34     -70.956578     -43831960       1.7166627      314072.67     -43517887       704.83472      704.83472      704.83472      2147.5826      2852.4174      2147.5826      2852.4174      2147.5826      2852.4174      3.5015623e+08  0.1            16527820       5.7884181      489.51046      4895.1094      14.737893    
  56033400   105213.94     -71.756381     -43839315       1.7166627      313309.14     -43526006       704.83472      704.83472      704.83472      2147.5826      2852.4174      2147.5826      2852.4174      2147.5826      2852.4174      3.5015623e+08  0.1            16527840       5.8292736      489.52992      4895.3005      14.696343    
  56033600   104960.13     -71.521197     -43837386       1.7166627      312553.33     -43524832       704.83472      704.83472      704.83472      2147.5826      2852.4174      2147.5826      2852.4174      2147.5826      2852.4174      3.5015623e+08  0.1            16527860       5.870191       488.78905      4887.8772      14.654958    
  56033800   104785.79     -71.43656      -43844346       1.7166627      312034.18     -43532312       704.83472      704.83472      704.83472      2147.5826      2852.4174      2147.5826      2852.4174      2147.5826      2852.4174      3.5015623e+08  0.1            16527880       5.9110128      489.93338      4899.3404      14.613343    
  56034000   104761.58     -70.816182     -43842389       1.7166627      311962.1      -43530427       704.83472      704.83472      704.83472      2147.5826      2852.4174      2147.5826      2852.4174      2147.5826      2852.4174      3.5015623e+08  0.1            16527900       5.9518856      489.32192      4893.2222      14.571864    
  56034200   104947.37     -70.260045     -43842315       1.7166627      312515.34     -43529799       704.83472      704.83472      704.83472      2147.5826      2852.4174      2147.5826      2852.4174      2147.5826      2852.4174      3.5015623e+08  0.1            16527920       5.9927312      489.65219      4896.5163      14.530326    
  56034400   105385.91     -69.344468     -43840333       1.7166627      313821.25     -43526512       704.83472      704.83472      704.83472      2147.5826      2852.4174      2147.5826      2852.4174      2147.5826      2852.4174      3.5015623e+08  0.1            16527940       6.033499       490.58222      4905.8205      14.488612    
  56034600   106101.16     -68.023917     -43832853       1.7166627      315951.14     -43516902       704.83472      704.83472      704.83472      2147.5826      2852.4174      2147.5826      2852.4174      2147.5826      2852.4174      3.5015623e+08  0.1            16527960       6.0743263      489.86766      4898.6793      14.447052    
  56034800   107096.92     -66.698833     -43823463       1.7166627      318916.33     -43504547       704.83472      704.83472      704.83472      2147.5826      2852.4174      2147.5826      2852.4174      2147.5826      2852.4174      3.5015623e+08  0.1            16527980       6.1151089      490.40563      4904.0588      14.405396    
  56035000   108356.22     -66.294413     -43830714       1.7166627      322666.31     -43508048       704.83472      704.83472      704.83472      2147.5826      2852.4174      2147.5826      2852.4174      2147.5826      2852.4174      3.5015623e+08  0.1            16528000       6.1559459      489.75212      4897.52        14.363879    
  56035200   109840.96     -65.683092     -43837958       1.7166627      327087.63     -43510870       704.83472      704.83472      704.83472      2147.5826      2852.4174      2147.5826      2852.4174      2147.5826      2852.4174      3.5015623e+08  0.1            16528020       6.1967899      489.66844      4896.6895      14.322387    
  56035400   111491.51     -64.874675     -43839708       1.7166627      332002.68     -43507705       704.83472      704.83472      704.83472      2147.5826      2852.4174      2147.5826      2852.4174      2147.5826      2852.4174      3.5015623e+08  0.1            16528040       6.2375655      490.48974      4904.8959      14.280747    
  56035600   113234.69     -63.796624     -43839550       1.7166627      337193.57     -43502356       704.83472      704.83472      704.83472      2147.5826      2852.4174      2147.5826      2852.4174      2147.5826      2852.4174      3.5015623e+08  0.1            16528060       6.2783895      489.9079       4899.0697      14.239228    
  56035800   114990.19     -62.876479     -43839375       1.7166627      342421.14     -43496954       704.83472      704.83472      704.83472      2147.5826      2852.4174      2147.5826      2852.4174      2147.5826      2852.4174      3.5015623e+08  0.1            16528080       6.3213621      465.41122      4654.1136      14.202547    
  56036000   116677.43     -61.056552     -43824430       1.7166627      347445.46     -43476985       704.83472      704.83472      704.83472      2147.5826      2852.4174      2147.5826      2852.4174      2147.5826      2852.4174      3.5015623e+08  0.1            16528100       6.3622734      488.86389      4888.6435      14.161194    
  56036200   118221.94     -59.648843     -43824228       1.7166627      352044.76     -43472183       704.83472      704.83472      704.83472      2147.5826      2852.4174      2147.5826      2852.4174      2147.5826      2852.4174      3.5015623e+08  0.1            16528120       6.4031808      488.90772      4889.0836      14.119839    
  56036400   119558.72     -57.771043     -43809257       1.7166627      356025.46     -43453231       704.83472      704.83472      704.83472      2147.5826      2852.4174      2147.5826      2852.4174      2147.5826      2852.4174      3.5015623e+08  0.1            16528140       6.4440256      489.66002      4896.5957      14.078354    
  56036600   120638.48     -57.218293     -43809026       1.7166627      359240.8      -43449785       704.83472      704.83472      704.83472      2147.5826      2852.4174      2147.5826      2852.4174      2147.5826      2852.4174      3.5015623e+08  0.1            16528160       6.4849342      488.89501      4888.9575      14.037014    
  56036800   121433.19     -56.872723     -43808783       1.7166627      361607.3      -43447176       704.83472      704.83472      704.83472      2147.5826      2852.4174      2147.5826      2852.4174      2147.5826      2852.4174      3.5015623e+08  0.1            16528180       6.5257691      489.77674      4897.7636      13.995522    
  56037000   121937.07     -56.536869     -43810425       1.7166627      363107.78     -43447318       704.83472      704.83472      704.83472      2147.5826      2852.4174      2147.5826      2852.4174      2147.5826      2852.4174      3.5015623e+08  0.1            16528200       6.5667941      487.50746      4875.0656      13.954442    
  56037200   122167.89     -56.049707     -43810161       1.7166627      363795.11     -43446366       704.83472      704.83472      704.83472      2147.5826      2852.4174      2147.5826      2852.4174      2147.5826      2852.4174      3.5015623e+08  0.1            16528220       6.6076907      489.03785      4890.3796      13.913093    
  56037400   122165.72     -55.501602     -43809884       1.7166627      363788.65     -43446096       704.83472      704.83472      704.83472      2147.5826      2852.4174      2147.5826      2852.4174      2147.5826      2852.4174      3.5015623e+08  0.1            16528240       6.6485948      488.94969      4889.5029      13.871764    
  56037600   121991.4      -54.882653     -43809227       1.7166627      363269.56     -43445957       704.83472      704.83472      704.83472      2147.5826      2852.4174      2147.5826      2852.4174      2147.5826      2852.4174      3.5015623e+08  0.1            16528260       6.6894966      488.97584      4889.7575      13.830436    
  56037800   121719.98     -54.227878     -43803446       1.7166627      362461.31     -43440984       704.83472      704.83472      704.83472      2147.5826      2852.4174      2147.5826      2852.4174      2147.5826      2852.4174      3.5015623e+08  0.1            16528280       6.7303711      489.30226      4893.0146      13.789058    
  56038000   121432.26     -53.488347     -43803138       1.7166627      361604.53     -43441533       704.83472      704.83472      704.83472      2147.5826      2852.4174      2147.5826      2852.4174      2147.5826      2852.4174      3.5015623e+08  0.1            16528300       6.7712538      489.20428      4892.0537      13.747702    
  56038200   121210.57     -52.80128      -43808306       1.7166627      360944.39     -43447362       704.83472      704.83472      704.83472      2147.5826      2852.4174      2147.5826      2852.4174      2147.5826      2852.4174      3.5015623e+08  0.1            16528320       6.8121697      488.80661      4888.0663      13.706418    
  56038400   121129.65     -51.63323      -43798711       1.7166627      360703.42     -43438007       704.83472      704.83472      704.83472      2147.5826      2852.4174      2147.5826      2852.4174      2147.5826      2852.4174      3.5015623e+08  0.1            16528340       6.8530562      489.16003      4891.5962      13.665081    
  56038600   121252.57     -51.075001     -43798380       1.7166627      361069.46     -43437310       704.83472      704.83472      704.83472      2147.5826      2852.4174      2147.5826      2852.4174      2147.5826      2852.4174      3.5015623e+08  0.1            16528360       6.893975       488.77298      4887.7254      13.623812    
  56038800   121627.27     -50.553957     -43798039       1.7166627      362185.25     -43435854       704.83472      704.83472      704.83472      2147.5826      2852.4174      2147.5826      2852.4174      2147.5826      2852.4174      3.5015623e+08  0.1            16528380       6.9355696      480.83016      4808.3051      13.583872    
  56039000   122283.61     -49.962545     -43804701       1.7166627      364139.72     -43440561       704.83472      704.83472      704.83472      2147.5826      2852.4174      2147.5826      2852.4174      2147.5826      2852.4174      3.5015623e+08  0.1            16528400       6.9765175      488.42692      4884.2692      13.542656    
  56039200   123231.08     -48.590754     -43804347       1.7166627      366961.12     -43437386       704.83472      704.83472      704.83472      2147.5826      2852.4174      2147.5826      2852.4174      2147.5826      2852.4174      3.5015623e+08  0.1            16528420       7.0173781      489.46918      4894.687       13.501276    
  56039400   124454.34     -47.26954      -43805881       1.7166627      370603.78     -43435278       704.83472      704.83472      704.83472      2147.5826      2852.4174      2147.5826      2852.4174      2147.5826      2852.4174      3.5015623e+08  0.1            16528440       7.0582437      489.40909      4894.0978      13.459911    
  56039600   125914.77     -45.735234     -43803613       1.7166627      374952.67     -43428661       704.83472      704.83472      704.83472      2147.5826      2852.4174      2147.5826      2852.4174      2147.5826      2852.4174      3.5015623e+08  0.1            16528460       7.0991199      489.28243      4892.8043      13.418572    
  56039800   127555.34     -44.734926     -43805121       1.7166627      379838.03     -43425283       704.83472      704.83472      704.83472      2147.5826      2852.4174      2147.5826      2852.4174      2147.5826      2852.4174      3.5015623e+08  0.1            16528480       7.1399687      489.60861      4896.1037      13.377187    
  56040000   129305.22     -43.580523     -43804723       1.7166627      385048.86     -43419674       704.83472      704.83472      704.83472      2147.5826      2852.4174      2147.5826      2852.4174      2147.5826      2852.4174      3.5015623e+08  0.1            16528500       7.1809288      488.28137      4882.8104      13.336015    
  56040200   131085.48     -42.645596     -43813588       1.7166627      390350.17     -43423238       704.83472      704.83472      704.83472      2147.5826      2852.4174      2147.5826      2852.4174      2147.5826      2852.4174      3.5015623e+08  0.1            16528520       7.2218977      488.17425      4881.7456      13.294861    
  56040400   132813.7      -40.633788     -43813173       1.7166627      395496.53     -43417677       704.83472      704.83472      704.83472      2147.5826      2852.4174      2147.5826      2852.4174      2147.5826      2852.4174      3.5015623e+08  0.1            16528540       7.2627531      489.53239      4895.3281      13.253503    
  56040600   134410.68     -37.762318     -43805372       1.7166627      400252.04     -43405120       704.83472      704.83472      704.83472      2147.5826      2852.4174      2147.5826      2852.4174      2147.5826      2852.4174      3.5015623e+08  0.1            16528560       7.3036874      488.58762      4885.8652      13.212293    
  56040800   135807.9      -36.258741     -43812317       1.7166627      404412.73     -43407904       704.83472      704.83472      704.83472      2147.5826      2852.4174      2147.5826      2852.4174      2147.5826      2852.4174      3.5015623e+08  0.1            16528580       7.34547        478.66812      4786.6807      13.172607    
  56041000   136951.87     -34.967294     -43811875       1.7166627      407819.28     -43404056       704.83472      704.83472      704.83472      2147.5826      2852.4174      2147.5826      2852.4174      2147.5826      2852.4174      3.5015623e+08  0.1            16528600       7.3864278      488.3084       4883.0925      13.131431    
  56041200   137809.33     -34.019408     -43811425       1.7166627      410372.65     -43401052       704.83472      704.83472      704.83472      2147.5826      2852.4174      2147.5826      2852.4174      2147.5826      2852.4174      3.5015623e+08  0.1            16528620       7.4273524      488.70241      4887.0214      13.0902      
  56041400   138368.62     -33.541857     -43816448       1.7166627      412038.11     -43404410       704.83472      704.83472      704.83472      2147.5826      2852.4174      2147.5826      2852.4174      2147.5826      2852.4174      3.5015623e+08  0.1            16528640       7.4689637      480.63865      4806.3801      13.050171    
  56041600   138642.89     -32.949543     -43815978       1.7166627      412854.85     -43403123       704.83472      704.83472      704.83472      2147.5826      2852.4174      2147.5826      2852.4174      2147.5826      2852.4174      3.5015623e+08  0.1            16528660       7.5098226      489.48836      4894.8824      13.008823    
  56041800   138669.2      -32.183703     -43815498       1.7166627      412933.19     -43402565       704.83472      704.83472      704.83472      2147.5826      2852.4174      2147.5826      2852.4174      2147.5826      2852.4174      3.5015623e+08  0.1            16528680       7.5506758      489.5593       4894.7779      12.967481    
  56042000   138506.19     -30.962997     -43809897       1.7166627      412447.77     -43397449       704.83472      704.83472      704.83472      2147.5826      2852.4174      2147.5826      2852.4174      2147.5826      2852.4174      3.5015623e+08  0.1            16528700       7.5916304      488.34614      4884.2773      12.926293    
  56042200   138228.82     -30.062446     -43816787       1.7166627      411621.84     -43405165       704.83472      704.83472      704.83472      2147.5826      2852.4174      2147.5826      2852.4174      2147.5826      2852.4174      3.5015623e+08  0.1            16528720       7.6325338      488.95725      4889.5807      12.885034    
  56042400   137918.66     -28.617014     -43808918       1.7166627      410698.21     -43398220       704.83472      704.83472      704.83472      2147.5826      2852.4174      2147.5826      2852.4174      2147.5826      2852.4174      3.5015623e+08  0.1            16528740       7.6734799      488.44732      4884.4726      12.843849    
  56042600   137658.59     -27.562238     -43806530       1.7166627      409923.78     -43396606       704.83472      704.83472      704.83472      2147.5826      2852.4174      2147.5826      2852.4174      2147.5826      2852.4174      3.5015623e+08  0.1            16528760       7.7144355      488.33211      4883.3186      12.802684    
  56042800   137527.83     -26.62561      -43806036       1.7166627      409534.4      -43396502       704.83472      704.83472      704.83472      2147.5826      2852.4174      2147.5826      2852.4174      2147.5826      2852.4174      3.5015623e+08  0.1            16528780       7.7553331      489.02704      4890.2684      12.761425    
  56043000   137592.77     -25.416111     -43805540       1.7166627      409727.79     -43395812       704.83472      704.83472      704.83472      2147.5826      2852.4174      2147.5826      2852.4174      2147.5826      2852.4174      3.5015623e+08  0.1            16528800       7.7962423      488.88723      4888.8759      12.720188    
  56043200   137905.33     -23.972333     -43805034       1.7166627      410658.53     -43394375       704.83472      704.83472      704.83472      2147.5826      2852.4174      2147.5826      2852.4174      2147.5826      2852.4174      3.5015623e+08  0.1            16528820       7.8371122      489.35859      4893.587       12.678892    
  56043400   138500.27     -22.395125     -43804153       1.7166627      412430.15     -43391723       704.83472      704.83472      704.83472      2147.5826      2852.4174      2147.5826      2852.4174      2147.5826      2852.4174      3.5015623e+08  0.1            16528840       7.8780829      488.15301      4881.5262      12.637762    
  56043600   139391.43     -21.151102     -43803639       1.7166627      415083.88     -43388555       704.83472      704.83472      704.83472      2147.5826      2852.4174      2147.5826      2852.4174      2147.5826      2852.4174      3.5015623e+08  0.1            16528860       7.9199784      477.3773       4773.7749      12.598104    
  56043800   140568.27     -19.744462     -43795742       1.7166627      418588.31     -43377154       704.83472      704.83472      704.83472      2147.5826      2852.4174      2147.5826      2852.4174      2147.5826      2852.4174      3.5015623e+08  0.1            16528880       7.9607832      490.1389       4901.3767      12.556703    
  56044000   141997.54     -18.487193     -43791798       1.7166627      422844.42     -43368954       704.83472      704.83472      704.83472      2147.5826      2852.4174      2147.5826      2852.4174      2147.5826      2852.4174      3.5015623e+08  0.1            16528900       8.0025821      478.48075      4784.821       12.516863    
  56044200   143625.79     -17.173503     -43791272       1.7166627      427693.08     -43363579       704.83472      704.83472      704.83472      2147.5826      2852.4174      2147.5826      2852.4174      2147.5826      2852.4174      3.5015623e+08  0.1            16528920       8.0434942      488.85319      4888.5189      12.475628    
  56044400   145382.21     -15.587973     -43790742       1.7166627      432923.4      -43357819       704.83472      704.83472      704.83472      2147.5826      2852.4174      2147.5826      2852.4174      2147.5826      2852.4174      3.5015623e+08  0.1            16528940       8.0844136      488.76631      4887.6691      12.434406    
  56044600   147185.04     -13.714762     -43790204       1.7166627      438291.93     -43351912       704.83472      704.83472      704.83472      2147.5826      2852.4174      2147.5826      2852.4174      2147.5826      2852.4174      3.5015623e+08  0.1            16528960       8.125272       489.49521      4894.9527      12.393095    
  56044800   148950.86     -11.684542     -43789663       1.7166627      443550.21     -43346113       704.83472      704.83472      704.83472      2147.5826      2852.4174      2147.5826      2852.4174      2147.5826      2852.4174      3.5015623e+08  0.1            16528980       8.1661256      489.55311      4895.5329      12.351781    
  56045000   150599.33     -9.6732614     -43789124       1.7166627      448459.1      -43340665       704.83472      704.83472      704.83472      2147.5826      2852.4174      2147.5826      2852.4174      2147.5826      2852.4174      3.5015623e+08  0.1            16529000       8.2071139      487.94455      4879.4383      12.310674    
  56045200   152056.74     -8.0179635     -43788581       1.7166627      452799.01     -43335782       704.83472      704.83472      704.83472      2147.5826      2852.4174      2147.5826      2852.4174      2147.5826      2852.4174      3.5015623e+08  0.1            16529020       8.2479986      489.17952      4891.8019      12.269414    
  56045400   153263.57     -7.1750735     -43790292       1.7166627      456392.75     -43333899       704.83472      704.83472      704.83472      2147.5826      2852.4174      2147.5826      2852.4174      2147.5826      2852.4174      3.5015623e+08  0.1            16529040       8.2889149      488.80396      4888.0359      12.228205    
  56045600   154182.02     -6.7110865     -43797112       1.7166627      459127.72     -43337984       704.83472      704.83472      704.83472      2147.5826      2852.4174      2147.5826      2852.4174      2147.5826      2852.4174      3.5015623e+08  0.1            16529060       8.3307702      477.83572      4778.3584      12.188372    
  56045800   154796.8      -5.084175      -43781794       1.7166627      460958.44     -43320835       704.83472      704.83472      704.83472      2147.5826      2852.4174      2147.5826      2852.4174      2147.5826      2852.4174      3.5015623e+08  0.1            16529080       8.3717609      487.91637      4879.161       12.147264    
  56046000   155117        -3.9565899     -43779336       1.7166627      461911.94     -43317424       704.83472      704.83472      704.83472      2147.5826      2852.4174      2147.5826      2852.4174      2147.5826      2852.4174      3.5015623e+08  0.1            16529100       8.4126976      488.55912      4885.5956      12.10608     
  56046200   155177.24     -3.3897056     -43788047       1.7166627      462091.32     -43325955       704.83472      704.83472      704.83472      2147.5826      2852.4174      2147.5826      2852.4174      2147.5826      2852.4174      3.5015623e+08  0.1            16529120       8.4536263      488.65448      4886.5534      12.064888    
  56046400   155031.36     -2.4016077     -43787485       1.7166627      461656.93     -43325828       704.83472      704.83472      704.83472      2147.5826      2852.4174      2147.5826      2852.4174      2147.5826      2852.4174      3.5015623e+08  0.1            16529140       8.495326       479.61604      4796.1495      12.024789    
  56046600   154751.49     -2.1737269     -43794302       1.7166627      460823.51     -43333478       704.83472      704.83472      704.83472      2147.5826      2852.4174      2147.5826      2852.4174      2147.5826      2852.4174      3.5015623e+08  0.1            16529160       8.5362699      488.47774      4884.7721      11.983613    
  56046800   154420.22     -1.3807947     -43791850       1.7166627      459837.06     -43332013       704.83472      704.83472      704.83472      2147.5826      2852.4174      2147.5826      2852.4174      2147.5826      2852.4174      3.5015623e+08  0.1            16529180       8.5771156      489.64635      4896.4786      11.942303    
  56047000   154121.18     -0.34959012    -43785810       1.7166627      458946.56     -43326864       704.83472      704.83472      704.83472      2147.5826      2852.4174      2147.5826      2852.4174      2147.5826      2852.4174      3.5015623e+08  0.1            16529200       8.6182356      486.38228      4863.8096      11.901376    
  56047200   153937.62     -0.025262387   -43785256       1.7166627      458399.95     -43326856       704.83472      704.83472      704.83472      2147.5826      2852.4174      2147.5826      2852.4174      2147.5826      2852.4174      3.5015623e+08  0.1            16529220       8.6591508      488.81562      4888.159       11.860167    
  56047400   153941.91      0.7299763     -43783180       1.7166627      458412.71     -43324767       704.83472      704.83472      704.83472      2147.5826      2852.4174      2147.5826      2852.4174      2147.5826      2852.4174      3.5015623e+08  0.1            16529240       8.7000251      489.30401      4893.0537      11.818905    
  56047600   154190.68      1.9910946     -43790008       1.7166627      459153.5      -43330855       704.83472      704.83472      704.83472      2147.5826      2852.4174      2147.5826      2852.4174      2147.5826      2852.4174      3.5015623e+08  0.1            16529260       8.7409546      488.6452       4886.4438      11.777721    
  56047800   154722.64      4.1633344     -43780186       1.7166627      460737.6      -43319448       704.83472      704.83472      704.83472      2147.5826      2852.4174      2147.5826      2852.4174      2147.5826      2852.4174      3.5015623e+08  0.1            16529280       8.78187        488.81231      4888.1281      11.736521    
  56048000   155555.4       5.3778242     -43779636       1.7166627      463217.43     -43316418       704.83472      704.83472      704.83472      2147.5826      2852.4174      2147.5826      2852.4174      2147.5826      2852.4174      3.5015623e+08  0.1            16529300       8.8228421      488.13932      4881.3848      11.695398    
  56048200   156684.69      7.7144978     -43769077       1.7166627      466580.24     -43302497       704.83472      704.83472      704.83472      2147.5826      2852.4174      2147.5826      2852.4174      2147.5826      2852.4174      3.5015623e+08  0.1            16529320       8.8638266      487.98961      4879.9074      11.654293    
  56048400   158080.96      9.3993216     -43774013       1.7166627      470738.12     -43303275       704.83472      704.83472      704.83472      2147.5826      2852.4174      2147.5826      2852.4174      2147.5826      2852.4174      3.5015623e+08  0.1            16529340       8.9048521      487.50165      4875.0052      11.613243    
  56048600   159692.49      10.852742     -43773095       1.7166627      475536.97     -43297558       704.83472      704.83472      704.83472      2147.5826      2852.4174      2147.5826      2852.4174      2147.5826      2852.4174      3.5015623e+08  0.1            16529360       8.9465858      479.2285       4792.2749      11.573109    
  56048800   161451.94      11.539777     -43779559       1.7166627      480776.32     -43298783       704.83472      704.83472      704.83472      2147.5826      2852.4174      2147.5826      2852.4174      2147.5826      2852.4174      3.5015623e+08  0.1            16529380       8.9875194      488.59637      4885.9772      11.531934    
  56049000   163276.84      13.075791     -43779014       1.7166627      486210.56     -43292804       704.83472      704.83472      704.83472      2147.5826      2852.4174      2147.5826      2852.4174      2147.5826      2852.4174      3.5015623e+08  0.1            16529400       9.0285458      487.4901       4874.8926      11.490879    
  56049200   165079.36      14.710656     -43785841       1.7166627      491578.13     -43294263       704.83472      704.83472      704.83472      2147.5826      2852.4174      2147.5826      2852.4174      2147.5826      2852.4174      3.5015623e+08  0.1            16529420       9.0694605      488.82273      4888.2422      11.449684    
  56049400   166775.36      16.90671      -43777908       1.7166627      496628.55     -43281279       704.83472      704.83472      704.83472      2147.5826      2852.4174      2147.5826      2852.4174      2147.5826      2852.4174      3.5015623e+08  0.1            16529440       9.1103806      488.7569       4887.5575      11.408498    
  56049600   168289.27      18.9458       -43777352       1.7166627      501136.71     -43276215       704.83472      704.83472      704.83472      2147.5826      2852.4174      2147.5826      2852.4174      2147.5826      2852.4174      3.5015623e+08  0.1            16529460       9.1513171      488.56035      4885.6085      11.367334    
  56049800   169558.24      21.070973     -43774897       1.7166627      504915.49     -43269982       704.83472      704.83472      704.83472      2147.5826      2852.4174      2147.5826      2852.4174      2147.5826      2852.4174      3.5015623e+08  0.1            16529480       9.1922615      488.46901      4884.687       11.326182    
[...]
  56694400   305.62719      3.7735466     -44028034       1.7169726      910.1056      -44027124       704.79231      704.79231      704.79231      2147.6038      2852.3962      2147.6038      2852.3962      2147.6038      2852.3962      3.5009304e+08  0.1            16593940       68.309924      425.3793       4253.797       2.5020222    
  56694600   305.61709      4.025286      -44028102       1.7169843      910.07551     -44027192       704.79071      704.79071      704.79071      2147.6046      2852.3954      2147.6046      2852.3954      2147.6046      2852.3954      3.5009065e+08  0.1            16593960       68.35693       425.47919      4254.7914      2.454807     
  56694800   305.60732      2.8934442     -44028170       1.7169572      910.04641     -44027260       704.79442      704.79442      704.79442      2147.6028      2852.3972      2147.6028      2852.3972      2147.6028      2852.3972      3.5009618e+08  0.1            16593980       68.403973      425.13766      4251.3751      2.4075934    
  56695000   305.58348      0.88481616    -44028238       1.7169055      909.97542     -44027328       704.80149      704.80149      704.80149      2147.5993      2852.4007      2147.5993      2852.4007      2147.5993      2852.4007      3.5010671e+08  0.1            16594000       68.45102       425.10711      4251.0764      2.3603801    
  56695200   305.58838     -1.0340445     -44028306       1.7168565      909.99002     -44027396       704.8082       704.8082       704.8082       2147.5959      2852.4041      2147.5959      2852.4041      2147.5959      2852.4041      3.5011672e+08  0.1            16594020       68.498053      425.23327      4252.327       2.3131666    
  56695400   305.59336     -1.8574753     -44028374       1.7168381      910.00485     -44027464       704.81071      704.81071      704.81071      2147.5946      2852.4054      2147.5946      2852.4054      2147.5946      2852.4054      3.5012045e+08  0.1            16594040       68.546022      416.93808      4169.3793      2.2659843    
  56695600   305.58484     -1.0826104     -44028442       1.7168647      909.97946     -44027532       704.80707      704.80707      704.80707      2147.5965      2852.4035      2147.5965      2852.4035      2147.5965      2852.4035      3.5011504e+08  0.1            16594060       68.593102      424.80543      4248.0543      2.2187722    
  56695800   305.58566      0.97630611    -44028510       1.7169273      909.9819      -44027600       704.79851      704.79851      704.79851      2147.6007      2852.3993      2147.6007      2852.3993      2147.6007      2852.3993      3.5010227e+08  0.1            16594080       68.640054      425.9733       4259.7396      2.1715561    
  56696000   305.57664      3.3664212     -44028577       1.7169992      909.95504     -44027667       704.78867      704.78867      704.78867      2147.6057      2852.3943      2147.6057      2852.3943      2147.6057      2852.3943      3.5008761e+08  0.1            16594100       68.687145      424.7093       4247.0878      2.1243448    
  56696200   305.59299      4.8938899     -44028645       1.717047       910.00374     -44027735       704.78213      704.78213      704.78213      2147.6089      2852.3911      2147.6089      2852.3911      2147.6089      2852.3911      3.5007787e+08  0.1            16594120       68.734099      425.94264      4259.4349      2.0771295    
  56696400   305.59871      4.245565      -44028713       1.7170338      910.02078     -44027803       704.78394      704.78394      704.78394      2147.608       2852.392       2147.608       2852.392       2147.608       2852.392       3.5008056e+08  0.1            16594140       68.781088      425.63537      4256.3523      2.0299155    
  56696600   305.57589      0.63105034    -44028781       1.7169374      909.95282     -44027871       704.79712      704.79712      704.79712      2147.6014      2852.3986      2147.6014      2852.3986      2147.6014      2852.3986      3.501002e+08   0.1            16594160       68.828048      425.89821      4258.9782      1.982701     
  56696800   305.5531      -4.5066122     -44028848       1.7167984      909.88496     -44027938       704.81614      704.81614      704.81614      2147.5919      2852.4081      2147.5919      2852.4081      2147.5919      2852.4081      3.5012855e+08  0.1            16594180       68.875117      424.90288      4249.035       1.93549      
  56697000   305.52684     -7.4073374     -44028914       1.7167221      909.80675     -44028004       704.82658      704.82658      704.82658      2147.5867      2852.4133      2147.5867      2852.4133      2147.5867      2852.4133      3.5014411e+08  0.1            16594200       68.922178      424.97994      4249.8         1.8882789    
  56697200   305.54558     -5.2083057     -44028982       1.716789       909.86258     -44028073       704.81744      704.81744      704.81744      2147.5913      2852.4087      2147.5913      2852.4087      2147.5913      2852.4087      3.5013048e+08  0.1            16594220       68.969191      425.41597      4254.1541      1.8410668    
  56697400   305.57474      1.0768856     -44029051       1.7169704      909.94939     -44028141       704.7926       704.7926       704.7926       2147.6037      2852.3963      2147.6037      2852.3963      2147.6037      2852.3963      3.5009347e+08  0.1            16594240       69.0162        425.45026      4254.5083      1.7938548    
  56697600   305.58504      7.2385784     -44029117       1.7171485      909.98006     -44028207       704.76824      704.76824      704.76824      2147.6159      2852.3841      2147.6159      2852.3841      2147.6159      2852.3841      3.5005717e+08  0.1            16594260       69.063162      425.87848      4258.7854      1.7466419    
  56697800   305.58756      9.4748988     -44029183       1.7172166      909.98758     -44028273       704.75893      704.75893      704.75893      2147.6205      2852.3795      2147.6205      2852.3795      2147.6205      2852.3795      3.500433e+08   0.1            16594280       69.110209      425.1071       4251.0668      1.6994314    
  56698000   305.56418      7.2151727     -44029252       1.7171585      909.91796     -44028342       704.76688      704.76688      704.76688      2147.6166      2852.3834      2147.6166      2852.3834      2147.6166      2852.3834      3.5005514e+08  0.1            16594300       69.157238      425.27073      4252.7059      1.6522208    
  56698200   305.5613       2.7079957     -44029321       1.7170373      909.90937     -44028411       704.78345      704.78345      704.78345      2147.6083      2852.3917      2147.6083      2852.3917      2147.6083      2852.3917      3.5007983e+08  0.1            16594320       69.20428       425.15132      4251.5107      1.6050106    
  56698400   305.55675     -1.3147034     -44029388       1.7169298      909.89581     -44028479       704.79816      704.79816      704.79816      2147.6009      2852.3991      2147.6009      2852.3991      2147.6009      2852.3991      3.5010175e+08  0.1            16594340       69.251231      425.97419      4259.7404      1.5577987    
  56698600   305.54027     -3.3101137     -44029455       1.7168792      909.84676     -44028546       704.80509      704.80509      704.80509      2147.5975      2852.4025      2147.5975      2852.4025      2147.5975      2852.4025      3.5011208e+08  0.1            16594360       69.298252      425.34258      4253.4279      1.5105887    
  56698800   305.5364      -3.1022546     -44029523       1.7168904      909.83524     -44028613       704.80355      704.80355      704.80355      2147.5982      2852.4018      2147.5982      2852.4018      2147.5982      2852.4018      3.5010979e+08  0.1            16594380       69.345271      425.35634      4253.565       1.4633788    
  56699000   305.52659     -1.3392852     -44029591       1.7169453      909.80601     -44028681       704.79604      704.79604      704.79604      2147.602       2852.398       2147.602       2852.398       2147.602       2852.398       3.5009859e+08  0.1            16594400       69.392339      424.91559      4249.1621      1.4161702    
  56699200   305.54703      1.0172179     -44029658       1.7170169      909.86689     -44028748       704.78625      704.78625      704.78625      2147.6069      2852.3931      2147.6069      2852.3931      2147.6069      2852.3931      3.50084e+08    0.1            16594420       69.439364      425.30953      4253.0975      1.368961     
  56699400   305.56313      3.0303324     -44029725       1.7170788      909.91483     -44028815       704.77778      704.77778      704.77778      2147.6111      2852.3889      2147.6111      2852.3889      2147.6111      2852.3889      3.5007138e+08  0.1            16594440       69.486408      425.13654      4251.3623      1.3217524    
  56699600   305.55692      4.0226204     -44029792       1.717112       909.89634     -44028882       704.77323      704.77323      704.77323      2147.6134      2852.3866      2147.6134      2852.3866      2147.6134      2852.3866      3.5006461e+08  0.1            16594460       69.533477      424.90149      4249.0166      1.2745444    
  56699800   305.55177      3.7332559     -44029859       1.7171093      909.881       -44028949       704.77361      704.77361      704.77361      2147.6132      2852.3868      2147.6132      2852.3868      2147.6132      2852.3868      3.5006516e+08  0.1            16594480       69.581559      415.9626       4159.6217      1.2273545    
  56700000   305.53159      2.3626824     -44029927       1.7170762      909.8209      -44029017       704.77813      704.77813      704.77813      2147.6109      2852.3891      2147.6109      2852.3891      2147.6109      2852.3891      3.5007191e+08  0.1            16594500       69.628674      424.48682      4244.8712      1.1801471    
  56700200   305.53842      0.47816624    -44029994       1.7170287      909.84124     -44029084       704.78464      704.78464      704.78464      2147.6077      2852.3923      2147.6077      2852.3923      2147.6077      2852.3923      3.500816e+08   0.1            16594520       69.675651      425.74179      4257.41        1.1329375    
  56700400   305.5427      -1.1909591     -44030061       1.7169871      909.854       -44029152       704.79032      704.79032      704.79032      2147.6048      2852.3952      2147.6048      2852.3952      2147.6048      2852.3952      3.5009007e+08  0.1            16594540       69.722647      425.56889      4255.6896      1.0857285    
  56700600   305.53052     -2.0005849     -44030128       1.7169697      909.81772     -44029219       704.7927       704.7927       704.7927       2147.6036      2852.3964      2147.6036      2852.3964      2147.6036      2852.3964      3.5009362e+08  0.1            16594560       69.769598      425.97207      4259.7256      1.0385191    
  56700800   305.52781     -1.5990765     -44030196       1.7169863      909.80966     -44029286       704.79044      704.79044      704.79044      2147.6048      2852.3952      2147.6048      2852.3952      2147.6048      2852.3952      3.5009025e+08  0.1            16594580       69.816616      425.36866      4253.6752      0.99131102   
  56701000   305.51726     -0.035425517   -44030263       1.7170354      909.77823     -44029353       704.78372      704.78372      704.78372      2147.6081      2852.3919      2147.6081      2852.3919      2147.6081      2852.3919      3.5008023e+08  0.1            16594600       69.86368       424.95187      4249.5242      0.94410383   
  56701200   305.53848      2.2615991     -44030330       1.717105       909.84142     -44029420       704.77419      704.77419      704.77419      2147.6129      2852.3871      2147.6129      2852.3871      2147.6129      2852.3871      3.5006603e+08  0.1            16594620       69.910687      425.47078      4254.7095      0.89689609   
  56701400   305.55648      4.5891102     -44030397       1.7171755      909.89502     -44029487       704.76455      704.76455      704.76455      2147.6177      2852.3823      2147.6177      2852.3823      2147.6177      2852.3823      3.5005167e+08  0.1            16594640       69.957701      425.40974      4254.1018      0.84968871   
  56701600   305.55159      5.996489      -44030463       1.71722        909.88047     -44029553       704.75846      704.75846      704.75846      2147.6208      2852.3792      2147.6208      2852.3792      2147.6208      2852.3792      3.5004259e+08  0.1            16594660       70.004788      424.74429      4247.4383      0.80248243   
  56701800   305.54748      5.9723349     -44030530       1.7172243      909.86822     -44029620       704.75787      704.75787      704.75787      2147.6211      2852.3789      2147.6211      2852.3789      2147.6211      2852.3789      3.5004171e+08  0.1            16594680       70.051818      425.26044      4252.6136      0.75527569   
  56702000   305.49297     -5.5979718     -44030597       1.7169046      909.70591     -44029687       704.80161      704.80161      704.80161      2147.5992      2852.4008      2147.5992      2852.4008      2147.5992      2852.4008      3.5010689e+08  0.1            16594700       70.098926      424.5604       4245.6012      0.70806998   
  56702200   305.55578      8.8682653     -44038040       1.717326       909.89293     -44037130       704.74396      704.74396      704.74396      2147.628       2852.372       2147.628       2852.372       2147.628       2852.372       3.5002099e+08  0.1            16594720       70.146045      424.44981      4244.4907      0.66086452   
  56702400   305.57295      9.7758474     -44045484       1.7173669      909.94407     -44044574       704.73836      704.73836      704.73836      2147.6308      2852.3692      2147.6308      2852.3692      2147.6308      2852.3692      3.5001265e+08  0.1            16594740       70.193172      424.38862      4243.8948      0.61365923   
  56702600   305.56047      9.1496482     -44045552       1.717354       909.90689     -44044642       704.74013      704.74013      704.74013      2147.6299      2852.3701      2147.6299      2852.3701      2147.6299      2852.3701      3.5001528e+08  0.1            16594760       70.240178      425.47551      4254.7558      0.56645307   
  56702800   305.55657      9.6082439     -44045619       1.7173714      909.89527     -44044709       704.73774      704.73774      704.73774      2147.6311      2852.3689      2147.6311      2852.3689      2147.6311      2852.3689      3.5001173e+08  0.1            16594780       70.287203      425.30629      4253.0568      0.51924732   
  56703000   305.51568      2.4361549     -44038312       1.7171643      909.77352     -44037402       704.76608      704.76608      704.76608      2147.617       2852.383       2147.617       2852.383       2147.617       2852.383       3.5005395e+08  0.1            16594800       70.334335      424.33989      4243.4049      0.47204254   
  56703200   305.49576     -7.5461226     -44030998       1.7168781      909.71421     -44030089       704.80524      704.80524      704.80524      2147.5974      2852.4026      2147.5974      2852.4026      2147.5974      2852.4026      3.5011231e+08  0.1            16594820       70.381361      425.29769      4252.9768      0.42483721   
  56703400   305.54149      2.3964618     -44045824       1.7171827      909.85037     -44044914       704.76356      704.76356      704.76356      2147.6182      2852.3818      2147.6182      2852.3818      2147.6182      2852.3818      3.500502e+08   0.1            16594840       70.428398      425.19537      4251.9458      0.37763218   
  56703600   305.5462       6.6041953     -44045889       1.7173047      909.86442     -44044979       704.74687      704.74687      704.74687      2147.6266      2852.3734      2147.6266      2852.3734      2147.6266      2852.3734      3.5002533e+08  0.1            16594860       70.475409      425.43527      4254.3531      0.33042725   
  56703800   305.53915      5.6751242     -44045957       1.7172828      909.84341     -44045047       704.74986      704.74986      704.74986      2147.6251      2852.3749      2147.6251      2852.3749      2147.6251      2852.3749      3.5002979e+08  0.1            16594880       70.522737      422.58467      4225.8482      0.28322385   
  56704000   305.50271      0.70444718    -44046025       1.7171478      909.73492     -44045115       704.76834      704.76834      704.76834      2147.6158      2852.3842      2147.6158      2852.3842      2147.6158      2852.3842      3.5005732e+08  0.1            16594900       70.570766      416.41809      4164.178       0.23602264   
  56704200   305.51497      0.31816817    -44046092       1.717141       909.7714      -44045182       704.76927      704.76927      704.76927      2147.6154      2852.3846      2147.6154      2852.3846      2147.6154      2852.3846      3.500587e+08   0.1            16594920       70.617878      424.51135      4245.1225      0.18881786   
  56704400   305.5262       0.43799322    -44046159       1.7171483      909.80485     -44045249       704.76827      704.76827      704.76827      2147.6159      2852.3841      2147.6159      2852.3841      2147.6159      2852.3841      3.5005722e+08  0.1            16594940       70.664865      425.65588      4256.5557      0.14161296   
  56704600   305.51315      0.035277218   -44046226       1.7171409      909.76598     -44045316       704.76929      704.76929      704.76929      2147.6154      2852.3846      2147.6154      2852.3846      2147.6154      2852.3846      3.5005873e+08  0.1            16594960       70.711854      425.62675      4256.2464      0.094408354  
  56704800   305.51577      2.6306972     -44046292       1.7172173      909.77379     -44045383       704.75883      704.75883      704.75883      2147.6206      2852.3794      2147.6206      2852.3794      2147.6206      2852.3794      3.5004315e+08  0.1            16594980       70.758914      424.9877       4249.8901      0.047204081  
  56705000   305.50107      3.7073942     -44046359       1.7172512      909.73001     -44045449       704.7542       704.7542       704.7542       2147.6229      2852.3771      2147.6229      2852.3771      2147.6229      2852.3771      3.5003624e+08  0.1            16595000       70.805963      425.09208      4250.9261      0            
Loop time of 70.806 on 1 procs for 300000 steps with 1000 atoms

Performance: 36.607 ns/day, 0.656 hours/ns, 4236.930 timesteps/s
99.8% CPU use with 1 MPI tasks x 1 OpenMP threads

MPI task timing breakdown:
Section |  min time  |  avg time  |  max time  |%varavg| %total
---------------------------------------------------------------
Pair    | 55.787     | 55.787     | 55.787     |   0.0 | 78.79
Neigh   | 0.029813   | 0.029813   | 0.029813   |   0.0 |  0.04
Comm    | 1.9387     | 1.9387     | 1.9387     |   0.0 |  2.74
Output  | 0.052601   | 0.052601   | 0.052601   |   0.0 |  0.07
Modify  | 11.54      | 11.54      | 11.54      |   0.0 | 16.30
Other   |            | 1.457      |            |       |  2.06

Nlocal:           1000 ave        1000 max        1000 min
Histogram: 1 0 0 0 0 0 0 0 0 0
Nghost:           1294 ave        1294 max        1294 min
Histogram: 1 0 0 0 0 0 0 0 0 0
Neighs:           6750 ave        6750 max        6750 min
Histogram: 1 0 0 0 0 0 0 0 0 0

Total # of neighbors = 6750
Ave neighs/atom = 6.75
Neighbor list builds = 42
Dangerous builds = 10

# run_style
run_style verlet

# write restart
write_restart ${write_res}
write_restart ./pgnpmf/37/equpmf81.res
System init for write_restart ...
Generated 0 of 1 mixed pair_coeff terms from geometric mixing rule

Total wall time: 0:02:34
