LAMMPS (23 Jun 2022 - Update 1)
OMP_NUM_THREADS environment is not set. Defaulting to 1 thread. (src/comm.cpp:98)
  using 1 OpenMP thread(s) per MPI task
# Read restart
read_restart ${read_res}
read_restart ./pgnpmf/37/equpmf41.res
Reading restart file ...
  restart file = 23 Jun 2022, LAMMPS = 23 Jun 2022
  restoring atom style atomic from restart
  orthogonal box = (2032.3446 2032.3446 2032.3446) to (2967.6554 2967.6554 2967.6554)
  1 by 1 by 1 MPI processor grid
  restoring pair style table from restart
  1000 atoms
  read_restart CPU = 0.003 seconds

# Settings

pair_style table spline 9941

pair_coeff 1 1 ./pgnpmf/N20.txt DE_GNP 75.6
pair_coeff 2 2 ./pgnpmf/N100.txt DE_GNP 115.92
WARNING: 3 of 9941 force values in table DE_GNP are inconsistent with -dE/dr.
WARNING:  Should only be flagged at inflection points (src/pair_table.cpp:463)
pair_coeff 1 2 ./pgnpmf/mixed_potential.txt DE_GNP 95.66
WARNING: 1562 of 9941 force values in table DE_GNP are inconsistent with -dE/dr.
WARNING:  Should only be flagged at inflection points (src/pair_table.cpp:463)

#Neigh_list Calc Frequency

neigh_modify delay 0 every 1 check yes

# Saving Frequency (50 frames)

variable ts_save equal ${steps_equ}
variable ts_save equal 5000

# Dump
#dump 1 all custom ${ts_save} ./pgnpmf/${folder}/equilibration/trajectory/trajectory_${usic}_${trial}.equ.custom type x y z ix iy iz
#dump_modify 1 first no sort id
#dump 2 all cfg 50000 ./equilibration/trajectory/ovito/dumpgen.tens_*.cfg mass type xs ys zs fx fy fz

# thermo_style
thermo_style custom step temp press pe density ke etotal lx ly lz xlo xhi ylo yhi zlo zhi vol dt time cpu tpcpu spcpu cpuremain

# run info
timestep ${ts}
timestep 0.1
thermo 200

# fix

fix 1 all momentum 1000 linear 1 1 1 angular
variable T equal ${temp}
variable T equal 300
fix 2 all nvt temp ${T} 370000 100.0
fix 2 all nvt temp 300 370000 100.0

run 100000
Generated 0 of 1 mixed pair_coeff terms from geometric mixing rule
Unused restart file global fix info:
  fix style: npt, fix ID: 5
Neighbor list info ...
  update every 1 steps, delay 0 steps, check yes
  max neighbors/atom: 2000, page size: 100000
  master list distance cutoff = 117.92
  ghost atom cutoff = 117.92
  binsize = 58.96, bins = 16 16 16
  1 neighbor lists, perpetual/occasional/extra = 1 0 0
  (1) pair table, perpetual
      attributes: half, newton on
      pair build: half/bin/atomonly/newton
      stencil: half/bin/3d
      bin: standard
Per MPI rank memory allocation (min/avg/max) = 3.133 | 3.133 | 3.133 Mbytes
   Step          Temp          Press          PotEng        Density         KinEng         TotEng           Lx             Ly             Lz            Xlo            Xhi            Ylo            Yhi            Zlo            Zhi           Volume           Dt            Time           CPU           T/CPU          S/CPU         CPULeft    
  28705000   309.26015      1.6563813     -36244748       0.73464751     920.92391     -36243828       935.31078      935.31078      935.31078      2032.3446      2967.6554      2032.3446      2967.6554      2032.3446      2967.6554      8.1821572e+08  0.1            13795000       0              0              0              0            
  28705200   354.10954      1.5037159     -36244868       0.73464751     1054.4777     -36243813       935.31078      935.31078      935.31078      2032.3446      2967.6554      2032.3446      2967.6554      2032.3446      2967.6554      8.1821572e+08  0.1            13795020       0.031923301    626.48471      6264.6662      15.931032    
  28705400   415.58853      1.3405432     -36244996       0.73464751     1237.5517     -36243758       935.31078      935.31078      935.31078      2032.3446      2967.6554      2032.3446      2967.6554      2032.3446      2967.6554      8.1821572e+08  0.1            13795040       0.064380587    616.19448      6161.9452      16.031414    
  28705600   483.51869      1.1635226     -36245135       0.73464751     1439.8361     -36243695       935.31078      935.31078      935.31078      2032.3446      2967.6554      2032.3446      2967.6554      2032.3446      2967.6554      8.1821572e+08  0.1            13795060       0.096120121    630.12691      6301.2739      15.92434     
  28705800   564.97563      0.97289437    -36245285       0.73464751     1682.4009     -36243602       935.31078      935.31078      935.31078      2032.3446      2967.6554      2032.3446      2967.6554      2032.3446      2967.6554      8.1821572e+08  0.1            13795080       0.12784617     630.40148      6304.0281      15.853214    
  28706000   660.24142      0.76700376    -36245446       0.73464751     1966.0862     -36243480       935.31078      935.31078      935.31078      2032.3446      2967.6554      2032.3446      2967.6554      2032.3446      2967.6554      8.1821572e+08  0.1            13795100       0.15965174     628.82319      6288.2089      15.805755    
  28706200   770.23485      0.54537447    -36245621       0.73464751     2293.6278     -36243327       935.31078      935.31078      935.31078      2032.3446      2967.6554      2032.3446      2967.6554      2032.3446      2967.6554      8.1821572e+08  0.1            13795120       0.19137106     630.5301       6305.3243      15.7564      
  28706400   896.60936      0.3063447     -36245809       0.73464751     2669.9496     -36243139       935.31078      935.31078      935.31078      2032.3446      2967.6554      2032.3446      2967.6554      2032.3446      2967.6554      8.1821572e+08  0.1            13795140       0.22307734     630.79241      6307.9263      15.711165    
  28706600   1041.2389      0.048887558   -36246012       0.73464751     3100.6315     -36242912       935.31078      935.31078      935.31078      2032.3446      2967.6554      2032.3446      2967.6554      2032.3446      2967.6554      8.1821572e+08  0.1            13795160       0.25476923     631.07522      6310.6917      15.668457    
  28706800   1206.2578     -0.22805891    -36246231       0.73464751     3592.0298     -36242639       935.31078      935.31078      935.31078      2032.3446      2967.6554      2032.3446      2967.6554      2032.3446      2967.6554      8.1821572e+08  0.1            13795180       0.28644808     631.33625      6313.4129      15.627451    
  28707000   1393.8222     -0.52562499    -36246465       0.73464751     4150.5644     -36242315       935.31078      935.31078      935.31078      2032.3446      2967.6554      2032.3446      2967.6554      2032.3446      2967.6554      8.1821572e+08  0.1            13795200       0.31820144     629.85498      6298.5353      15.591981    
  28707200   1606.9296     -0.84406595    -36246717       0.73464751     4785.162      -36241932       935.31078      935.31078      935.31078      2032.3446      2967.6554      2032.3446      2967.6554      2032.3446      2967.6554      8.1821572e+08  0.1            13795220       0.34991306     630.68137      6306.8338      15.555325    
  28707400   1848.3607     -1.1850904     -36246987       0.73464751     5504.1026     -36241482       935.31078      935.31078      935.31078      2032.3446      2967.6554      2032.3446      2967.6554      2032.3446      2967.6554      8.1821572e+08  0.1            13795240       0.38162942     630.59155      6305.9225      15.519681    
  28707600   2121.3085     -1.5497524     -36247275       0.73464751     6316.8946     -36240958       935.31078      935.31078      935.31078      2032.3446      2967.6554      2032.3446      2967.6554      2032.3446      2967.6554      8.1821572e+08  0.1            13795260       0.41328809     631.73806      6317.3756      15.482487    
  28707800   2429.253      -1.9390229     -36247584       0.73464751     7233.9006     -36240350       935.31078      935.31078      935.31078      2032.3446      2967.6554      2032.3446      2967.6554      2032.3446      2967.6554      8.1821572e+08  0.1            13795280       0.44500753     630.52762      6305.276       15.448194    
  28708000   2775.7293     -2.3538635     -36247914       0.73464751     8265.6479     -36239648       935.31078      935.31078      935.31078      2032.3446      2967.6554      2032.3446      2967.6554      2032.3446      2967.6554      8.1821572e+08  0.1            13795300       0.47672273     630.61396      6306.1438      15.414102    
  28708200   3165.1512     -2.794713      -36248265       0.73464751     9425.2797     -36238840       935.31078      935.31078      935.31078      2032.3446      2967.6554      2032.3446      2967.6554      2032.3446      2967.6554      8.1821572e+08  0.1            13795320       0.50960005     608.31992      6083.2044      15.415466    
  28708400   3601.7122     -3.2636477     -36248640       0.73464751     10725.284     -36237914       935.31078      935.31078      935.31078      2032.3446      2967.6554      2032.3446      2967.6554      2032.3446      2967.6554      8.1821572e+08  0.1            13795340       0.54128066     631.30145      6313.0034      15.378803    
  28708600   4089.9935     -3.7613622     -36249038       0.73464751     12179.302     -36236859       935.31078      935.31078      935.31078      2032.3446      2967.6554      2032.3446      2967.6554      2032.3446      2967.6554      8.1821572e+08  0.1            13795360       0.57293116     631.90249      6319.0289      15.341881    
  28708800   4634.7922     -4.2878053     -36249462       0.73464751     13801.62      -36235660       935.31078      935.31078      935.31078      2032.3446      2967.6554      2032.3446      2967.6554      2032.3446      2967.6554      8.1821572e+08  0.1            13795380       0.60461792     631.17855      6311.7807      15.306434    
  28709000   5240.8332     -4.8425347     -36249912       0.73464751     15606.306     -36234306       935.31078      935.31078      935.31078      2032.3446      2967.6554      2032.3446      2967.6554      2032.3446      2967.6554      8.1821572e+08  0.1            13795400       0.6363209      630.85572      6308.5485      15.271755    
  28709200   5913.516      -5.4253407     -36250389       0.73464751     17609.441     -36232779       935.31078      935.31078      935.31078      2032.3446      2967.6554      2032.3446      2967.6554      2032.3446      2967.6554      8.1821572e+08  0.1            13795420       0.66800361     631.25849      6312.5847      15.236895    
  28709400   6657.7334     -6.0378181     -36250894       0.73464751     19825.593     -36231068       935.31078      935.31078      935.31078      2032.3446      2967.6554      2032.3446      2967.6554      2032.3446      2967.6554      8.1821572e+08  0.1            13795440       0.69964047     632.17399      6321.7417      15.201327    
  28709600   7478.3699     -6.6808522     -36251428       0.73464751     22269.309     -36229159       935.31078      935.31078      935.31078      2032.3446      2967.6554      2032.3446      2967.6554      2032.3446      2967.6554      8.1821572e+08  0.1            13795460       0.7312765      632.1906       6321.8996      15.166085    
  28709800   8380.0055     -7.356761      -36251993       0.73464751     24954.225     -36227039       935.31078      935.31078      935.31078      2032.3446      2967.6554      2032.3446      2967.6554      2032.3446      2967.6554      8.1821572e+08  0.1            13795480       0.76290347     632.37202      6323.7341      15.130961    
  28710000   9366.4942     -8.0711011     -36252588       0.73464751     27891.82      -36224697       935.31078      935.31078      935.31078      2032.3446      2967.6554      2032.3446      2967.6554      2032.3446      2967.6554      8.1821572e+08  0.1            13795500       0.79457662     631.44743      6314.4568      15.097001    
  28710200   10441.512     -8.831734      -36253216       0.73464751     31093.04      -36222123       935.31078      935.31078      935.31078      2032.3446      2967.6554      2032.3446      2967.6554      2032.3446      2967.6554      8.1821572e+08  0.1            13795520       0.8262189      632.06704      6320.6922      15.062645    
  28710400   11607.232     -9.6431175     -36253876       0.73464751     34564.356     -36219311       935.31078      935.31078      935.31078      2032.3446      2967.6554      2032.3446      2967.6554      2032.3446      2967.6554      8.1821572e+08  0.1            13795540       0.85798435     629.61567      6296.154       15.030653    
  28710600   12864.582     -10.503691     -36254569       0.73464751     38308.528     -36216260       935.31078      935.31078      935.31078      2032.3446      2967.6554      2032.3446      2967.6554      2032.3446      2967.6554      8.1821572e+08  0.1            13795560       0.89008756     622.98612      6229.8583      15.004374    
  28710800   14212.731     -11.407122     -36255296       0.73464751     42323.087     -36212973       935.31078      935.31078      935.31078      2032.3446      2967.6554      2032.3446      2967.6554      2032.3446      2967.6554      8.1821572e+08  0.1            13795580       0.9218485      629.70688      6297.0861      14.972127    
  28711000   15648.468     -12.338642     -36256057       0.73464751     46598.465     -36209458       935.31078      935.31078      935.31078      2032.3446      2967.6554      2032.3446      2967.6554      2032.3446      2967.6554      8.1821572e+08  0.1            13795600       0.95369383     628.03575      6280.3535      14.941237    
  28711200   17166.484     -13.282913     -36256851       0.73464751     51118.858     -36205732       935.31078      935.31078      935.31078      2032.3446      2967.6554      2032.3446      2967.6554      2032.3446      2967.6554      8.1821572e+08  0.1            13795620       0.98534535     631.88147      6318.7999      14.907356    
  28711400   18757.992     -14.232784     -36257679       0.73464751     55858.097     -36201821       935.31078      935.31078      935.31078      2032.3446      2967.6554      2032.3446      2967.6554      2032.3446      2967.6554      8.1821572e+08  0.1            13795640       1.0170211      631.39782      6313.9778      14.873966    
  28711600   20410.874     -15.191545     -36258540       0.73464751     60780.097     -36197760       935.31078      935.31078      935.31078      2032.3446      2967.6554      2032.3446      2967.6554      2032.3446      2967.6554      8.1821572e+08  0.1            13795660       1.0487983      629.38271      6293.8271      14.842116    
  28711800   22109.326     -16.003933     -36252055       0.73464751     65837.799     -36186217       935.31078      935.31078      935.31078      2032.3446      2967.6554      2032.3446      2967.6554      2032.3446      2967.6554      8.1821572e+08  0.1            13795680       1.0804748      631.38143      6313.8151      14.808892    
  28712000   23833.07      -17.076693     -36254875       0.73464751     70970.812     -36183904       935.31078      935.31078      935.31078      2032.3446      2967.6554      2032.3446      2967.6554      2032.3446      2967.6554      8.1821572e+08  0.1            13795700       1.1122473      629.47835      6294.7337      14.777032    
  28712200   25557.892     -18.128836     -36255829       0.73464751     76107.038     -36179722       935.31078      935.31078      935.31078      2032.3446      2967.6554      2032.3446      2967.6554      2032.3446      2967.6554      8.1821572e+08  0.1            13795720       1.1440012      629.8401       6298.4401      14.744935    
  28712400   27254.895     -19.255756     -36256812       0.73464751     81160.422     -36175651       935.31078      935.31078      935.31078      2032.3446      2967.6554      2032.3446      2967.6554      2032.3446      2967.6554      8.1821572e+08  0.1            13795740       1.1757782      629.389        6293.9         14.713145    
  28712600   28891.348     -20.4657       -36257821       0.73464751     86033.501     -36171787       935.31078      935.31078      935.31078      2032.3446      2967.6554      2032.3446      2967.6554      2032.3446      2967.6554      8.1821572e+08  0.1            13795760       1.2075377      629.73278      6297.3246      14.681143    
  28712800   30431.314     -21.750126     -36258853       0.73464751     90619.255     -36168234       935.31078      935.31078      935.31078      2032.3446      2967.6554      2032.3446      2967.6554      2032.3446      2967.6554      8.1821572e+08  0.1            13795780       1.2392452      630.76607      6307.6688      14.648539    
  28713000   31836.883     -23.079359     -36259906       0.73464751     94804.8       -36165101       935.31078      935.31078      935.31078      2032.3446      2967.6554      2032.3446      2967.6554      2032.3446      2967.6554      8.1821572e+08  0.1            13795800       1.2710447      628.94073      6289.3887      14.61704     
  28713200   33071.298     -24.439802     -36260975       0.73464751     98480.678     -36162494       935.31078      935.31078      935.31078      2032.3446      2967.6554      2032.3446      2967.6554      2032.3446      2967.6554      8.1821572e+08  0.1            13795820       1.3027308      631.19094      6311.9285      14.584254    
  28713400   34101.779     -25.824433     -36262056       0.73464751     101549.27     -36160507       935.31078      935.31078      935.31078      2032.3446      2967.6554      2032.3446      2967.6554      2032.3446      2967.6554      8.1821572e+08  0.1            13795840       1.3344286      630.95993      6309.6007      14.551648    
  28713600   34904.875     -27.063119     -36255768       0.73464751     103940.76     -36151827       935.31078      935.31078      935.31078      2032.3446      2967.6554      2032.3446      2967.6554      2032.3446      2967.6554      8.1821572e+08  0.1            13795860       1.3661896      629.7005       6296.9994      14.51976     
  28713800   35472.12      -28.48898      -36256861       0.73464751     105629.92     -36151231       935.31078      935.31078      935.31078      2032.3446      2967.6554      2032.3446      2967.6554      2032.3446      2967.6554      8.1821572e+08  0.1            13795880       1.3978968      630.77307      6307.7232      14.487318    
  28714000   35814.177     -29.958514     -36257954       0.73464751     106648.5      -36151305       935.31078      935.31078      935.31078      2032.3446      2967.6554      2032.3446      2967.6554      2032.3446      2967.6554      8.1821572e+08  0.1            13795900       1.4296655      629.55231      6295.5172      14.455529    
  28714200   35964.279     -31.476873     -36259042       0.73464751     107095.48     -36151947       935.31078      935.31078      935.31078      2032.3446      2967.6554      2032.3446      2967.6554      2032.3446      2967.6554      8.1821572e+08  0.1            13795920       1.4614146      629.9342       6299.3459      14.42355     
  28714400   35974.476     -33.015245     -36260124       0.73464751     107125.85     -36152999       935.31078      935.31078      935.31078      2032.3446      2967.6554      2032.3446      2967.6554      2032.3446      2967.6554      8.1821572e+08  0.1            13795940       1.4941187      611.54754      6115.5014      14.400781    
  28714600   35908.793     -34.534381     -36261199       0.73464751     106930.25     -36154269       935.31078      935.31078      935.31078      2032.3446      2967.6554      2032.3446      2967.6554      2032.3446      2967.6554      8.1821572e+08  0.1            13795960       1.526784       612.26673      6122.6508      14.377238    
  28714800   35834.276     -36.00992      -36262266       0.73464751     106708.35     -36155557       935.31078      935.31078      935.31078      2032.3446      2967.6554      2032.3446      2967.6554      2032.3446      2967.6554      8.1821572e+08  0.1            13795980       1.5585885      628.84422      6288.4329      14.345397    
  28715000   35813.9       -37.445014     -36263325       0.73464751     106647.68     -36156677       935.31078      935.31078      935.31078      2032.3446      2967.6554      2032.3446      2967.6554      2032.3446      2967.6554      8.1821572e+08  0.1            13796000       1.5903315      630.05809      6300.594       14.313004    
  28715200   35903.389     -38.764627     -36258895       0.73464751     106914.16     -36151981       935.31078      935.31078      935.31078      2032.3446      2967.6554      2032.3446      2967.6554      2032.3446      2967.6554      8.1821572e+08  0.1            13796020       1.6220268      631.01209      6310.1161      14.280215    
  28715400   36149.066     -40.170491     -36259944       0.73464751     107645.75     -36152299       935.31078      935.31078      935.31078      2032.3446      2967.6554      2032.3446      2967.6554      2032.3446      2967.6554      8.1821572e+08  0.1            13796040       1.6537511      630.43118      6304.3152      14.24772     
  28715600   36587.292     -41.566083     -36260992       0.73464751     108950.71     -36152042       935.31078      935.31078      935.31078      2032.3446      2967.6554      2032.3446      2967.6554      2032.3446      2967.6554      8.1821572e+08  0.1            13796060       1.6854728      630.48443      6304.8339      14.215232    
  28715800   37243.084     -42.941717     -36262042       0.73464751     110903.54     -36151138       935.31078      935.31078      935.31078      2032.3446      2967.6554      2032.3446      2967.6554      2032.3446      2967.6554      8.1821572e+08  0.1            13796080       1.7171863      630.64618      6306.461       14.182705    
  28716000   38126.741     -44.285198     -36263095       0.73464751     113534.93     -36149560       935.31078      935.31078      935.31078      2032.3446      2967.6554      2032.3446      2967.6554      2032.3446      2967.6554      8.1821572e+08  0.1            13796100       1.7489576      629.49762      6294.9857      14.150674    
  28716200   39230.91      -45.607404     -36264154       0.73464751     116822.95     -36147331       935.31078      935.31078      935.31078      2032.3446      2967.6554      2032.3446      2967.6554      2032.3446      2967.6554      8.1821572e+08  0.1            13796120       1.7820845      603.73821      6037.377       14.129402    
  28716400   40528.339     -46.916073     -36265221       0.73464751     120686.47     -36144535       935.31078      935.31078      935.31078      2032.3446      2967.6554      2032.3446      2967.6554      2032.3446      2967.6554      8.1821572e+08  0.1            13796140       1.8138246      630.11722      6301.1768      14.096935    
  28716600   41974.293     -48.231686     -36266299       0.73464751     124992.28     -36141307       935.31078      935.31078      935.31078      2032.3446      2967.6554      2032.3446      2967.6554      2032.3446      2967.6554      8.1821572e+08  0.1            13796160       1.8456378      628.67097      6286.698       14.065051    
  28716800   43511.755     -49.570159     -36267388       0.73464751     129570.58     -36137817       935.31078      935.31078      935.31078      2032.3446      2967.6554      2032.3446      2967.6554      2032.3446      2967.6554      8.1821572e+08  0.1            13796180       1.8774092      629.49742      6294.9869      14.032854    
  28717000   45077.606     -50.865949     -36266594       0.73464751     134233.41     -36132360       935.31078      935.31078      935.31078      2032.3446      2967.6554      2032.3446      2967.6554      2032.3446      2967.6554      8.1821572e+08  0.1            13796200       1.9091798      629.51201      6295.1308      14.000667    
  28717200   46608.339     -52.222262     -36267705       0.73464751     138791.67     -36128914       935.31078      935.31078      935.31078      2032.3446      2967.6554      2032.3446      2967.6554      2032.3446      2967.6554      8.1821572e+08  0.1            13796220       1.9416588      615.78086      6157.7926      13.973594    
  28717400   48043.113     -53.57865      -36268826       0.73464751     143064.19     -36125762       935.31078      935.31078      935.31078      2032.3446      2967.6554      2032.3446      2967.6554      2032.3446      2967.6554      8.1821572e+08  0.1            13796240       1.9733566      630.96057      6309.5941      13.940827    
  28717600   49327.736     -54.888455     -36268059       0.73464751     146889.57     -36121170       935.31078      935.31078      935.31078      2032.3446      2967.6554      2032.3446      2967.6554      2032.3446      2967.6554      8.1821572e+08  0.1            13796260       2.0050643      630.76143      6307.6187      13.90816     
  28717800   50417.535     -56.252967     -36269192       0.73464751     150134.81     -36119058       935.31078      935.31078      935.31078      2032.3446      2967.6554      2032.3446      2967.6554      2032.3446      2967.6554      8.1821572e+08  0.1            13796280       2.0368942      628.33864      6283.3959      13.876357    
  28718000   51280.621     -57.596616     -36270327       0.73464751     152704.93     -36117622       935.31078      935.31078      935.31078      2032.3446      2967.6554      2032.3446      2967.6554      2032.3446      2967.6554      8.1821572e+08  0.1            13796300       2.0686823      629.16778      6291.6818      13.844273    
  28718200   51902.869     -59.047006     -36273355       0.73464751     154557.88     -36118797       935.31078      935.31078      935.31078      2032.3446      2967.6554      2032.3446      2967.6554      2032.3446      2967.6554      8.1821572e+08  0.1            13796320       2.1003507      631.54534      6315.448       13.811411    
  28718400   52290.358     -60.522717     -36274485       0.73464751     155711.76     -36118773       935.31078      935.31078      935.31078      2032.3446      2967.6554      2032.3446      2967.6554      2032.3446      2967.6554      8.1821572e+08  0.1            13796340       2.1321037      629.85913      6298.5758      13.779134    
  28718600   52470.899     -62.071252     -36275608       0.73464751     156249.38     -36119358       935.31078      935.31078      935.31078      2032.3446      2967.6554      2032.3446      2967.6554      2032.3446      2967.6554      8.1821572e+08  0.1            13796360       2.1638036      630.91757      6309.1998      13.746531    
  28718800   52491.574     -63.481353     -36269343       0.73464751     156310.94     -36113032       935.31078      935.31078      935.31078      2032.3446      2967.6554      2032.3446      2967.6554      2032.3446      2967.6554      8.1821572e+08  0.1            13796380       2.1955122      630.74293      6307.4244      13.714011    
  28719000   52413.554     -65.111112     -36270446       0.73464751     156078.61     -36114367       935.31078      935.31078      935.31078      2032.3446      2967.6554      2032.3446      2967.6554      2032.3446      2967.6554      8.1821572e+08  0.1            13796400       2.2272421      630.32332      6303.2429      13.681642    
  28719200   52304.652     -66.749688     -36269641       0.73464751     155754.32     -36113887       935.31078      935.31078      935.31078      2032.3446      2967.6554      2032.3446      2967.6554      2032.3446      2967.6554      8.1821572e+08  0.1            13796420       2.2589868      630.02625      6300.2538      13.649384    
  28719400   52232.678     -68.509638     -36270721       0.73464751     155540        -36115181       935.31078      935.31078      935.31078      2032.3446      2967.6554      2032.3446      2967.6554      2032.3446      2967.6554      8.1821572e+08  0.1            13796440       2.2906628      631.39241      6313.9223      13.616731    
  28719600   52259.617     -70.251951     -36271793       0.73464751     155620.21     -36116172       935.31078      935.31078      935.31078      2032.3446      2967.6554      2032.3446      2967.6554      2032.3446      2967.6554      8.1821572e+08  0.1            13796460       2.3223718      630.73587      6307.3701      13.584296    
  28719800   52438.179     -71.947675     -36274754       0.73464751     156151.94     -36118602       935.31078      935.31078      935.31078      2032.3446      2967.6554      2032.3446      2967.6554      2032.3446      2967.6554      8.1821572e+08  0.1            13796480       2.3541177      630.0016       6300.0091      13.552095    
  28720000   52809.67      -73.397991     -36275814       0.73464751     157258.18     -36118556       935.31078      935.31078      935.31078      2032.3446      2967.6554      2032.3446      2967.6554      2032.3446      2967.6554      8.1821572e+08  0.1            13796500       2.3858671      629.93445      6299.3441      13.519926    
  28720200   53402.947     -74.635591     -36274974       0.73464751     159024.86     -36115949       935.31078      935.31078      935.31078      2032.3446      2967.6554      2032.3446      2967.6554      2032.3446      2967.6554      8.1821572e+08  0.1            13796520       2.4175891      630.47642      6304.7516      13.487615    
  28720400   54232.304     -75.886077     -36276024       0.73464751     161494.54     -36114529       935.31078      935.31078      935.31078      2032.3446      2967.6554      2032.3446      2967.6554      2032.3446      2967.6554      8.1821572e+08  0.1            13796540       2.4493844      629.02284      6290.2351      13.455721    
  28720600   55295.151     -77.154528     -36277072       0.73464751     164659.52     -36112412       935.31078      935.31078      935.31078      2032.3446      2967.6554      2032.3446      2967.6554      2032.3446      2967.6554      8.1821572e+08  0.1            13796560       2.4810969      630.66714      6306.6791      13.423382    
  28720800   56570.069     -78.416042     -36278120       0.73464751     168456.01     -36109664       935.31078      935.31078      935.31078      2032.3446      2967.6554      2032.3446      2967.6554      2032.3446      2967.6554      8.1821572e+08  0.1            13796580       2.5137647      612.22081      6122.1985      13.396151    
  28721000   58016.881     -79.625495     -36279171       0.73464751     172764.36     -36106407       935.31078      935.31078      935.31078      2032.3446      2967.6554      2032.3446      2967.6554      2032.3446      2967.6554      8.1821572e+08  0.1            13796600       2.5455653      628.92188      6289.2016      13.36423     
  28721200   59580.513     -80.818638     -36280225       0.73464751     177420.59     -36102804       935.31078      935.31078      935.31078      2032.3446      2967.6554      2032.3446      2967.6554      2032.3446      2967.6554      8.1821572e+08  0.1            13796620       2.5773498      629.23911      6292.4225      13.332227    
  28721400   61195.836     -82.077486     -36281283       0.73464751     182230.75     -36099052       935.31078      935.31078      935.31078      2032.3446      2967.6554      2032.3446      2967.6554      2032.3446      2967.6554      8.1821572e+08  0.1            13796640       2.6091069      629.77916      6297.7811      13.300093    
  28721600   62793.687     -83.474831     -36284240       0.73464751     186988.88     -36097251       935.31078      935.31078      935.31078      2032.3446      2967.6554      2032.3446      2967.6554      2032.3446      2967.6554      8.1821572e+08  0.1            13796660       2.6408553      629.95245      6299.5239      13.267923    
  28721800   64305.938     -84.823895     -36285305       0.73464751     191492.1      -36093813       935.31078      935.31078      935.31078      2032.3446      2967.6554      2032.3446      2967.6554      2032.3446      2967.6554      8.1821572e+08  0.1            13796680       2.6751703      582.83339      5828.3176      13.248475    
  28722000   65669.643     -86.204532     -36286369       0.73464751     195552.98     -36090816       935.31078      935.31078      935.31078      2032.3446      2967.6554      2032.3446      2967.6554      2032.3446      2967.6554      8.1821572e+08  0.1            13796700       2.7123233      538.31452      5383.1454      13.242532    
  28722200   66832.927     -87.662732     -36287430       0.73464751     199017.04     -36088413       935.31078      935.31078      935.31078      2032.3446      2967.6554      2032.3446      2967.6554      2032.3446      2967.6554      8.1821572e+08  0.1            13796720       2.7441243      628.91434      6289.1654      13.210097    
  28722400   67758.271     -89.158818     -36288488       0.73464751     201772.56     -36086716       935.31078      935.31078      935.31078      2032.3446      2967.6554      2032.3446      2967.6554      2032.3446      2967.6554      8.1821572e+08  0.1            13796740       2.775851       630.38387      6303.821       13.177327    
  28722600   68426.261     -90.438133     -36282162       0.73464751     203761.72     -36078400       935.31078      935.31078      935.31078      2032.3446      2967.6554      2032.3446      2967.6554      2032.3446      2967.6554      8.1821572e+08  0.1            13796760       2.8075754      630.43035      6304.3335      13.144567    
  28722800   68839.057     -92.021162     -36290582       0.73464751     204990.96     -36085591       935.31078      935.31078      935.31078      2032.3446      2967.6554      2032.3446      2967.6554      2032.3446      2967.6554      8.1821572e+08  0.1            13796780       2.839341       629.61022      6296.0885      13.112023    
  28723000   69022.311     -93.47235      -36291615       0.73464751     205536.65     -36086078       935.31078      935.31078      935.31078      2032.3446      2967.6554      2032.3446      2967.6554      2032.3446      2967.6554      8.1821572e+08  0.1            13796800       2.8711077      629.59005      6295.8787      13.079501    
  28723200   69022.576     -94.927018     -36292636       0.73464751     205537.44     -36087099       935.31078      935.31078      935.31078      2032.3446      2967.6554      2032.3446      2967.6554      2032.3446      2967.6554      8.1821572e+08  0.1            13796820       2.9040046      607.95777      6079.5801      13.052076    
  28723400   68901.786     -96.341732     -36293644       0.73464751     205177.75     -36088466       935.31078      935.31078      935.31078      2032.3446      2967.6554      2032.3446      2967.6554      2032.3446      2967.6554      8.1821572e+08  0.1            13796840       2.935848       628.07502      6280.7632      13.019858    
  28723600   68730.783     -97.757757     -36294637       0.73464751     204668.53     -36089969       935.31078      935.31078      935.31078      2032.3446      2967.6554      2032.3446      2967.6554      2032.3446      2967.6554      8.1821572e+08  0.1            13796860       2.9675828      630.22563      6302.2698      12.987173    
  28723800   68582.503     -99.236926     -36295616       0.73464751     204226.98     -36091389       935.31078      935.31078      935.31078      2032.3446      2967.6554      2032.3446      2967.6554      2032.3446      2967.6554      8.1821572e+08  0.1            13796880       2.9993393      629.79229      6297.9145      12.954602    
  28724000   68525.647     -100.87731     -36303959       0.73464751     204057.68     -36099902       935.31078      935.31078      935.31078      2032.3446      2967.6554      2032.3446      2967.6554      2032.3446      2967.6554      8.1821572e+08  0.1            13796900       3.0312168      627.40262      6274.0152      12.922565    
  28724200   68620.095     -102.25602     -36304913       0.73464751     204338.92     -36100574       935.31078      935.31078      935.31078      2032.3446      2967.6554      2032.3446      2967.6554      2032.3446      2967.6554      8.1821572e+08  0.1            13796920       3.0636726      616.22055      6162.2076      12.892965    
  28724400   68914.26      -103.50426     -36303962       0.73464751     205214.9      -36098747       935.31078      935.31078      935.31078      2032.3446      2967.6554      2032.3446      2967.6554      2032.3446      2967.6554      8.1821572e+08  0.1            13796940       3.0954416      629.54326      6295.4389      12.860452    
  28724600   69443.097     -104.76874     -36304897       0.73464751     206789.68     -36098107       935.31078      935.31078      935.31078      2032.3446      2967.6554      2032.3446      2967.6554      2032.3446      2967.6554      8.1821572e+08  0.1            13796960       3.1271682      630.38661      6303.8828      12.82778     
  28724800   70225.376     -106.26103     -36315097       0.73464751     209119.18     -36105978       935.31078      935.31078      935.31078      2032.3446      2967.6554      2032.3446      2967.6554      2032.3446      2967.6554      8.1821572e+08  0.1            13796980       3.1589795      628.70622      6287.0354      12.795472    
  28725000   71261.248     -107.584       -36316018       0.73464751     212203.83     -36103814       935.31078      935.31078      935.31078      2032.3446      2967.6554      2032.3446      2967.6554      2032.3446      2967.6554      8.1821572e+08  0.1            13797000       3.1907853      628.81903      6288.2089      12.76315     
  28725200   72531.639     -109.17904     -36324311       0.73464751     215986.84     -36108324       935.31078      935.31078      935.31078      2032.3446      2967.6554      2032.3446      2967.6554      2032.3446      2967.6554      8.1821572e+08  0.1            13797020       3.2225413      629.80224      6298.0212      12.730642    
  28725400   73997.563     -110.78739     -36332602       0.73464751     220352.11     -36112250       935.31078      935.31078      935.31078      2032.3446      2967.6554      2032.3446      2967.6554      2032.3446      2967.6554      8.1821572e+08  0.1            13797040       3.2543173      629.40608      6294.0723      12.698226    
  28725600   75602.231     -112.10536     -36333511       0.73464751     225130.53     -36108380       935.31078      935.31078      935.31078      2032.3446      2967.6554      2032.3446      2967.6554      2032.3446      2967.6554      8.1821572e+08  0.1            13797060       3.2860812      629.64356      6296.4267      12.665778    
  28725800   77277.114     -113.3213      -36334415       0.73464751     230118.05     -36104297       935.31078      935.31078      935.31078      2032.3446      2967.6554      2032.3446      2967.6554      2032.3446      2967.6554      8.1821572e+08  0.1            13797080       3.3178233      630.07857      6300.7712      12.633259    
  28726000   78948.211     -114.47265     -36335316       0.73464751     235094.29     -36100222       935.31078      935.31078      935.31078      2032.3446      2967.6554      2032.3446      2967.6554      2032.3446      2967.6554      8.1821572e+08  0.1            13797100       3.3496479      628.44601      6284.4683      12.601064    
  28726200   80541.721     -115.74636     -36343591       0.73464751     239839.49     -36103751       935.31078      935.31078      935.31078      2032.3446      2967.6554      2032.3446      2967.6554      2032.3446      2967.6554      8.1821572e+08  0.1            13797120       3.3813836      630.20532      6302.0514      12.568547    
  28726400   81988.405     -116.9266      -36344481       0.73464751     244147.47     -36100334       935.31078      935.31078      935.31078      2032.3446      2967.6554      2032.3446      2967.6554      2032.3446      2967.6554      8.1821572e+08  0.1            13797140       3.4130748      631.08886      6310.8966      12.53588     
  28726600   83230.015     -118.58454     -36367499       0.73464751     247844.77     -36119654       935.31078      935.31078      935.31078      2032.3446      2967.6554      2032.3446      2967.6554      2032.3446      2967.6554      8.1821572e+08  0.1            13797160       3.4448701      629.0211       6290.1961      12.503611    
  28726800   84222.894     -119.64773     -36368374       0.73464751     250801.4      -36117572       935.31078      935.31078      935.31078      2032.3446      2967.6554      2032.3446      2967.6554      2032.3446      2967.6554      8.1821572e+08  0.1            13797180       3.4766706      628.9251       6289.2617      12.471367    
  28727000   84942.432     -120.69314     -36369236       0.73464751     252944.06     -36116292       935.31078      935.31078      935.31078      2032.3446      2967.6554      2032.3446      2967.6554      2032.3446      2967.6554      8.1821572e+08  0.1            13797200       3.5095895      607.55292      6075.5372      12.443097    
  28727200   85387.931     -121.61814     -36362710       0.73464751     254270.68     -36108439       935.31078      935.31078      935.31078      2032.3446      2967.6554      2032.3446      2967.6554      2032.3446      2967.6554      8.1821572e+08  0.1            13797220       3.5413565      629.58394      6295.8335      12.410707    
  28727400   85581.427     -122.74231     -36363548       0.73464751     254846.88     -36108701       935.31078      935.31078      935.31078      2032.3446      2967.6554      2032.3446      2967.6554      2032.3446      2967.6554      8.1821572e+08  0.1            13797240       3.5731734      628.59768      6285.9902      12.378501    
  28727600   85567.555     -124.05166     -36364372       0.73464751     254805.57     -36109567       935.31078      935.31078      935.31078      2032.3446      2967.6554      2032.3446      2967.6554      2032.3446      2967.6554      8.1821572e+08  0.1            13797260       3.604903       630.32453      6303.2187      12.346003    
  28727800   85409.88      -125.32048     -36357806       0.73464751     254336.04     -36103470       935.31078      935.31078      935.31078      2032.3446      2967.6554      2032.3446      2967.6554      2032.3446      2967.6554      8.1821572e+08  0.1            13797280       3.6367056      628.88122      6288.8017      12.313765    
  28728000   85181.888     -126.78033     -36358603       0.73464751     253657.12     -36104946       935.31078      935.31078      935.31078      2032.3446      2967.6554      2032.3446      2967.6554      2032.3446      2967.6554      8.1821572e+08  0.1            13797300       3.6685497      628.0602       6280.6306      12.281673    
  28728200   84961.365     -128.30028     -36361280       0.73464751     253000.44     -36108280       935.31078      935.31078      935.31078      2032.3446      2967.6554      2032.3446      2967.6554      2032.3446      2967.6554      8.1821572e+08  0.1            13797320       3.7003149      629.6174       6296.1581      12.249326    
  28728400   84823.153     -129.53565     -36354670       0.73464751     252588.86     -36102081       935.31078      935.31078      935.31078      2032.3446      2967.6554      2032.3446      2967.6554      2032.3446      2967.6554      8.1821572e+08  0.1            13797340       3.732844       614.83437      6148.3418      12.219488    
  28728600   84833.591     -130.91807     -36355422       0.73464751     252619.95     -36102802       935.31078      935.31078      935.31078      2032.3446      2967.6554      2032.3446      2967.6554      2032.3446      2967.6554      8.1821572e+08  0.1            13797360       3.7646065      629.67373      6296.7387      12.187123    
  28728800   85048.331     -132.32197     -36356160       0.73464751     253259.41     -36102901       935.31078      935.31078      935.31078      2032.3446      2967.6554      2032.3446      2967.6554      2032.3446      2967.6554      8.1821572e+08  0.1            13797380       3.7964164      628.7337       6287.3221      12.154921    
  28729000   85508.552     -133.62749     -36356889       0.73464751     254629.87     -36102259       935.31078      935.31078      935.31078      2032.3446      2967.6554      2032.3446      2967.6554      2032.3446      2967.6554      8.1821572e+08  0.1            13797400       3.8282751      627.77411      6277.7593      12.122878    
  28729200   86237.662     -134.71823     -36357606       0.73464751     256801.03     -36100805       935.31078      935.31078      935.31078      2032.3446      2967.6554      2032.3446      2967.6554      2032.3446      2967.6554      8.1821572e+08  0.1            13797420       3.8600686      629.05839      6290.5888      12.090636    
  28729400   87239.303     -135.64718     -36358313       0.73464751     259783.75     -36098529       935.31078      935.31078      935.31078      2032.3446      2967.6554      2032.3446      2967.6554      2032.3446      2967.6554      8.1821572e+08  0.1            13797440       3.8918162      629.96918      6299.6884      12.058257    
  28729600   88496.487     -136.60406     -36366389       0.73464751     263527.43     -36102861       935.31078      935.31078      935.31078      2032.3446      2967.6554      2032.3446      2967.6554      2032.3446      2967.6554      8.1821572e+08  0.1            13797460       3.9234977      631.28372      6312.828       12.025687    
  28729800   89970.567     -137.19214     -36359699       0.73464751     267916.99     -36091782       935.31078      935.31078      935.31078      2032.3446      2967.6554      2032.3446      2967.6554      2032.3446      2967.6554      8.1821572e+08  0.1            13797480       3.9553311      628.26869      6282.6843      11.993592    
  28730000   91605.105     -138.07003     -36367757       0.73464751     272784.36     -36094973       935.31078      935.31078      935.31078      2032.3446      2967.6554      2032.3446      2967.6554      2032.3446      2967.6554      8.1821572e+08  0.1            13797500       3.987138       628.79539      6287.9586      11.961421    
  28730200   93328.869     -138.72326     -36368427       0.73464751     277917.44     -36090509       935.31078      935.31078      935.31078      2032.3446      2967.6554      2032.3446      2967.6554      2032.3446      2967.6554      8.1821572e+08  0.1            13797520       4.0188537      630.60324      6306.0324      11.928985    
  28730400   95063.512     -139.4163      -36369087       0.73464751     283082.91     -36086004       935.31078      935.31078      935.31078      2032.3446      2967.6554      2032.3446      2967.6554      2032.3446      2967.6554      8.1821572e+08  0.1            13797540       4.050671       628.58717      6285.8721      11.896859    
  28730600   96730.225     -139.98012     -36362360       0.73464751     288046.09     -36074314       935.31078      935.31078      935.31078      2032.3446      2967.6554      2032.3446      2967.6554      2032.3446      2967.6554      8.1821572e+08  0.1            13797560       4.08243        629.74346      6297.4281      11.864569    
  28730800   98254.344     -140.69208     -36362999       0.73464751     292584.66     -36070415       935.31078      935.31078      935.31078      2032.3446      2967.6554      2032.3446      2967.6554      2032.3446      2967.6554      8.1821572e+08  0.1            13797580       4.1141811      629.90206      6299.0436      11.832263    
  28731000   99571.792     -141.45638     -36363626       0.73464751     296507.79     -36067118       935.31078      935.31078      935.31078      2032.3446      2967.6554      2032.3446      2967.6554      2032.3446      2967.6554      8.1821572e+08  0.1            13797600       4.1459662      629.22479      6292.2448      11.800064    
  28731200   100633.98     -142.37449     -36364239       0.73464751     299670.81     -36064568       935.31078      935.31078      935.31078      2032.3446      2967.6554      2032.3446      2967.6554      2032.3446      2967.6554      8.1821572e+08  0.1            13797620       4.1776688      630.8634       6308.6263      11.767638    
  28731400   101412.05     -143.2224      -36355563       0.73464751     301987.78     -36053576       935.31078      935.31078      935.31078      2032.3446      2967.6554      2032.3446      2967.6554      2032.3446      2967.6554      8.1821572e+08  0.1            13797640       4.2093744      630.80291      6308.0266      11.735232    
  28731600   101900.91     -144.57177     -36358043       0.73464751     303443.5      -36054599       935.31078      935.31078      935.31078      2032.3446      2967.6554      2032.3446      2967.6554      2032.3446      2967.6554      8.1821572e+08  0.1            13797660       4.2411123      630.16118      6301.6187      11.702925    
  28731800   102119.3      -145.86801     -36358614       0.73464751     304093.84     -36054521       935.31078      935.31078      935.31078      2032.3446      2967.6554      2032.3446      2967.6554      2032.3446      2967.6554      8.1821572e+08  0.1            13797680       4.27287        629.76742      6297.6692      11.670681    
  28732000   102109.1      -147.16703     -36361068       0.73464751     304063.46     -36057004       935.31078      935.31078      935.31078      2032.3446      2967.6554      2032.3446      2967.6554      2032.3446      2967.6554      8.1821572e+08  0.1            13797700       4.3046691      628.95077      6289.5149      11.638555    
  28732200   101932.36     -148.25858     -36361612       0.73464751     303537.15     -36058075       935.31078      935.31078      935.31078      2032.3446      2967.6554      2032.3446      2967.6554      2032.3446      2967.6554      8.1821572e+08  0.1            13797720       4.3365907      626.53354      6265.2942      11.606764    
  28732400   101663.41     -149.22422     -36362140       0.73464751     302736.28     -36059404       935.31078      935.31078      935.31078      2032.3446      2967.6554      2032.3446      2967.6554      2032.3446      2967.6554      8.1821572e+08  0.1            13797740       4.3689261      618.5165       6185.1916      11.576066    
  28732600   101382.83     -150.2301      -36362648       0.73464751     301900.75     -36060747       935.31078      935.31078      935.31078      2032.3446      2967.6554      2032.3446      2967.6554      2032.3446      2967.6554      8.1821572e+08  0.1            13797760       4.400681       629.81912      6298.1888      11.543822    
  28732800   101170.68     -151.32344     -36363136       0.73464751     301269        -36061867       935.31078      935.31078      935.31078      2032.3446      2967.6554      2032.3446      2967.6554      2032.3446      2967.6554      8.1821572e+08  0.1            13797780       4.433335       612.48605      6124.8723      11.513919    
  28733000   101100.89     -152.45832     -36363607       0.73464751     301061.19     -36062546       935.31078      935.31078      935.31078      2032.3446      2967.6554      2032.3446      2967.6554      2032.3446      2967.6554      8.1821572e+08  0.1            13797800       4.4651424      628.78677      6287.8651      11.4818      
  28733200   101236.16     -153.51344     -36364063       0.73464751     301464.01     -36062599       935.31078      935.31078      935.31078      2032.3446      2967.6554      2032.3446      2967.6554      2032.3446      2967.6554      8.1821572e+08  0.1            13797820       4.497915       610.26254      6102.6183      11.452144    
  28733400   101623.43     -154.4377      -36364506       0.73464751     302617.23     -36061889       935.31078      935.31078      935.31078      2032.3446      2967.6554      2032.3446      2967.6554      2032.3446      2967.6554      8.1821572e+08  0.1            13797840       4.5297606      628.03257      6280.3326      11.420106    
  28733600   102291.2      -155.22302     -36364935       0.73464751     304605.72     -36060330       935.31078      935.31078      935.31078      2032.3446      2967.6554      2032.3446      2967.6554      2032.3446      2967.6554      8.1821572e+08  0.1            13797860       4.5617769      624.68172      6246.8231      11.388497    
  28733800   103247.12     -155.97386     -36365349       0.73464751     307452.28     -36057897       935.31078      935.31078      935.31078      2032.3446      2967.6554      2032.3446      2967.6554      2032.3446      2967.6554      8.1821572e+08  0.1            13797880       4.593581       628.84867      6288.4834      11.356359    
  28734000   104477.07     -156.72903     -36365749       0.73464751     311114.88     -36054634       935.31078      935.31078      935.31078      2032.3446      2967.6554      2032.3446      2967.6554      2032.3446      2967.6554      8.1821572e+08  0.1            13797900       4.6254086      628.38825      6283.8316      11.324282    
  28734200   105945.08     -157.427       -36366136       0.73464751     315486.34     -36050649       935.31078      935.31078      935.31078      2032.3446      2967.6554      2032.3446      2967.6554      2032.3446      2967.6554      8.1821572e+08  0.1            13797920       4.6572227      628.65036      6286.5433      11.292176    
  28734400   107595.31     -158.09616     -36366514       0.73464751     320400.45     -36046113       935.31078      935.31078      935.31078      2032.3446      2967.6554      2032.3446      2967.6554      2032.3446      2967.6554      8.1821572e+08  0.1            13797940       4.6890006      629.36829      6293.689       11.259986    
  28734600   109355.82     -158.64079     -36366884       0.73464751     325642.95     -36041241       935.31078      935.31078      935.31078      2032.3446      2967.6554      2032.3446      2967.6554      2032.3446      2967.6554      8.1821572e+08  0.1            13797960       4.7224656      597.63966      5976.3982      11.231815    
  28734800   111143.82     -158.9329      -36367242       0.73464751     330967.32     -36036275       935.31078      935.31078      935.31078      2032.3446      2967.6554      2032.3446      2967.6554      2032.3446      2967.6554      8.1821572e+08  0.1            13797980       4.7548967      616.68989      6166.9176      11.201138    
  28735000   112873.65     -159.12493     -36367580       0.73464751     336118.46     -36031462       935.31078      935.31078      935.31078      2032.3446      2967.6554      2032.3446      2967.6554      2032.3446      2967.6554      8.1821572e+08  0.1            13798000       4.7867147      628.57781      6285.7439      11.169006    
  28735200   114466.89     -159.6831      -36375277       0.73464751     340862.84     -36034414       935.31078      935.31078      935.31078      2032.3446      2967.6554      2032.3446      2967.6554      2032.3446      2967.6554      8.1821572e+08  0.1            13798020       4.8184751      629.71459      6297.1703      11.136745    
  28735400   115857.18     -160.33275     -36375582       0.73464751     345002.89     -36030579       935.31078      935.31078      935.31078      2032.3446      2967.6554      2032.3446      2967.6554      2032.3446      2967.6554      8.1821572e+08  0.1            13798040       4.8503315      627.81737      6278.155       11.104712    
  28735600   116992.54     -161.16932     -36375877       0.73464751     348383.81     -36027493       935.31078      935.31078      935.31078      2032.3446      2967.6554      2032.3446      2967.6554      2032.3446      2967.6554      8.1821572e+08  0.1            13798060       4.8820987      629.58033      6295.8168      11.072477    
  28735800   117838.76     -161.97102     -36376161       0.73464751     350903.72     -36025257       935.31078      935.31078      935.31078      2032.3446      2967.6554      2032.3446      2967.6554      2032.3446      2967.6554      8.1821572e+08  0.1            13798080       4.9138872      629.15989      6291.588       11.040297    
  28736000   118383.33     -162.53485     -36376060       0.73464751     352525.34     -36023535       935.31078      935.31078      935.31078      2032.3446      2967.6554      2032.3446      2967.6554      2032.3446      2967.6554      8.1821572e+08  0.1            13798100       4.9457597      627.50083      6275.0291      11.008308    
  28736200   118639.78     -162.84123     -36368931       0.73464751     353289        -36015642       935.31078      935.31078      935.31078      2032.3446      2967.6554      2032.3446      2967.6554      2032.3446      2967.6554      8.1821572e+08  0.1            13798120       4.9775293      629.53252      6295.3287      10.976095    
  28736400   118646.09     -163.51725     -36371054       0.73464751     353307.79     -36017746       935.31078      935.31078      935.31078      2032.3446      2967.6554      2032.3446      2967.6554      2032.3446      2967.6554      8.1821572e+08  0.1            13798140       5.0093437      628.64548      6286.4265      10.943985    
  28736600   118463.06     -164.33356     -36369370       0.73464751     352762.75     -36016607       935.31078      935.31078      935.31078      2032.3446      2967.6554      2032.3446      2967.6554      2032.3446      2967.6554      8.1821572e+08  0.1            13798160       5.0412192      627.43826      6274.4021      10.912011    
  28736800   118167.35     -165.17383     -36360295       0.73464751     351882.18     -36008412       935.31078      935.31078      935.31078      2032.3446      2967.6554      2032.3446      2967.6554      2032.3446      2967.6554      8.1821572e+08  0.1            13798180       5.073681       616.10523      6161.0216      10.881296    
  28737000   117843.22     -166.16141     -36360482       0.73464751     350917        -36009565       935.31078      935.31078      935.31078      2032.3446      2967.6554      2032.3446      2967.6554      2032.3446      2967.6554      8.1821572e+08  0.1            13798200       5.1054832      628.8915       6288.8915      10.849157    
  28737200   117574.56     -167.06048     -36368033       0.73464751     350116.97     -36017916       935.31078      935.31078      935.31078      2032.3446      2967.6554      2032.3446      2967.6554      2032.3446      2967.6554      8.1821572e+08  0.1            13798220       5.137256       629.47044      6294.7547      10.81696     
  28737400   117437.94     -167.57846     -36368189       0.73464751     349710.13     -36018479       935.31078      935.31078      935.31078      2032.3446      2967.6554      2032.3446      2967.6554      2032.3446      2967.6554      8.1821572e+08  0.1            13798240       5.1690028      629.98335      6299.8311      10.784714    
  28737600   117500.14     -168.17133     -36375703       0.73464751     349895.35     -36025807       935.31078      935.31078      935.31078      2032.3446      2967.6554      2032.3446      2967.6554      2032.3446      2967.6554      8.1821572e+08  0.1            13798260       5.2008305      628.3858       6283.8491      10.752642    
  28737800   117815.07     -168.66512     -36375823       0.73464751     350833.15     -36024990       935.31078      935.31078      935.31078      2032.3446      2967.6554      2032.3446      2967.6554      2032.3446      2967.6554      8.1821572e+08  0.1            13798280       5.2325901      629.7306       6297.2893      10.720433    
  28738000   118417.47     -169.12514     -36375930       0.73464751     352626.99     -36023303       935.31078      935.31078      935.31078      2032.3446      2967.6554      2032.3446      2967.6554      2032.3446      2967.6554      8.1821572e+08  0.1            13798300       5.2644763      627.23027      6272.3322      10.688486    
  28738200   119320.47     -169.43941     -36376024       0.73464751     355315.99     -36020708       935.31078      935.31078      935.31078      2032.3446      2967.6554      2032.3446      2967.6554      2032.3446      2967.6554      8.1821572e+08  0.1            13798320       5.2962083      630.27832      6302.7894      10.65623     
  28738400   120513.76     -169.65753     -36378001       0.73464751     358869.41     -36019132       935.31078      935.31078      935.31078      2032.3446      2967.6554      2032.3446      2967.6554      2032.3446      2967.6554      8.1821572e+08  0.1            13798340       5.3280106      628.88595      6288.8508      10.624121    
  28738600   121963.19     -169.75055     -36379967       0.73464751     363185.56     -36016781       935.31078      935.31078      935.31078      2032.3446      2967.6554      2032.3446      2967.6554      2032.3446      2967.6554      8.1821572e+08  0.1            13798360       5.3598532      628.09064      6280.9038      10.592095    
  28738800   123612.55     -169.65357     -36372648       0.73464751     368097.08     -36004551       935.31078      935.31078      935.31078      2032.3446      2967.6554      2032.3446      2967.6554      2032.3446      2967.6554      8.1821572e+08  0.1            13798380       5.3916024      629.93642      6299.366       10.559888    
  28739000   125388        -169.90162     -36372691       0.73464751     373384.05     -35999307       935.31078      935.31078      935.31078      2032.3446      2967.6554      2032.3446      2967.6554      2032.3446      2967.6554      8.1821572e+08  0.1            13798400       5.4234134      628.71243      6287.135       10.527807    
  28739200   127206.82     -170.20899     -36372719       0.73464751     378800.19     -35993919       935.31078      935.31078      935.31078      2032.3446      2967.6554      2032.3446      2967.6554      2032.3446      2967.6554      8.1821572e+08  0.1            13798420       5.4552372      628.46084      6284.6014      10.495753    
  28739400   128982.93     -170.40101     -36372731       0.73464751     384089.14     -35988642       935.31078      935.31078      935.31078      2032.3446      2967.6554      2032.3446      2967.6554      2032.3446      2967.6554      8.1821572e+08  0.1            13798440       5.487035       628.9735       6289.7227      10.463652    
  28739600   130634.52     -170.32622     -36365350       0.73464751     389007.3      -35976343       935.31078      935.31078      935.31078      2032.3446      2967.6554      2032.3446      2967.6554      2032.3446      2967.6554      8.1821572e+08  0.1            13798460       5.5197852      610.68294      6106.8337      10.433356    
  28739800   132090.15     -170.59422     -36372711       0.73464751     393341.9      -35979369       935.31078      935.31078      935.31078      2032.3446      2967.6554      2032.3446      2967.6554      2032.3446      2967.6554      8.1821572e+08  0.1            13798480       5.5516205      628.23448      6282.3535      10.401316    
  28740000   133292.02     -170.72757     -36372679       0.73464751     396920.86     -35975758       935.31078      935.31078      935.31078      2032.3446      2967.6554      2032.3446      2967.6554      2032.3446      2967.6554      8.1821572e+08  0.1            13798500       5.5834841      627.67421      6276.7253      10.369332    
  28740200   134201.49     -171.02332     -36374526       0.73464751     399629.11     -35974897       935.31078      935.31078      935.31078      2032.3446      2967.6554      2032.3446      2967.6554      2032.3446      2967.6554      8.1821572e+08  0.1            13798520       5.615242       629.76411      6297.6557      10.337154    
  28740400   134803.4      -171.33485     -36374461       0.73464751     401421.5      -35973040       935.31078      935.31078      935.31078      2032.3446      2967.6554      2032.3446      2967.6554      2032.3446      2967.6554      8.1821572e+08  0.1            13798540       5.6470952      627.87916      6278.7804      10.305155    
  28740600   135107.7      -171.6805      -36374383       0.73464751     402327.66     -35972055       935.31078      935.31078      935.31078      2032.3446      2967.6554      2032.3446      2967.6554      2032.3446      2967.6554      8.1821572e+08  0.1            13798560       5.6795155      616.89892      6168.9866      10.274184    
  28740800   135148.6      -171.93048     -36374290       0.73464751     402449.45     -35971841       935.31078      935.31078      935.31078      2032.3446      2967.6554      2032.3446      2967.6554      2032.3446      2967.6554      8.1821572e+08  0.1            13798580       5.7112859      629.51678      6295.1627      10.242031    
  28741000   134982.85     -172.01199     -36372290       0.73464751     401955.88     -35970334       935.31078      935.31078      935.31078      2032.3446      2967.6554      2032.3446      2967.6554      2032.3446      2967.6554      8.1821572e+08  0.1            13798600       5.7431252      628.1552       6281.568       10.210004    
  28741200   134684.23     -172.15139     -36372171       0.73464751     401066.65     -35971104       935.31078      935.31078      935.31078      2032.3446      2967.6554      2032.3446      2967.6554      2032.3446      2967.6554      8.1821572e+08  0.1            13798620       5.7749209      629.01641      6290.15        10.177903    
  28741400   134335.83     -172.45727     -36372036       0.73464751     400029.16     -35972007       935.31078      935.31078      935.31078      2032.3446      2967.6554      2032.3446      2967.6554      2032.3446      2967.6554      8.1821572e+08  0.1            13798640       5.8066646      630.0453       6300.4153      10.145715    
  28741600   134024.43     -172.92888     -36371887       0.73464751     399101.88     -35972785       935.31078      935.31078      935.31078      2032.3446      2967.6554      2032.3446      2967.6554      2032.3446      2967.6554      8.1821572e+08  0.1            13798660       5.8384153      629.90803      6299.1445      10.113543    
  28741800   133833.15     -173.39743     -36371726       0.73464751     398532.28     -35973194       935.31078      935.31078      935.31078      2032.3446      2967.6554      2032.3446      2967.6554      2032.3446      2967.6554      8.1821572e+08  0.1            13798680       5.8702005      629.22313      6292.2194      10.081435    
  28742000   133834.47     -173.77488     -36371556       0.73464751     398536.21     -35973019       935.31078      935.31078      935.31078      2032.3446      2967.6554      2032.3446      2967.6554      2032.3446      2967.6554      8.1821572e+08  0.1            13798700       5.902309       622.88732      6228.8703      10.049881    
  28742200   134086.48     -173.8168      -36363997       0.73464751     399286.63     -35964710       935.31078      935.31078      935.31078      2032.3446      2967.6554      2032.3446      2967.6554      2032.3446      2967.6554      8.1821572e+08  0.1            13798720       5.9340907      629.29248      6292.9086      10.01777     
  28742400   134627.15     -173.72753     -36363803       0.73464751     400896.68     -35962907       935.31078      935.31078      935.31078      2032.3446      2967.6554      2032.3446      2967.6554      2032.3446      2967.6554      8.1821572e+08  0.1            13798740       5.9659231      628.29103      6282.9298      9.9857468    
  28742600   135472.65     -173.42242     -36363593       0.73464751     403414.41     -35960179       935.31078      935.31078      935.31078      2032.3446      2967.6554      2032.3446      2967.6554      2032.3446      2967.6554      8.1821572e+08  0.1            13798760       5.9977066      629.25942      6292.5772      9.9536445    
  28742800   136616.87     -173.23102     -36363368       0.73464751     406821.71     -35956546       935.31078      935.31078      935.31078      2032.3446      2967.6554      2032.3446      2967.6554      2032.3446      2967.6554      8.1821572e+08  0.1            13798780       6.0295236      628.59493      6285.9699      9.9216005    
  28743000   138030.46     -173.28035     -36363133       0.73464751     411031.13     -35952102       935.31078      935.31078      935.31078      2032.3446      2967.6554      2032.3446      2967.6554      2032.3446      2967.6554      8.1821572e+08  0.1            13798800       6.0619944      615.93568      6159.3488      9.8906262    
  28743200   139661.1      -173.48102     -36370269       0.73464751     415886.89     -35954382       935.31078      935.31078      935.31078      2032.3446      2967.6554      2032.3446      2967.6554      2032.3446      2967.6554      8.1821572e+08  0.1            13798820       6.0937856      629.10495      6291.0517      9.8585364    
  28743400   141435.33     -173.37535     -36370015       0.73464751     421170.26     -35948845       935.31078      935.31078      935.31078      2032.3446      2967.6554      2032.3446      2967.6554      2032.3446      2967.6554      8.1821572e+08  0.1            13798840       6.1256483      627.69266      6276.9312      9.8265644    
  28743600   143269.48     -173.13822     -36362371       0.73464751     426632.05     -35935739       935.31078      935.31078      935.31078      2032.3446      2967.6554      2032.3446      2967.6554      2032.3446      2967.6554      8.1821572e+08  0.1            13798860       6.1574777      628.34963      6283.4721      9.7945409    
  28743800   145076.87     -172.98349     -36354715       0.73464751     432014.14     -35922701       935.31078      935.31078      935.31078      2032.3446      2967.6554      2032.3446      2967.6554      2032.3446      2967.6554      8.1821572e+08  0.1            13798880       6.1893367      627.76875      6277.7143      9.7625653    
  28744000   146772.55     -172.80186     -36354424       0.73464751     437063.59     -35917361       935.31078      935.31078      935.31078      2032.3446      2967.6554      2032.3446      2967.6554      2032.3446      2967.6554      8.1821572e+08  0.1            13798900       6.2211787      628.09569      6280.9458      9.7305655    
  28744200   148280.83     -172.44114     -36356012       0.73464751     441554.99     -35914457       935.31078      935.31078      935.31078      2032.3446      2967.6554      2032.3446      2967.6554      2032.3446      2967.6554      8.1821572e+08  0.1            13798920       6.2536682      615.58541      6155.8621      9.6995707    
  28744400   149541.22     -171.97919     -36355689       0.73464751     445308.21     -35910381       935.31078      935.31078      935.31078      2032.3446      2967.6554      2032.3446      2967.6554      2032.3446      2967.6554      8.1821572e+08  0.1            13798940       6.2854212      629.86472      6298.6145      9.6674281    
  28744600   150513.27     -171.85751     -36362734       0.73464751     448202.8      -35914531       935.31078      935.31078      935.31078      2032.3446      2967.6554      2032.3446      2967.6554      2032.3446      2967.6554      8.1821572e+08  0.1            13798960       6.3175729      622.04668      6220.4784      9.6358979    
  28744800   151177.56     -171.96873     -36364286       0.73464751     450180.96     -35914105       935.31078      935.31078      935.31078      2032.3446      2967.6554      2032.3446      2967.6554      2032.3446      2967.6554      8.1821572e+08  0.1            13798980       6.3494026      628.34726      6283.4734      9.6038739    
  28745000   151539.5      -172.29129     -36363936       0.73464751     451258.76     -35912677       935.31078      935.31078      935.31078      2032.3446      2967.6554      2032.3446      2967.6554      2032.3446      2967.6554      8.1821572e+08  0.1            13799000       6.381268       627.63708      6276.3763      9.5719057    
  28745200   151629.74     -172.81496     -36372855       0.73464751     451527.47     -35921327       935.31078      935.31078      935.31078      2032.3446      2967.6554      2032.3446      2967.6554      2032.3446      2967.6554      8.1821572e+08  0.1            13799020       6.4130293      629.69622      6296.9725      9.5397835    
  28745400   151498.86     -172.77561     -36372494       0.73464751     451137.74     -35921357       935.31078      935.31078      935.31078      2032.3446      2967.6554      2032.3446      2967.6554      2032.3446      2967.6554      8.1821572e+08  0.1            13799040       6.4449018      627.5052       6275.0512      9.5078286    
  28745600   151215.82     -172.39609     -36372122       0.73464751     450294.89     -35921827       935.31078      935.31078      935.31078      2032.3446      2967.6554      2032.3446      2967.6554      2032.3446      2967.6554      8.1821572e+08  0.1            13799060       6.476772       627.54532      6275.4656      9.4758715    
  28745800   150862.57     -171.93441     -36371737       0.73464751     449242.97     -35922494       935.31078      935.31078      935.31078      2032.3446      2967.6554      2032.3446      2967.6554      2032.3446      2967.6554      8.1821572e+08  0.1            13799080       6.5095954      609.32086      6093.2028      9.4452985    
  28746000   150526.96     -171.65726     -36365859       0.73464751     448243.6      -35917615       935.31078      935.31078      935.31078      2032.3446      2967.6554      2032.3446      2967.6554      2032.3446      2967.6554      8.1821572e+08  0.1            13799100       6.5414766      627.33018      6273.2998      9.4133474    
  28746200   150295.77     -171.68848     -36359976       0.73464751     447555.14     -35912421       935.31078      935.31078      935.31078      2032.3446      2967.6554      2032.3446      2967.6554      2032.3446      2967.6554      8.1821572e+08  0.1            13799120       6.5733057      628.35595      6283.5664      9.3813228    
  28746400   150244.95     -171.94295     -36359573       0.73464751     447403.81     -35912169       935.31078      935.31078      935.31078      2032.3446      2967.6554      2032.3446      2967.6554      2032.3446      2967.6554      8.1821572e+08  0.1            13799140       6.6051199      628.64895      6286.4305      9.3492795    
  28746600   150435.9      -171.97855     -36359164       0.73464751     447972.42     -35911191       935.31078      935.31078      935.31078      2032.3446      2967.6554      2032.3446      2967.6554      2032.3446      2967.6554      8.1821572e+08  0.1            13799160       6.6371065      625.26159      6252.6765      9.3174795    
  28746800   150911.1      -171.74136     -36358744       0.73464751     449387.48     -35909357       935.31078      935.31078      935.31078      2032.3446      2967.6554      2032.3446      2967.6554      2032.3446      2967.6554      8.1821572e+08  0.1            13799180       6.6689964      627.15884      6271.5603      9.2855436    
  28747000   151692.33     -171.49146     -36358313       0.73464751     451713.86     -35906599       935.31078      935.31078      935.31078      2032.3446      2967.6554      2032.3446      2967.6554      2032.3446      2967.6554      8.1821572e+08  0.1            13799200       6.7008774      627.33411      6273.361       9.2535955    
  28747200   152781.15     -171.2497      -36365257       0.73464751     454956.18     -35910301       935.31078      935.31078      935.31078      2032.3446      2967.6554      2032.3446      2967.6554      2032.3446      2967.6554      8.1821572e+08  0.1            13799220       6.7327654      627.19412      6271.9432      9.2216579    
  28747400   154150.45     -170.46218     -36364820       0.73464751     459033.72     -35905786       935.31078      935.31078      935.31078      2032.3446      2967.6554      2032.3446      2967.6554      2032.3446      2967.6554      8.1821572e+08  0.1            13799240       6.7646266      627.72334      6277.2271      9.1896843    
  28747600   155747.42     -169.53228     -36364371       0.73464751     463789.22     -35900582       935.31078      935.31078      935.31078      2032.3446      2967.6554      2032.3446      2967.6554      2032.3446      2967.6554      8.1821572e+08  0.1            13799260       6.7972209      613.60209      6136.023       9.1586999    
  28747800   157502.2      -168.77513     -36363911       0.73464751     469014.66     -35894896       935.31078      935.31078      935.31078      2032.3446      2967.6554      2032.3446      2967.6554      2032.3446      2967.6554      8.1821572e+08  0.1            13799280       6.8290861      627.6456       6276.4336      9.1267256    
  28748000   159332.66     -168.22441     -36363439       0.73464751     474465.44     -35888974       935.31078      935.31078      935.31078      2032.3446      2967.6554      2032.3446      2967.6554      2032.3446      2967.6554      8.1821572e+08  0.1            13799300       6.8610245      626.20531      6262.0613      9.0948494    
  28748200   161154.33     -167.76458     -36361068       0.73464751     479890.07     -35881178       935.31078      935.31078      935.31078      2032.3446      2967.6554      2032.3446      2967.6554      2032.3446      2967.6554      8.1821572e+08  0.1            13799320       6.8929672      626.12097      6261.2399      9.0629781    
  28748400   162881.71     -167.34475     -36362481       0.73464751     485033.91     -35877447       935.31078      935.31078      935.31078      2032.3446      2967.6554      2032.3446      2967.6554      2032.3446      2967.6554      8.1821572e+08  0.1            13799340       6.9248053      628.17712      6281.7446      9.0309703    
  28748600   164435.41     -166.72744     -36361989       0.73464751     489660.57     -35872329       935.31078      935.31078      935.31078      2032.3446      2967.6554      2032.3446      2967.6554      2032.3446      2967.6554      8.1821572e+08  0.1            13799360       6.9566725      627.60306      6276.0501      8.9990012    
  28748800   165750.86     -166.07978     -36359589       0.73464751     493577.76     -35866012       935.31078      935.31078      935.31078      2032.3446      2967.6554      2032.3446      2967.6554      2032.3446      2967.6554      8.1821572e+08  0.1            13799380       6.9884886      628.61062      6286.1159      8.9669678    
  28749000   166782.56     -165.39628     -36353590       0.73464751     496649.99     -35856940       935.31078      935.31078      935.31078      2032.3446      2967.6554      2032.3446      2967.6554      2032.3446      2967.6554      8.1821572e+08  0.1            13799400       7.0203495      627.73469      6277.3303      8.9349929    
  28749200   167507.81     -165.12071     -36360440       0.73464751     498809.66     -35861630       935.31078      935.31078      935.31078      2032.3446      2967.6554      2032.3446      2967.6554      2032.3446      2967.6554      8.1821572e+08  0.1            13799420       7.052236       627.22357      6272.2329      8.9030517    
  28749400   167928.67     -165.17542     -36367287       0.73464751     500062.9      -35867224       935.31078      935.31078      935.31078      2032.3446      2967.6554      2032.3446      2967.6554      2032.3446      2967.6554      8.1821572e+08  0.1            13799440       7.0841049      627.56767      6275.663       8.8710894    
  28749600   168068.73     -165.06289     -36366751       0.73464751     500479.99     -35866271       935.31078      935.31078      935.31078      2032.3446      2967.6554      2032.3446      2967.6554      2032.3446      2967.6554      8.1821572e+08  0.1            13799460       7.1159468      628.10634      6281.0884      8.8390935    
  28749800   167974.04     -164.88433     -36366205       0.73464751     500198        -35866007       935.31078      935.31078      935.31078      2032.3446      2967.6554      2032.3446      2967.6554      2032.3446      2967.6554      8.1821572e+08  0.1            13799480       7.1477864      628.14966      6281.4915      8.8070968    
[...]
  29394400   309.87873      1.3152702     -36426652       0.77404674     922.76594     -36425729       919.16444      919.16444      919.16444      2040.4178      2959.5822      2040.4178      2959.5822      2040.4178      2959.5822      7.7656828e+08  0.1            13863940       55.082892      527.39798      5273.9804      2.017549     
  29394600   309.87071      0.72027822    -36426774       0.77403158     922.74207     -36425851       919.17044      919.17044      919.17044      2040.4148      2959.5852      2040.4148      2959.5852      2040.4148      2959.5852      7.7658349e+08  0.1            13863960       55.120852      526.87157      5268.6999      1.9794782    
  29394800   309.86852      1.2312628     -36426895       0.77405778     922.73555     -36425972       919.16007      919.16007      919.16007      2040.42        2959.58        2040.42        2959.58        2040.42        2959.58        7.765572e+08   0.1            13863980       55.158859      526.21879      5262.2041      1.9414092    
  29395000   309.82886      0.83422951    -36427016       0.77405        922.61744     -36426094       919.16315      919.16315      919.16315      2040.4184      2959.5816      2040.4184      2959.5816      2040.4184      2959.5816      7.7656501e+08  0.1            13864000       55.19682       526.85689      5268.5651      1.9033387    
  29395200   309.84605      1.0760413     -36427137       0.77406609     922.66864     -36426215       919.15678      919.15678      919.15678      2040.4216      2959.5784      2040.4216      2959.5784      2040.4216      2959.5784      7.7654887e+08  0.1            13864020       55.234783      526.83091      5268.316       1.8652684    
  29395400   309.85527      1.0449938     -36427258       0.77407196     922.69609     -36426336       919.15446      919.15446      919.15446      2040.4228      2959.5772      2040.4228      2959.5772      2040.4228      2959.5772      7.7654298e+08  0.1            13864040       55.272687      527.6519       5276.5048      1.8271963    
  29395600   309.85096      0.79130397    -36427380       0.77406948     922.68324     -36426457       919.15544      919.15544      919.15544      2040.4223      2959.5777      2040.4223      2959.5777      2040.4223      2959.5777      7.7654547e+08  0.1            13864060       55.310597      527.56469      5275.6595      1.7891247    
  29395800   309.84922      1.424846      -36427500       0.77410017     922.67807     -36426578       919.1433       919.1433       919.1433       2040.4284      2959.5716      2040.4284      2959.5716      2040.4284      2959.5716      7.7651468e+08  0.1            13864080       55.348551      526.94888      5269.4834      1.7510546    
  29396000   309.8033       0.29333624    -36427622       0.7740648      922.54132     -36426699       919.1573       919.1573       919.1573       2040.4214      2959.5786      2040.4214      2959.5786      2040.4214      2959.5786      7.7655016e+08  0.1            13864100       55.386554      526.27456      5262.7437      1.7129863    
  29396200   309.83434      2.0556749     -36427742       0.77413768     922.63375     -36426819       919.12845      919.12845      919.12845      2040.4358      2959.5642      2040.4358      2959.5642      2040.4358      2959.5642      7.7647706e+08  0.1            13864120       55.424487      527.23851      5272.3835      1.6749159    
  29396400   309.81924     -0.46435611    -36427864       0.7740503      922.58878     -36426941       919.16304      919.16304      919.16304      2040.4185      2959.5815      2040.4185      2959.5815      2040.4185      2959.5815      7.7656471e+08  0.1            13864140       55.46337       514.37345      5143.7323      1.6368737    
  29396600   309.84959      2.8870227     -36427982       0.77418257     922.67917     -36427060       919.11068      919.11068      919.11068      2040.4447      2959.5553      2040.4447      2959.5553      2040.4447      2959.5553      7.7643203e+08  0.1            13864160       55.501264      527.78732      5277.8832      1.5988019    
  29396800   309.80105     -1.2568012     -36428105       0.77403438     922.53464     -36427182       919.16934      919.16934      919.16934      2040.4153      2959.5847      2040.4153      2959.5847      2040.4153      2959.5847      7.7658068e+08  0.1            13864180       55.539264      526.31709      5263.1697      1.5607333    
  29397000   309.81294      3.4935394     -36428223       0.77421893     922.57003     -36427300       919.0963       919.0963       919.0963       2040.4519      2959.5481      2040.4519      2959.5481      2040.4519      2959.5481      7.7639557e+08  0.1            13864200       55.577272      526.19701      5261.9715      1.5226651    
  29397200   309.77659     -1.55465       -36428346       0.77403686     922.4618      -36427424       919.16835      919.16835      919.16835      2040.4158      2959.5842      2040.4158      2959.5842      2040.4158      2959.5842      7.7657819e+08  0.1            13864220       55.615217      527.07544      5270.7537      1.4845952    
  29397400   309.83518      3.4553279     -36428464       0.77423107     922.63626     -36427542       919.09149      919.09149      919.09149      2040.4543      2959.5457      2040.4543      2959.5457      2040.4543      2959.5457      7.7638339e+08  0.1            13864240       55.653209      526.43267      5264.3298      1.4465267    
  29397600   309.78592     -1.2405321     -36428588       0.77406215     922.48956     -36427665       919.15834      919.15834      919.15834      2040.4208      2959.5792      2040.4208      2959.5792      2040.4208      2959.5792      7.7655282e+08  0.1            13864260       55.69116       526.99052      5269.887       1.4084573    
  29397800   309.81978      2.9754748     -36428706       0.77422661     922.59039     -36427784       919.09326      919.09326      919.09326      2040.4534      2959.5466      2040.4534      2959.5466      2040.4534      2959.5466      7.7638787e+08  0.1            13864280       55.729076      527.48756      5274.892       1.3703872    
  29398000   309.74854     -0.69878826    -36428829       0.77409586     922.37826     -36427906       919.145        919.145        919.145        2040.4275      2959.5725      2040.4275      2959.5725      2040.4275      2959.5725      7.7651901e+08  0.1            13864300       55.767055      526.60729      5266.0754      1.3323188    
  29398200   309.79299      2.4433931     -36428948       0.77422009     922.51063     -36428025       919.09584      919.09584      919.09584      2040.4521      2959.5479      2040.4521      2959.5479      2040.4521      2959.5479      7.763944e+08   0.1            13864320       55.805014      526.8876       5268.8728      1.29425      
  29398400   309.77518     -0.21742682    -36429070       0.7741272      922.4576      -36428147       919.1326       919.1326       919.1326       2040.4337      2959.5663      2040.4337      2959.5663      2040.4337      2959.5663      7.7648757e+08  0.1            13864340       55.842923      527.57432      5275.7337      1.2561803    
  29398600   309.7948       2.027794      -36429189       0.77421784     922.516       -36428267       919.09673      919.09673      919.09673      2040.4516      2959.5484      2040.4516      2959.5484      2040.4516      2959.5484      7.7639666e+08  0.1            13864360       55.880871      527.03241      5270.34        1.2181117    
  29398800   309.76772      0.12887724    -36429310       0.77415339     922.43539     -36428388       919.12223      919.12223      919.12223      2040.4389      2959.5611      2040.4389      2959.5611      2040.4389      2959.5611      7.7646129e+08  0.1            13864380       55.918846      526.67304      5266.725       1.1800438    
  29399000   309.74951      1.7460655     -36429430       0.77422051     922.38115     -36428507       919.09567      919.09567      919.09567      2040.4522      2959.5478      2040.4522      2959.5478      2040.4522      2959.5478      7.7639399e+08  0.1            13864400       55.956876      525.89301      5258.9292      1.1419771    
  29399200   309.74855      0.351951      -36429551       0.77417491     922.37828     -36428628       919.11371      919.11371      919.11371      2040.4431      2959.5569      2040.4431      2959.5569      2040.4431      2959.5569      7.7643971e+08  0.1            13864420       55.994917      525.74758      5257.4483      1.1039107    
  29399400   309.76956      1.5740186     -36429670       0.77422722     922.44084     -36428748       919.09301      919.09301      919.09301      2040.4535      2959.5465      2040.4535      2959.5465      2040.4535      2959.5465      7.7638725e+08  0.1            13864440       56.032849      527.26463      5272.6677      1.0658423    
  29399600   309.75585      0.47968536    -36429791       0.77419281     922.40002     -36428868       919.10663      919.10663      919.10663      2040.4467      2959.5533      2040.4467      2959.5533      2040.4467      2959.5533      7.7642176e+08  0.1            13864460       56.070781      527.25409      5272.5486      1.027774     
  29399800   309.75806      1.4842978     -36429910       0.77423698     922.40661     -36428988       919.08915      919.08915      919.08915      2040.4554      2959.5446      2040.4554      2959.5446      2040.4554      2959.5446      7.7637746e+08  0.1            13864480       56.108668      527.88845      5278.8778      0.98970518   
  29400000   309.71449      0.53657491    -36430030       0.77420804     922.27687     -36429108       919.1006       919.1006       919.1006       2040.4497      2959.5503      2040.4497      2959.5503      2040.4497      2959.5503      7.7640648e+08  0.1            13864500       56.146733      525.4196       5254.1897      0.95163958   
  29400200   309.73696      1.4553668     -36430150       0.77424901     922.34377     -36429227       919.08439      919.08439      919.08439      2040.4578      2959.5422      2040.4578      2959.5422      2040.4578      2959.5422      7.763654e+08   0.1            13864520       56.184671      527.16854      5271.6855      0.91357193   
  29400400   309.73683      0.54239387    -36430270       0.77422135     922.3434      -36429348       919.09534      919.09534      919.09534      2040.4523      2959.5477      2040.4523      2959.5477      2040.4523      2959.5477      7.7639314e+08  0.1            13864540       56.222554      527.94446      5279.4543      0.87550359   
  29400600   309.7437       1.4668244     -36430389       0.77426256     922.36386     -36429467       919.07903      919.07903      919.07903      2040.4605      2959.5395      2040.4605      2959.5395      2040.4605      2959.5395      7.7635182e+08  0.1            13864560       56.260433      528.00346      5280.0382      0.83743543   
  29400800   309.72673      0.52223655    -36430509       0.77423371     922.31332     -36429587       919.09045      919.09045      919.09045      2040.4548      2959.5452      2040.4548      2959.5452      2040.4548      2959.5452      7.7638074e+08  0.1            13864580       56.29834       527.60221      5276.014       0.79936795   
  29401000   309.70266      1.4822449     -36430628       0.77427629     922.24165     -36429706       919.0736       919.0736       919.0736       2040.4632      2959.5368      2040.4632      2959.5368      2040.4632      2959.5368      7.7633805e+08  0.1            13864600       56.336301      526.86145      5268.6173      0.76130139   
  29401200   309.7069       0.53233566    -36430748       0.77424724     922.25426     -36429826       919.08509      919.08509      919.08509      2040.4575      2959.5425      2040.4575      2959.5425      2040.4575      2959.5425      7.7636718e+08  0.1            13864620       56.374251      527.00961      5270.1128      0.72323485   
  29401400   309.7252       1.4158522     -36430868       0.774287       922.30877     -36429945       919.06936      919.06936      919.06936      2040.4653      2959.5347      2040.4653      2959.5347      2040.4653      2959.5347      7.7632732e+08  0.1            13864640       56.41217       527.43535      5274.3318      0.68516809   
  29401600   309.71617      0.69683186    -36430987       0.77426663     922.28185     -36430065       919.07742      919.07742      919.07742      2040.4613      2959.5387      2040.4613      2959.5387      2040.4613      2959.5387      7.7634774e+08  0.1            13864660       56.452033      501.7108       5017.1075      0.64712381   
  29401800   309.71301      1.1029358     -36431107       0.77428851     922.27247     -36430184       919.06876      919.06876      919.06876      2040.4656      2959.5344      2040.4656      2959.5344      2040.4656      2959.5344      7.7632579e+08  0.1            13864680       56.489954      527.42332      5274.2398      0.60905613   
  29402000   309.6809       1.2009552     -36431226       0.77429886     922.17683     -36430304       919.06467      919.06467      919.06467      2040.4677      2959.5323      2040.4677      2959.5323      2040.4677      2959.5323      7.7631542e+08  0.1            13864700       56.527877      527.37823      5273.7842      0.57098868   
  29402200   309.68704      0.40429067    -36431345       0.77427559     922.19511     -36430423       919.07387      919.07387      919.07387      2040.4631      2959.5369      2040.4631      2959.5369      2040.4631      2959.5369      7.7633875e+08  0.1            13864720       56.565851      526.6726       5266.6903      0.53292191   
  29402400   309.71337      2.0033341     -36431464       0.7743424      922.27354     -36430542       919.04744      919.04744      919.04744      2040.4763      2959.5237      2040.4763      2959.5237      2040.4763      2959.5237      7.7627177e+08  0.1            13864740       56.603778      527.33082      5273.3464      0.49485484   
  29402600   309.68925     -0.25529517    -36431584       0.77426418     922.20169     -36430662       919.07839      919.07839      919.07839      2040.4608      2959.5392      2040.4608      2959.5392      2040.4608      2959.5392      7.7635019e+08  0.1            13864760       56.641651      528.08136      5280.8174      0.45678753   
  29402800   309.70621      2.1073205     -36431702       0.7743598      922.25221     -36430780       919.04056      919.04056      919.04056      2040.4797      2959.5203      2040.4797      2959.5203      2040.4797      2959.5203      7.7625432e+08  0.1            13864780       56.679574      527.38802      5273.8775      0.41872085   
  29403000   309.65903      0.6582631     -36431822       0.77431207     922.1117      -36430900       919.05944      919.05944      919.05944      2040.4703      2959.5297      2040.4703      2959.5297      2040.4703      2959.5297      7.7630218e+08  0.1            13864800       56.71893       508.18605      5081.8662      0.38066397   
  29403200   309.66675     -0.0060749657  -36431941       0.77429383     922.13471     -36431019       919.06666      919.06666      919.06666      2040.4667      2959.5333      2040.4667      2959.5333      2040.4667      2959.5333      7.7632047e+08  0.1            13864820       56.756934      526.2497       5262.4873      0.3425972    
  29403400   309.71198      3.3969077     -36432058       0.77442867     922.26939     -36431135       919.01331      919.01331      919.01331      2040.4933      2959.5067      2040.4933      2959.5067      2040.4933      2959.5067      7.7618529e+08  0.1            13864840       56.794799      528.19328      5281.9329      0.30452977   
  29403600   309.65817     -1.8439372     -36432178       0.7742381      922.10916     -36431256       919.08871      919.08871      919.08871      2040.4556      2959.5444      2040.4556      2959.5444      2040.4556      2959.5444      7.7637634e+08  0.1            13864860       56.832727      527.31419      5273.137       0.2664629    
  29403800   309.69588      2.5894627     -36432297       0.77441197     922.22144     -36431375       919.01992      919.01992      919.01992      2040.49        2959.51        2040.49        2959.51        2040.49        2959.51        7.7620203e+08  0.1            13864880       56.87069       526.83107      5268.311       0.22839636   
  29404000   309.65712      1.9358945     -36432417       0.77439421     922.10604     -36431494       919.02695      919.02695      919.02695      2040.4865      2959.5135      2040.4865      2959.5135      2040.4865      2959.5135      7.7621983e+08  0.1            13864900       56.908643      526.96557      5269.6523      0.19032992   
  29404200   309.63175     -2.0288164     -36432535       0.77425156     922.03048     -36431613       919.08339      919.08339      919.08339      2040.4583      2959.5417      2040.4583      2959.5417      2040.4583      2959.5417      7.7636285e+08  0.1            13864920       56.946536      527.80818      5278.096       0.15226347   
  29404400   309.70501      4.1615613     -36432651       0.77449159     922.24863     -36431729       918.98843      918.98843      918.98843      2040.5058      2959.4942      2040.5058      2959.4942      2040.5058      2959.4942      7.7612224e+08  0.1            13864940       56.984384      528.42318      5284.2278      0.11419717   
  29404600   309.65815     -0.44337966    -36432774       0.77432506     922.10908     -36431852       919.0543       919.0543       919.0543       2040.4728      2959.5272      2040.4728      2959.5272      2040.4728      2959.5272      7.7628915e+08  0.1            13864960       57.022413      525.92461      5259.2363      0.076131396  
  29404800   309.6589       0.32874771    -36432893       0.77436101     922.11133     -36431971       919.04008      919.04008      919.04008      2040.48        2959.52        2040.48        2959.52        2040.48        2959.52        7.7625312e+08  0.1            13864980       57.060294      527.95885      5279.5986      0.038065575  
  29405000   309.65138      2.8358715     -36433010       0.77446224     922.08894     -36432088       919.00004      919.00004      919.00004      2040.5         2959.5         2040.5         2959.5         2040.5         2959.5         7.7615165e+08  0.1            13865000       57.098195      527.70063      5277.0046      0            
Loop time of 57.0982 on 1 procs for 300000 steps with 1000 atoms

Performance: 45.395 ns/day, 0.529 hours/ns, 5254.105 timesteps/s
99.7% CPU use with 1 MPI tasks x 1 OpenMP threads

MPI task timing breakdown:
Section |  min time  |  avg time  |  max time  |%varavg| %total
---------------------------------------------------------------
Pair    | 42.241     | 42.241     | 42.241     |   0.0 | 73.98
Neigh   | 0.026002   | 0.026002   | 0.026002   |   0.0 |  0.05
Comm    | 1.7724     | 1.7724     | 1.7724     |   0.0 |  3.10
Output  | 0.051932   | 0.051932   | 0.051932   |   0.0 |  0.09
Modify  | 11.556     | 11.556     | 11.556     |   0.0 | 20.24
Other   |            | 1.451      |            |       |  2.54

Nlocal:           1000 ave        1000 max        1000 min
Histogram: 1 0 0 0 0 0 0 0 0 0
Nghost:           1165 ave        1165 max        1165 min
Histogram: 1 0 0 0 0 0 0 0 0 0
Neighs:           4922 ave        4922 max        4922 min
Histogram: 1 0 0 0 0 0 0 0 0 0

Total # of neighbors = 4922
Ave neighs/atom = 4.922
Neighbor list builds = 42
Dangerous builds = 20

# run_style
run_style verlet

# write restart
write_restart ${write_res}
write_restart ./pgnpmf/37/equpmf42.res
System init for write_restart ...
Generated 0 of 1 mixed pair_coeff terms from geometric mixing rule

Total wall time: 0:02:02
