LAMMPS (23 Jun 2022 - Update 1)
OMP_NUM_THREADS environment is not set. Defaulting to 1 thread. (src/comm.cpp:98)
  using 1 OpenMP thread(s) per MPI task
# Read restart
read_restart ${read_res}
read_restart ./pgnpmf/37/equpmf82.res
Reading restart file ...
  restart file = 23 Jun 2022, LAMMPS = 23 Jun 2022
  restoring atom style atomic from restart
  orthogonal box = (2147.393 2147.393 2147.393) to (2852.607 2852.607 2852.607)
  1 by 1 by 1 MPI processor grid
  restoring pair style table from restart
  1000 atoms
  read_restart CPU = 0.003 seconds

# Settings

pair_style table spline 9941

pair_coeff 1 1 ./pgnpmf/N20.txt DE_GNP 75.6
pair_coeff 2 2 ./pgnpmf/N100.txt DE_GNP 115.92
WARNING: 3 of 9941 force values in table DE_GNP are inconsistent with -dE/dr.
WARNING:  Should only be flagged at inflection points (src/pair_table.cpp:463)
pair_coeff 1 2 ./pgnpmf/mixed_potential.txt DE_GNP 95.66
WARNING: 1562 of 9941 force values in table DE_GNP are inconsistent with -dE/dr.
WARNING:  Should only be flagged at inflection points (src/pair_table.cpp:463)

#Neigh_list Calc Frequency

neigh_modify delay 0 every 1 check yes

# Saving Frequency (50 frames)

variable ts_save equal ${steps_equ}
variable ts_save equal 5000

# Dump
#dump 1 all custom ${ts_save} ./pgnpmf/${folder}/equilibration/trajectory/trajectory_${usic}_${trial}.equ.custom type x y z ix iy iz
#dump_modify 1 first no sort id
#dump 2 all cfg 50000 ./equilibration/trajectory/ovito/dumpgen.tens_*.cfg mass type xs ys zs fx fy fz

# thermo_style
thermo_style custom step temp press pe density ke etotal lx ly lz xlo xhi ylo yhi zlo zhi vol dt time cpu tpcpu spcpu cpuremain

# run info
timestep ${ts}
timestep 0.1
thermo 200

# fix

fix 1 all momentum 1000 linear 1 1 1 angular
variable T equal ${temp}
variable T equal 300
fix 2 all nvt temp ${T} 370000 100.0
fix 2 all nvt temp 300 370000 100.0

run 100000
Generated 0 of 1 mixed pair_coeff terms from geometric mixing rule
Unused restart file global fix info:
  fix style: npt, fix ID: 5
Neighbor list info ...
  update every 1 steps, delay 0 steps, check yes
  max neighbors/atom: 2000, page size: 100000
  master list distance cutoff = 117.92
  ghost atom cutoff = 117.92
  binsize = 58.96, bins = 12 12 12
  1 neighbor lists, perpetual/occasional/extra = 1 0 0
  (1) pair table, perpetual
      attributes: half, newton on
      pair build: half/bin/atomonly/newton
      stencil: half/bin/3d
      bin: standard
Per MPI rank memory allocation (min/avg/max) = 3.111 | 3.111 | 3.111 Mbytes
   Step          Temp          Press          PotEng        Density         KinEng         TotEng           Lx             Ly             Lz            Xlo            Xhi            Ylo            Yhi            Zlo            Zhi           Volume           Dt            Time           CPU           T/CPU          S/CPU         CPULeft    
  57405000   305.6742       1.611317      -44109940       1.713894       910.24556     -44109030       705.21406      705.21406      705.21406      2147.393       2852.607       2147.393       2852.607       2147.393       2852.607       3.507219e+08   0.1            16665000       0              0              0              0            
  57405200   334.35059      1.4340709     -44110011       1.713894       995.63897     -44109015       705.21406      705.21406      705.21406      2147.393       2852.607       2147.393       2852.607       2147.393       2852.607       3.507219e+08   0.1            16665020       0.041340413    483.77935      4837.6843      20.630138    
  57405400   376.74262      1.2498127     -44110086       1.713894       1121.8752     -44108964       705.21406      705.21406      705.21406      2147.393       2852.607       2147.393       2852.607       2147.393       2852.607       3.507219e+08   0.1            16665040       0.08266424     483.98272      4839.8277      20.58401     
  57405600   422.73496      1.0528605     -44110166       1.713894       1258.8325     -44108907       705.21406      705.21406      705.21406      2147.393       2852.607       2147.393       2852.607       2147.393       2852.607       3.507219e+08   0.1            16665060       0.12400224     483.81201      4838.1195      20.543494    
  57405800   478.47766      0.84462468    -44110250       1.713894       1424.8248     -44108825       705.21406      705.21406      705.21406      2147.393       2852.607       2147.393       2852.607       2147.393       2852.607       3.507219e+08   0.1            16665080       0.16534089     483.81358      4838.1372      20.502559    
  57406000   543.54724      1.0064936     -44102962       1.713894       1618.5909     -44101343       705.21406      705.21406      705.21406      2147.393       2852.607       2147.393       2852.607       2147.393       2852.607       3.507219e+08   0.1            16665100       0.20675601     482.91615      4829.1616      20.46907     
  57406200   618.30206      0.77134366    -44103058       1.713894       1841.198      -44101216       705.21406      705.21406      705.21406      2147.393       2852.607       2147.393       2852.607       2147.393       2852.607       3.507219e+08   0.1            16665120       0.24942115     468.76708      4687.673       20.535864    
  57406400   703.7793       0.5208533     -44103160       1.713894       2095.7346     -44101064       705.21406      705.21406      705.21406      2147.393       2852.607       2147.393       2852.607       2147.393       2852.607       3.507219e+08   0.1            16665140       0.29110506     479.80029      4798.0086      20.50228     
  57406600   801.16101      0.25414455    -44103268       1.713894       2385.7207     -44100883       705.21406      705.21406      705.21406      2147.393       2852.607       2147.393       2852.607       2147.393       2852.607       3.507219e+08   0.1            16665160       0.33252636     482.84541      4828.4559      20.4505      
  57406800   911.8294      -0.029552608   -44103384       1.713894       2715.2723     -44100669       705.21406      705.21406      705.21406      2147.393       2852.607       2147.393       2852.607       2147.393       2852.607       3.507219e+08   0.1            16665180       0.37483736     472.68993      4726.8843      20.449589    
  57407000   1037.254      -0.33085262    -44103508       1.713894       3088.7651     -44100419       705.21406      705.21406      705.21406      2147.393       2852.607       2147.393       2852.607       2147.393       2852.607       3.507219e+08   0.1            16665200       0.41618778     483.67052      4836.7162      20.393309    
  57407200   1179.3673     -0.649535      -44103640       1.713894       3511.9545     -44100128       705.21406      705.21406      705.21406      2147.393       2852.607       2147.393       2852.607       2147.393       2852.607       3.507219e+08   0.1            16665220       0.457512       483.97754      4839.7769      20.338587    
  57407400   1340.0947     -0.98683638    -44103780       1.713894       3990.5733     -44099790       705.21406      705.21406      705.21406      2147.393       2852.607       2147.393       2852.607       2147.393       2852.607       3.507219e+08   0.1            16665240       0.49878473     484.58172      4845.8189      20.284001    
  57407600   1521.6503     -1.3429462     -44103930       1.713894       4531.2147     -44099399       705.21406      705.21406      705.21406      2147.393       2852.607       2147.393       2852.607       2147.393       2852.607       3.507219e+08   0.1            16665260       0.54111547     472.47033      4724.6931      20.271102    
  57407800   1726.4931     -1.7178232     -44104089       1.713894       5141.2018     -44098948       705.21406      705.21406      705.21406      2147.393       2852.607       2147.393       2852.607       2147.393       2852.607       3.507219e+08   0.1            16665280       0.58247681     483.543        4835.4391      20.220341    
  57408000   1957.242      -2.111215      -44104258       1.713894       5828.3326     -44098430       705.21406      705.21406      705.21406      2147.393       2852.607       2147.393       2852.607       2147.393       2852.607       3.507219e+08   0.1            16665300       0.62379918     483.99915      4839.9911      20.169578    
  57408200   2217.0538     -2.5214776     -44104438       1.713894       6602.0075     -44097836       705.21406      705.21406      705.21406      2147.393       2852.607       2147.393       2852.607       2147.393       2852.607       3.507219e+08   0.1            16665320       0.66640421     469.42674      4694.2585      20.158803    
  57408400   2509.1612     -2.9470107     -44104630       1.713894       7471.8536     -44097158       705.21406      705.21406      705.21406      2147.393       2852.607       2147.393       2852.607       2147.393       2852.607       3.507219e+08   0.1            16665340       0.70775591     483.65688      4836.5604      20.108663    
  57408600   2837.1617     -3.384401      -44104833       1.713894       8448.583      -44096384       705.21406      705.21406      705.21406      2147.393       2852.607       2147.393       2852.607       2147.393       2852.607       3.507219e+08   0.1            16665360       0.74905629     484.25785      4842.5959      20.058121    
  57408800   3204.9657     -3.8289054     -44105049       1.713894       9543.8405     -44095505       705.21406      705.21406      705.21406      2147.393       2852.607       2147.393       2852.607       2147.393       2852.607       3.507219e+08   0.1            16665380       0.79043203     483.37483      4833.7536      20.010467    
  57409000   3616.6997     -4.2735792     -44105278       1.713894       10769.914     -44094508       705.21406      705.21406      705.21406      2147.393       2852.607       2147.393       2852.607       2147.393       2852.607       3.507219e+08   0.1            16665400       0.83184434     482.94859      4829.4721      19.964319    
  57409200   4077.0477     -4.7113713     -44105521       1.713894       12140.752     -44093380       705.21406      705.21406      705.21406      2147.393       2852.607       2147.393       2852.607       2147.393       2852.607       3.507219e+08   0.1            16665420       0.8735647      479.38038      4793.8034      19.925651    
  57409400   4590.777      -5.1364627     -44105778       1.713894       13670.55      -44092108       705.21406      705.21406      705.21406      2147.393       2852.607       2147.393       2852.607       2147.393       2852.607       3.507219e+08   0.1            16665440       0.91491345     483.69077      4836.919       19.878624    
  57409600   5162.9996     -5.3198719     -44100568       1.713894       15374.531     -44085193       705.21406      705.21406      705.21406      2147.393       2852.607       2147.393       2852.607       2147.393       2852.607       3.507219e+08   0.1            16665460       0.9562549      483.77697      4837.7585      19.831945    
  57409800   5799.0315     -5.7003888     -44100856       1.713894       17268.526     -44083588       705.21406      705.21406      705.21406      2147.393       2852.607       2147.393       2852.607       2147.393       2852.607       3.507219e+08   0.1            16665480       0.997576       484.01408      4840.1372      19.785303    
  57410000   6504.2103     -6.0553058     -44101161       1.713894       19368.428     -44081793       705.21406      705.21406      705.21406      2147.393       2852.607       2147.393       2852.607       2147.393       2852.607       3.507219e+08   0.1            16665500       1.0388902      484.0935       4840.9451      19.738958    
  57410200   7284.2123     -6.2250513     -44099588       1.713894       21691.14      -44077897       705.21406      705.21406      705.21406      2147.393       2852.607       2147.393       2852.607       2147.393       2852.607       3.507219e+08   0.1            16665520       1.0800849      485.50156      4855.0192      19.690818    
  57410400   8144.4351     -6.5384924     -44099928       1.713894       24252.737     -44075675       705.21406      705.21406      705.21406      2147.393       2852.607       2147.393       2852.607       2147.393       2852.607       3.507219e+08   0.1            16665540       1.1214117      483.94746      4839.466       19.645512    
  57410600   9090.1146     -6.8446319     -44100285       1.713894       27068.809     -44073217       705.21406      705.21406      705.21406      2147.393       2852.607       2147.393       2852.607       2147.393       2852.607       3.507219e+08   0.1            16665560       1.162706       484.32891      4843.3015      19.599937    
  57410800   10126.087     -7.1496191     -44100662       1.713894       30153.757     -44070508       705.21406      705.21406      705.21406      2147.393       2852.607       2147.393       2852.607       2147.393       2852.607       3.507219e+08   0.1            16665580       1.2039962      484.37679      4843.7559      19.554594    
  57411000   11256.43      -7.4435709     -44101058       1.713894       33519.728     -44067539       705.21406      705.21406      705.21406      2147.393       2852.607       2147.393       2852.607       2147.393       2852.607       3.507219e+08   0.1            16665600       1.2453331      483.82862      4838.2876      19.510254    
  57411200   12484.52      -7.7042411     -44101474       1.713894       37176.77      -44064298       705.21406      705.21406      705.21406      2147.393       2852.607       2147.393       2852.607       2147.393       2852.607       3.507219e+08   0.1            16665620       1.2865458      485.28824      4852.884       19.464226    
  57411400   13812.204     -7.9227004     -44101911       1.713894       41130.385     -44060780       705.21406      705.21406      705.21406      2147.393       2852.607       2147.393       2852.607       2147.393       2852.607       3.507219e+08   0.1            16665640       1.3278771      483.8941       4838.9528      19.420234    
  57411600   15239.681     -8.2358194     -44102736       1.713894       45381.168     -44057355       705.21406      705.21406      705.21406      2147.393       2852.607       2147.393       2852.607       2147.393       2852.607       3.507219e+08   0.1            16665660       1.3691921      484.08606      4840.8539      19.376173    
  57411800   16765.058     -8.4393288     -44103215       1.713894       49923.481     -44053291       705.21406      705.21406      705.21406      2147.393       2852.607       2147.393       2852.607       2147.393       2852.607       3.507219e+08   0.1            16665680       1.4115009      472.71456      4727.138       19.345896    
  57412000   18383.625     -8.6435282     -44103714       1.713894       54743.297     -44048971       705.21406      705.21406      705.21406      2147.393       2852.607       2147.393       2852.607       2147.393       2852.607       3.507219e+08   0.1            16665700       1.4527995      484.27834      4842.7941      19.301507    
  57412200   20087.814     -8.8305004     -44104234       1.713894       59818.08      -44044416       705.21406      705.21406      705.21406      2147.393       2852.607       2147.393       2852.607       2147.393       2852.607       3.507219e+08   0.1            16665720       1.494047       484.87703      4848.7685      19.256634    
  57412400   21866.242     -8.9022246     -44104406       1.713894       65113.934     -44039292       705.21406      705.21406      705.21406      2147.393       2852.607       2147.393       2852.607       2147.393       2852.607       3.507219e+08   0.1            16665740       1.5353477      484.25497      4842.5429      19.212621    
  57412600   23703.402     -9.1346251     -44104968       1.713894       70584.683     -44034383       705.21406      705.21406      705.21406      2147.393       2852.607       2147.393       2852.607       2147.393       2852.607       3.507219e+08   0.1            16665760       1.5766069      484.73603      4847.3626      19.168251    
  57412800   25579.354     -9.3043942     -44103654       1.713894       76170.949     -44027483       705.21406      705.21406      705.21406      2147.393       2852.607       2147.393       2852.607       2147.393       2852.607       3.507219e+08   0.1            16665780       1.6179506      483.75327      4837.532       19.125031    
  57413000   27469.47      -9.87422       -44104624       1.713894       81799.39      -44022824       705.21406      705.21406      705.21406      2147.393       2852.607       2147.393       2852.607       2147.393       2852.607       3.507219e+08   0.1            16665800       1.6593763      482.79154      4827.926       19.082852    
  57413200   29344.124     -10.414654     -44105243       1.713894       87381.789     -44017862       705.21406      705.21406      705.21406      2147.393       2852.607       2147.393       2852.607       2147.393       2852.607       3.507219e+08   0.1            16665820       1.7007357      483.56618      4835.6464      19.039969    
  57413400   31168.892     -10.968149     -44105881       1.713894       92815.639     -44013065       705.21406      705.21406      705.21406      2147.393       2852.607       2147.393       2852.607       2147.393       2852.607       3.507219e+08   0.1            16665840       1.7420375      484.24069      4842.4133      18.996528    
  57413600   32905.403     -11.51427      -44106534       1.713894       97986.672     -44008547       705.21406      705.21406      705.21406      2147.393       2852.607       2147.393       2852.607       2147.393       2852.607       3.507219e+08   0.1            16665860       1.7834789      482.60868      4826.0988      18.95467     
  57413800   34512.736     -11.937297     -44105307       1.713894       102773.03     -44002534       705.21406      705.21406      705.21406      2147.393       2852.607       2147.393       2852.607       2147.393       2852.607       3.507219e+08   0.1            16665880       1.8248469      483.46519      4834.6362      18.912073    
  57414000   35949.074     -12.559255     -44105987       1.713894       107050.2      -43998937       705.21406      705.21406      705.21406      2147.393       2852.607       2147.393       2852.607       2147.393       2852.607       3.507219e+08   0.1            16665900       1.8661778      483.9002       4839.0147      18.869152    
  57414200   37175.703     -12.486018     -44091922       1.713894       110702.9      -43981219       705.21406      705.21406      705.21406      2147.393       2852.607       2147.393       2852.607       2147.393       2852.607       3.507219e+08   0.1            16665920       1.9075458      483.46469      4834.6404      18.826669    
  57414400   38160.329     -13.301359     -44092619       1.713894       113634.94     -43978984       705.21406      705.21406      705.21406      2147.393       2852.607       2147.393       2852.607       2147.393       2852.607       3.507219e+08   0.1            16665940       1.9488108      484.67225      4846.7205      18.78324     
  57414600   38883.617     -14.234012     -44093319       1.713894       115788.77     -43977530       705.21406      705.21406      705.21406      2147.393       2852.607       2147.393       2852.607       2147.393       2852.607       3.507219e+08   0.1            16665960       1.9901352      483.9762       4839.7594      18.74046     
  57414800   39344.905     -15.365062     -44094018       1.713894       117162.41     -43976856       705.21406      705.21406      705.21406      2147.393       2852.607       2147.393       2852.607       2147.393       2852.607       3.507219e+08   0.1            16665980       2.0315155      483.32147      4833.2238      18.698254    
  57415000   39566.284     -16.731331     -44094716       1.713894       117821.64     -43976895       705.21406      705.21406      705.21406      2147.393       2852.607       2147.393       2852.607       2147.393       2852.607       3.507219e+08   0.1            16666000       2.0728378      483.99999      4839.9886      18.65556     
  57415200   39593.008     -18.417019     -44097307       1.713894       117901.22     -43979406       705.21406      705.21406      705.21406      2147.393       2852.607       2147.393       2852.607       2147.393       2852.607       3.507219e+08   0.1            16666020       2.1141217      484.45088      4844.5123      18.612581    
  57415400   39487.668     -19.927198     -44097998       1.713894       117587.53     -43980411       705.21406      705.21406      705.21406      2147.393       2852.607       2147.393       2852.607       2147.393       2852.607       3.507219e+08   0.1            16666040       2.1553707      484.85987      4848.595       18.569367    
  57415600   39322.742     -21.343896     -44098684       1.713894       117096.41     -43981588       705.21406      705.21406      705.21406      2147.393       2852.607       2147.393       2852.607       2147.393       2852.607       3.507219e+08   0.1            16666060       2.1965726      485.41415      4854.1512      18.525828    
  57415800   39171.91      -22.305969     -44091989       1.713894       116647.26     -43975341       705.21406      705.21406      705.21406      2147.393       2852.607       2147.393       2852.607       2147.393       2852.607       3.507219e+08   0.1            16666080       2.2378136      484.95391      4849.5385      18.482701    
  57416000   39102.807     -23.644787     -44092667       1.713894       116441.48     -43976225       705.21406      705.21406      705.21406      2147.393       2852.607       2147.393       2852.607       2147.393       2852.607       3.507219e+08   0.1            16666100       2.2799534      474.61052      4746.092       18.446915    
  57416200   39174.095     -25.449314     -44100720       1.713894       116653.76     -43984066       705.21406      705.21406      705.21406      2147.393       2852.607       2147.393       2852.607       2147.393       2852.607       3.507219e+08   0.1            16666120       2.3212464      484.3442       4843.4545      18.404185    
  57416400   39433.747     -26.699389     -44099498       1.713894       117426.96     -43982071       705.21406      705.21406      705.21406      2147.393       2852.607       2147.393       2852.607       2147.393       2852.607       3.507219e+08   0.1            16666140       2.3624406      485.50569      4855.055       18.360739    
  57416600   39917.765     -27.958164     -44100171       1.713894       118868.29     -43981303       705.21406      705.21406      705.21406      2147.393       2852.607       2147.393       2852.607       2147.393       2852.607       3.507219e+08   0.1            16666160       2.4046014      474.37334      4743.7232      18.324739    
  57416800   40647.842     -29.045888     -44100846       1.713894       121042.33     -43979804       705.21406      705.21406      705.21406      2147.393       2852.607       2147.393       2852.607       2147.393       2852.607       3.507219e+08   0.1            16666180       2.4457932      485.5338       4855.3383      18.281285    
  57417000   41627.514     -29.939233     -44101525       1.713894       123959.63     -43977566       705.21406      705.21406      705.21406      2147.393       2852.607       2147.393       2852.607       2147.393       2852.607       3.507219e+08   0.1            16666200       2.4870611      484.63784      4846.3917      18.238465    
  57417200   42839.483     -30.478286     -44100313       1.713894       127568.66     -43972744       705.21406      705.21406      705.21406      2147.393       2852.607       2147.393       2852.607       2147.393       2852.607       3.507219e+08   0.1            16666220       2.5282512      485.5551       4855.5418      18.195135    
  57417400   44245.511     -31.076645     -44101000       1.713894       131755.58     -43969244       705.21406      705.21406      705.21406      2147.393       2852.607       2147.393       2852.607       2147.393       2852.607       3.507219e+08   0.1            16666240       2.5695966      483.72861      4837.2981      18.152972    
  57417600   45790.994     -31.661185     -44101691       1.713894       136357.76     -43965333       705.21406      705.21406      705.21406      2147.393       2852.607       2147.393       2852.607       2147.393       2852.607       3.507219e+08   0.1            16666260       2.6107717      485.7309       4857.3116      18.109653    
  57417800   47411.045     -32.216801     -44102387       1.713894       141182        -43961205       705.21406      705.21406      705.21406      2147.393       2852.607       2147.393       2852.607       2147.393       2852.607       3.507219e+08   0.1            16666280       2.6520457      484.56347      4845.6373      18.067077    
  57418000   49037.447     -32.748039     -44103089       1.713894       146025.14     -43957064       705.21406      705.21406      705.21406      2147.393       2852.607       2147.393       2852.607       2147.393       2852.607       3.507219e+08   0.1            16666300       2.6934167      483.43332      4834.3179      18.025188    
  57418200   50603.115     -33.322214     -44103798       1.713894       150687.44     -43953110       705.21406      705.21406      705.21406      2147.393       2852.607       2147.393       2852.607       2147.393       2852.607       3.507219e+08   0.1            16666320       2.7347129      484.30487      4843.0508      17.982824    
  57418400   52045.185     -33.895105     -44104511       1.713894       154981.67     -43949530       705.21406      705.21406      705.21406      2147.393       2852.607       2147.393       2852.607       2147.393       2852.607       3.507219e+08   0.1            16666340       2.7760429      483.91204      4839.1353      17.940708    
  57418600   53308.84      -34.910434     -44112605       1.713894       158744.62     -43953860       705.21406      705.21406      705.21406      2147.393       2852.607       2147.393       2852.607       2147.393       2852.607       3.507219e+08   0.1            16666360       2.8172846      484.9451       4849.432       17.898058    
  57418800   54351.174     -35.667396     -44113320       1.713894       161848.51     -43951472       705.21406      705.21406      705.21406      2147.393       2852.607       2147.393       2852.607       2147.393       2852.607       3.507219e+08   0.1            16666380       2.8584685      485.62744      4856.2738      17.855085    
  57419000   55145.018     -36.502019     -44114033       1.713894       164212.45     -43949821       705.21406      705.21406      705.21406      2147.393       2852.607       2147.393       2852.607       2147.393       2852.607       3.507219e+08   0.1            16666400       2.9001687      479.61355      4796.1358      17.815336    
  57419200   55683.376     -37.74545      -44114744       1.713894       165815.59     -43948928       705.21406      705.21406      705.21406      2147.393       2852.607       2147.393       2852.607       2147.393       2852.607       3.507219e+08   0.1            16666420       2.9414809      484.11838      4841.1916      17.773187    
  57419400   55981.284     -39.552405     -44115453       1.713894       166702.7      -43948750       705.21406      705.21406      705.21406      2147.393       2852.607       2147.393       2852.607       2147.393       2852.607       3.507219e+08   0.1            16666440       2.9827708      484.38057      4843.8018      17.730928    
  57419600   56074.975     -41.39551      -44116159       1.713894       166981.7      -43949177       705.21406      705.21406      705.21406      2147.393       2852.607       2147.393       2852.607       2147.393       2852.607       3.507219e+08   0.1            16666460       3.0240408      484.61316      4846.1305      17.68858     
  57419800   56018.132     -42.923847     -44116857       1.713894       166812.43     -43950045       705.21406      705.21406      705.21406      2147.393       2852.607       2147.393       2852.607       2147.393       2852.607       3.507219e+08   0.1            16666480       3.0653014      484.72337      4847.2354      17.646207    
  57420000   55877.122     -43.947492     -44110168       1.713894       166392.53     -43943775       705.21406      705.21406      705.21406      2147.393       2852.607       2147.393       2852.607       2147.393       2852.607       3.507219e+08   0.1            16666500       3.1065831      484.47695      4844.7722      17.603983    
  57420200   55724.377     -45.365331     -44110847       1.713894       165937.68     -43944909       705.21406      705.21406      705.21406      2147.393       2852.607       2147.393       2852.607       2147.393       2852.607       3.507219e+08   0.1            16666520       3.1478131      485.08304      4850.8241      17.561497    
  57420400   55630.349     -46.707879     -44111520       1.713894       165657.68     -43945862       705.21406      705.21406      705.21406      2147.393       2852.607       2147.393       2852.607       2147.393       2852.607       3.507219e+08   0.1            16666540       3.1890107      485.46574      4854.6656      17.518863    
  57420600   55658.17      -48.129656     -44114081       1.713894       165740.53     -43948341       705.21406      705.21406      705.21406      2147.393       2852.607       2147.393       2852.607       2147.393       2852.607       3.507219e+08   0.1            16666560       3.2302677      484.76613      4847.6622      17.476588    
  57420800   55860.988     -49.353184     -44114744       1.713894       166344.48     -43948400       705.21406      705.21406      705.21406      2147.393       2852.607       2147.393       2852.607       2147.393       2852.607       3.507219e+08   0.1            16666580       3.2723874      474.83631      4748.3454      17.438938    
  57421000   56278.91      -50.322807     -44115403       1.713894       167588.98     -43947814       705.21406      705.21406      705.21406      2147.393       2852.607       2147.393       2852.607       2147.393       2852.607       3.507219e+08   0.1            16666600       3.3140697      479.8198       4798.2089      17.398878    
  57421200   56937.506     -50.533492     -44108679       1.713894       169550.17     -43939129       705.21406      705.21406      705.21406      2147.393       2852.607       2147.393       2852.607       2147.393       2852.607       3.507219e+08   0.1            16666620       3.3552996      485.08598      4850.8625      17.356438    
  57421400   57846.047     -51.136595     -44116706       1.713894       172255.65     -43944450       705.21406      705.21406      705.21406      2147.393       2852.607       2147.393       2852.607       2147.393       2852.607       3.507219e+08   0.1            16666640       3.3974603      474.37532      4743.7495      17.318773    
  57421600   58994.836     -51.1097       -44117353       1.713894       175676.55     -43941676       705.21406      705.21406      705.21406      2147.393       2852.607       2147.393       2852.607       2147.393       2852.607       3.507219e+08   0.1            16666660       3.4387343      484.5665       4845.6602      17.276544    
  57421800   60353.83      -50.814436     -44117629       1.713894       179723.4      -43937906       705.21406      705.21406      705.21406      2147.393       2852.607       2147.393       2852.607       2147.393       2852.607       3.507219e+08   0.1            16666680       3.4798845      486.02425      4860.2482      17.233725    
  57422000   61875.354     -51.479216     -44127545       1.713894       184254.24     -43943291       705.21406      705.21406      705.21406      2147.393       2852.607       2147.393       2852.607       2147.393       2852.607       3.507219e+08   0.1            16666700       3.521105       485.19394      4851.9341      17.191289    
  57422200   63498.512     -52.01296      -44128190       1.713894       189087.72     -43939102       705.21406      705.21406      705.21406      2147.393       2852.607       2147.393       2852.607       2147.393       2852.607       3.507219e+08   0.1            16666720       3.5623787      484.5713       4845.715       17.149136    
  57422400   65153.597     -52.525536     -44126942       1.713894       194016.29     -43932925       705.21406      705.21406      705.21406      2147.393       2852.607       2147.393       2852.607       2147.393       2852.607       3.507219e+08   0.1            16666740       3.6035545      485.72197      4857.1947      17.106541    
  57422600   66768.076     -53.33332      -44127589       1.713894       198823.93     -43928765       705.21406      705.21406      705.21406      2147.393       2852.607       2147.393       2852.607       2147.393       2852.607       3.507219e+08   0.1            16666760       3.6447836      485.09538      4850.9977      17.064224    
  57422800   68272.654     -54.254056     -44128237       1.713894       203304.3      -43924933       705.21406      705.21406      705.21406      2147.393       2852.607       2147.393       2852.607       2147.393       2852.607       3.507219e+08   0.1            16666780       3.6860626      484.5045       4845.0317      17.022166    
  57423000   69605.387     -54.689381     -44119610       1.713894       207272.96     -43912337       705.21406      705.21406      705.21406      2147.393       2852.607       2147.393       2852.607       2147.393       2852.607       3.507219e+08   0.1            16666800       3.7273439      484.48344      4844.8301      16.980133    
  57423200   70716.666     -55.590097     -44120251       1.713894       210582.16     -43909669       705.21406      705.21406      705.21406      2147.393       2852.607       2147.393       2852.607       2147.393       2852.607       3.507219e+08   0.1            16666820       3.7686746      483.90223      4839.0397      16.938338    
  57423400   71573.267     -55.851308     -44113509       1.713894       213132.97     -43900376       705.21406      705.21406      705.21406      2147.393       2852.607       2147.393       2852.607       2147.393       2852.607       3.507219e+08   0.1            16666840       3.8098382      485.86542      4858.6465      16.895814    
  57423600   72162.382     -56.259705     -44114137       1.713894       214887.25     -43899250       705.21406      705.21406      705.21406      2147.393       2852.607       2147.393       2852.607       2147.393       2852.607       3.507219e+08   0.1            16666860       3.8510597      485.18298      4851.8204      16.853573    
  57423800   72494.274     -56.719287     -44114757       1.713894       215875.57     -43898882       705.21406      705.21406      705.21406      2147.393       2852.607       2147.393       2852.607       2147.393       2852.607       3.507219e+08   0.1            16666880       3.8922516      485.53404      4855.3405      16.811224    
  57424000   72601.878     -57.455033     -44115370       1.713894       216195.99     -43899174       705.21406      705.21406      705.21406      2147.393       2852.607       2147.393       2852.607       2147.393       2852.607       3.507219e+08   0.1            16666900       3.9335232      484.59405      4845.9406      16.76924     
  57424200   72537.308     -58.558831     -44115972       1.713894       216003.72     -43899969       705.21406      705.21406      705.21406      2147.393       2852.607       2147.393       2852.607       2147.393       2852.607       3.507219e+08   0.1            16666920       3.9746508      486.29212      4862.9245      16.726665    
  57424400   72367.507     -60.295908     -44123941       1.713894       215498.08     -43908443       705.21406      705.21406      705.21406      2147.393       2852.607       2147.393       2852.607       2147.393       2852.607       3.507219e+08   0.1            16666940       4.0158635      485.28609      4852.866       16.684473    
  57424600   72167.177     -61.108301     -44117144       1.713894       214901.53     -43902242       705.21406      705.21406      705.21406      2147.393       2852.607       2147.393       2852.607       2147.393       2852.607       3.507219e+08   0.1            16666960       4.057041       485.70338      4857.0341      16.642156    
  57424800   72010.763     -61.899782     -44117715       1.713894       214435.76     -43903279       705.21406      705.21406      705.21406      2147.393       2852.607       2147.393       2852.607       2147.393       2852.607       3.507219e+08   0.1            16666980       4.0982208      485.67412      4856.7425      16.599873    
  57425000   71966.984     -62.562501     -44118276       1.713894       214305.39     -43903971       705.21406      705.21406      705.21406      2147.393       2852.607       2147.393       2852.607       2147.393       2852.607       3.507219e+08   0.1            16667000       4.1402611      475.73322      4757.319       16.561054    
  57425200   72095.058     -63.29899      -44118829       1.713894       214686.77     -43904142       705.21406      705.21406      705.21406      2147.393       2852.607       2147.393       2852.607       2147.393       2852.607       3.507219e+08   0.1            16667020       4.1814275      485.8341       4858.3437      16.518718    
  57425400   72440.89      -64.314454     -44126750       1.713894       215716.6      -43911034       705.21406      705.21406      705.21406      2147.393       2852.607       2147.393       2852.607       2147.393       2852.607       3.507219e+08   0.1            16667040       4.2226708      484.92685      4849.2746      16.476705    
  57425600   73035.23      -64.481814     -44125388       1.713894       217486.44     -43907901       705.21406      705.21406      705.21406      2147.393       2852.607       2147.393       2852.607       2147.393       2852.607       3.507219e+08   0.1            16667060       4.2637826      486.47952      4864.7975      16.434199    
  57425800   73891.299     -64.767564     -44133286       1.713894       220035.67     -43913251       705.21406      705.21406      705.21406      2147.393       2852.607       2147.393       2852.607       2147.393       2852.607       3.507219e+08   0.1            16667080       4.3049377      485.96607      4859.6553      16.391887    
  57426000   75003.292     -64.40684      -44133796       1.713894       223347        -43910449       705.21406      705.21406      705.21406      2147.393       2852.607       2147.393       2852.607       2147.393       2852.607       3.507219e+08   0.1            16667100       4.3461415      485.39261      4853.9264      16.349778    
  57426200   76345.876     -64.277186     -44136194       1.713894       227344.98     -43908849       705.21406      705.21406      705.21406      2147.393       2852.607       2147.393       2852.607       2147.393       2852.607       3.507219e+08   0.1            16667120       4.3882365      475.11583      4751.1557      16.311       
  57426400   77873.98      -64.282878     -44136693       1.713894       231895.41     -43904798       705.21406      705.21406      705.21406      2147.393       2852.607       2147.393       2852.607       2147.393       2852.607       3.507219e+08   0.1            16667140       4.4294141      485.70042      4857.0136      16.26879     
  57426600   79526.409     -64.612166     -44137189       1.713894       236816.07     -43900373       705.21406      705.21406      705.21406      2147.393       2852.607       2147.393       2852.607       2147.393       2852.607       3.507219e+08   0.1            16667160       4.4706163      485.412        4854.1064      16.22669     
  57426800   81230.967     -64.761437     -44135787       1.713894       241891.95     -43893895       705.21406      705.21406      705.21406      2147.393       2852.607       2147.393       2852.607       2147.393       2852.607       3.507219e+08   0.1            16667180       4.5118407      485.14811      4851.4955      16.184684    
  57427000   82910.552     -65.210082     -44143654       1.713894       246893.47     -43896761       705.21406      705.21406      705.21406      2147.393       2852.607       2147.393       2852.607       2147.393       2852.607       3.507219e+08   0.1            16667200       4.5530972      484.77181      4847.7132      16.142807    
  57427200   84489.602     -65.106845     -44144135       1.713894       251595.61     -43892539       705.21406      705.21406      705.21406      2147.393       2852.607       2147.393       2852.607       2147.393       2852.607       3.507219e+08   0.1            16667220       4.5943288      485.06569      4850.6539      16.100854    
  57427400   85899.709     -64.940508     -44144605       1.713894       255794.67     -43888810       705.21406      705.21406      705.21406      2147.393       2852.607       2147.393       2852.607       2147.393       2852.607       3.507219e+08   0.1            16667240       4.6356182      484.38605      4843.8775      16.059113    
  57427600   87085.405     -64.763431     -44139580       1.713894       259325.47     -43880254       705.21406      705.21406      705.21406      2147.393       2852.607       2147.393       2852.607       2147.393       2852.607       3.507219e+08   0.1            16667260       4.6767903      485.76255      4857.6129      16.01698     
  57427800   88009.015     -65.370875     -44141924       1.713894       262075.82     -43879848       705.21406      705.21406      705.21406      2147.393       2852.607       2147.393       2852.607       2147.393       2852.607       3.507219e+08   0.1            16667280       4.7179269      486.187        4861.8648      15.974743    
  57428000   88653.271     -66.220866     -44142366       1.713894       263994.3      -43878371       705.21406      705.21406      705.21406      2147.393       2852.607       2147.393       2852.607       2147.393       2852.607       3.507219e+08   0.1            16667300       4.7591647      484.99364      4849.9462      15.932863    
  57428200   89023.559     -67.376828     -44143168       1.713894       265096.96     -43878071       705.21406      705.21406      705.21406      2147.393       2852.607       2147.393       2852.607       2147.393       2852.607       3.507219e+08   0.1            16667320       4.8004055      484.95516      4849.5416      15.891005    
  57428400   89148.174     -67.541746     -44132422       1.713894       265468.04     -43866954       705.21406      705.21406      705.21406      2147.393       2852.607       2147.393       2852.607       2147.393       2852.607       3.507219e+08   0.1            16667340       4.8415781      485.76076      4857.6171      15.848934    
  57428600   89076.458     -67.941293     -44132829       1.713894       265254.48     -43867574       705.21406      705.21406      705.21406      2147.393       2852.607       2147.393       2852.607       2147.393       2852.607       3.507219e+08   0.1            16667360       4.8827735      485.49162      4854.9047      15.806952    
  57428800   88875.813     -68.404946     -44140966       1.713894       264656.99     -43876309       705.21406      705.21406      705.21406      2147.393       2852.607       2147.393       2852.607       2147.393       2852.607       3.507219e+08   0.1            16667380       4.9248697      475.10076      4751.0069      15.767868    
  57429000   88623.729     -68.413501     -44143237       1.713894       263906.33     -43879331       705.21406      705.21406      705.21406      2147.393       2852.607       2147.393       2852.607       2147.393       2852.607       3.507219e+08   0.1            16667400       4.9661595      484.38153      4843.821       15.726179    
  57429200   88399.538     -68.364058     -44143601       1.713894       263238.73     -43880362       705.21406      705.21406      705.21406      2147.393       2852.607       2147.393       2852.607       2147.393       2852.607       3.507219e+08   0.1            16667420       5.0074466      484.41318      4844.1305      15.684488    
  57429400   88277.662     -69.02715      -44153224       1.713894       262875.8      -43890348       705.21406      705.21406      705.21406      2147.393       2852.607       2147.393       2852.607       2147.393       2852.607       3.507219e+08   0.1            16667440       5.0486992      484.81789      4848.18        15.642698    
  57429600   88324.047     -69.357769     -44155456       1.713894       263013.93     -43892442       705.21406      705.21406      705.21406      2147.393       2852.607       2147.393       2852.607       2147.393       2852.607       3.507219e+08   0.1            16667460       5.0899593      484.73008      4847.2987      15.600939    
  57429800   88591.401     -69.321865     -44155781       1.713894       263810.06     -43891970       705.21406      705.21406      705.21406      2147.393       2852.607       2147.393       2852.607       2147.393       2852.607       3.507219e+08   0.1            16667480       5.1312207      484.71398      4847.1332      15.559192    
  57430000   89116.651     -68.412967     -44143232       1.713894       265374.17     -43877857       705.21406      705.21406      705.21406      2147.393       2852.607       2147.393       2852.607       2147.393       2852.607       3.507219e+08   0.1            16667500       5.1725134      484.34766      4843.4902      15.517546    
  57430200   89918.223     -68.251063     -44141635       1.713894       267761.11     -43873874       705.21406      705.21406      705.21406      2147.393       2852.607       2147.393       2852.607       2147.393       2852.607       3.507219e+08   0.1            16667520       5.2137968      484.45607      4844.5637      15.475879    
  57430400   90994.659     -68.410284     -44141923       1.713894       270966.56     -43870957       705.21406      705.21406      705.21406      2147.393       2852.607       2147.393       2852.607       2147.393       2852.607       3.507219e+08   0.1            16667540       5.2550464      484.85366      4848.5332      15.434119    
  57430600   92322.445     -68.395247     -44140306       1.713894       274920.48     -43865385       705.21406      705.21406      705.21406      2147.393       2852.607       2147.393       2852.607       2147.393       2852.607       3.507219e+08   0.1            16667560       5.2962122      485.84044      4858.3977      15.392123    
  57430800   93857.482     -67.315953     -44118441       1.713894       279491.55     -43838950       705.21406      705.21406      705.21406      2147.393       2852.607       2147.393       2852.607       2147.393       2852.607       3.507219e+08   0.1            16667580       5.3375115      484.2686       4842.6606      15.350525    
  57431000   95537.235     -67.37605      -44118701       1.713894       284493.57     -43834207       705.21406      705.21406      705.21406      2147.393       2852.607       2147.393       2852.607       2147.393       2852.607       3.507219e+08   0.1            16667600       5.3796753      474.34135      4743.4363      15.31139     
  57431200   97286.979     -67.144934     -44118581       1.713894       289704.01     -43828877       705.21406      705.21406      705.21406      2147.393       2852.607       2147.393       2852.607       2147.393       2852.607       3.507219e+08   0.1            16667620       5.4208973      485.17746      4851.7758      15.269557    
  57431400   99026.64      -66.282387     -44118082       1.713894       294884.42     -43823197       705.21406      705.21406      705.21406      2147.393       2852.607       2147.393       2852.607       2147.393       2852.607       3.507219e+08   0.1            16667640       5.4620293      486.23819      4862.3806      15.227482    
  57431600   100676.62     -65.469821     -44118309       1.713894       299797.78     -43818511       705.21406      705.21406      705.21406      2147.393       2852.607       2147.393       2852.607       2147.393       2852.607       3.507219e+08   0.1            16667660       5.5032598      485.07935      4850.8038      15.185693    
  57431800   102162.51     -64.551251     -44118520       1.713894       304222.5      -43814297       705.21406      705.21406      705.21406      2147.393       2852.607       2147.393       2852.607       2147.393       2852.607       3.507219e+08   0.1            16667680       5.5444775      485.22862      4852.2733      15.143877    
  57432000   103423.41     -63.466577     -44111337       1.713894       307977.25     -43803360       705.21406      705.21406      705.21406      2147.393       2852.607       2147.393       2852.607       2147.393       2852.607       3.507219e+08   0.1            16667700       5.5857318      484.79745      4847.9768      15.10217     
  57432200   104416.93     -63.345358     -44113416       1.713894       310935.79     -43802481       705.21406      705.21406      705.21406      2147.393       2852.607       2147.393       2852.607       2147.393       2852.607       3.507219e+08   0.1            16667720       5.6270272      484.31527      4843.1658      15.060579    
  57432400   105119.64     -63.185159     -44113588       1.713894       313028.34     -43800560       705.21406      705.21406      705.21406      2147.393       2852.607       2147.393       2852.607       2147.393       2852.607       3.507219e+08   0.1            16667740       5.668248       485.1928       4851.9161      15.018794    
  57432600   105530.77     -63.512947     -44117531       1.713894       314252.6      -43803279       705.21406      705.21406      705.21406      2147.393       2852.607       2147.393       2852.607       2147.393       2852.607       3.507219e+08   0.1            16667760       5.7102279      476.41502      4764.1399      14.97901     
  57432800   105676.24     -63.718929     -44117668       1.713894       314685.79     -43802982       705.21406      705.21406      705.21406      2147.393       2852.607       2147.393       2852.607       2147.393       2852.607       3.507219e+08   0.1            16667780       5.751483       484.79239      4847.9405      14.93731     
  57433000   105605.11     -63.095286     -44110412       1.713894       314473.97     -43795938       705.21406      705.21406      705.21406      2147.393       2852.607       2147.393       2852.607       2147.393       2852.607       3.507219e+08   0.1            16667800       5.7927417      484.74413      4847.4402      14.895627    
  57433200   105383.91     -62.278836     -44103140       1.713894       313815.28     -43789325       705.21406      705.21406      705.21406      2147.393       2852.607       2147.393       2852.607       2147.393       2852.607       3.507219e+08   0.1            16667820       5.8339343      485.52199      4855.2191      14.853782    
  57433400   105091.1      -62.208757     -44103231       1.713894       312943.34     -43790288       705.21406      705.21406      705.21406      2147.393       2852.607       2147.393       2852.607       2147.393       2852.607       3.507219e+08   0.1            16667840       5.8755103      481.05018      4810.4984      14.812912    
  57433600   104809.75     -61.718579     -44095931       1.713894       312105.55     -43783825       705.21406      705.21406      705.21406      2147.393       2852.607       2147.393       2852.607       2147.393       2852.607       3.507219e+08   0.1            16667860       5.9166702      485.909        4859.0898      14.770994    
  57433800   104619.22     -61.345727     -44095993       1.713894       311538.17     -43784454       705.21406      705.21406      705.21406      2147.393       2852.607       2147.393       2852.607       2147.393       2852.607       3.507219e+08   0.1            16667880       5.9578143      486.0982       4860.9868      14.729046    
  57434000   104590.99     -61.173851     -44096038       1.713894       311454.11     -43784584       705.21406      705.21406      705.21406      2147.393       2852.607       2147.393       2852.607       2147.393       2852.607       3.507219e+08   0.1            16667900       5.9990183      485.38822      4853.8825      14.687257    
  57434200   104785.42     -60.861326     -44088695       1.713894       312033.08     -43776662       705.21406      705.21406      705.21406      2147.393       2852.607       2147.393       2852.607       2147.393       2852.607       3.507219e+08   0.1            16667920       6.0402503      485.06059      4850.6015      14.645544    
  57434400   105245.38     -60.987861     -44090615       1.713894       313402.76     -43777212       705.21406      705.21406      705.21406      2147.393       2852.607       2147.393       2852.607       2147.393       2852.607       3.507219e+08   0.1            16667940       6.0814793      485.09595      4850.9575      14.60383     
  57434600   105992.78     -60.719061     -44090625       1.713894       315628.39     -43774996       705.21406      705.21406      705.21406      2147.393       2852.607       2147.393       2852.607       2147.393       2852.607       3.507219e+08   0.1            16667960       6.1227058      485.12396      4851.2407      14.562116    
  57434800   107028.67     -60.377484     -44097997       1.713894       318713.09     -43779284       705.21406      705.21406      705.21406      2147.393       2852.607       2147.393       2852.607       2147.393       2852.607       3.507219e+08   0.1            16667980       6.1638515      486.07813      4860.7853      14.520219    
  57435000   108332.6      -59.522279     -44097977       1.713894       322595.98     -43775381       705.21406      705.21406      705.21406      2147.393       2852.607       2147.393       2852.607       2147.393       2852.607       3.507219e+08   0.1            16668000       6.2051692      484.05325      4840.5319      14.478733    
  57435200   109862.23     -59.067534     -44097946       1.713894       327150.95     -43770795       705.21406      705.21406      705.21406      2147.393       2852.607       2147.393       2852.607       2147.393       2852.607       3.507219e+08   0.1            16668020       6.2463694      485.43547      4854.3563      14.436978    
  57435400   111555.33     -58.542226     -44097900       1.713894       332192.71     -43765707       705.21406      705.21406      705.21406      2147.393       2852.607       2147.393       2852.607       2147.393       2852.607       3.507219e+08   0.1            16668040       6.2879581      480.8994       4808.9891      14.39612     
  57435600   113335.44     -57.499814     -44097837       1.713894       337493.57     -43760343       705.21406      705.21406      705.21406      2147.393       2852.607       2147.393       2852.607       2147.393       2852.607       3.507219e+08   0.1            16668060       6.3292494      484.36097      4843.6077      14.354578    
  57435800   115119.75     -55.992937     -44097757       1.713894       342806.95     -43754950       705.21406      705.21406      705.21406      2147.393       2852.607       2147.393       2852.607       2147.393       2852.607       3.507219e+08   0.1            16668080       6.3704501      485.42914      4854.2913      14.312835    
  57436000   116825.11     -54.16588      -44095765       1.713894       347885.22     -43747880       705.21406      705.21406      705.21406      2147.393       2852.607       2147.393       2852.607       2147.393       2852.607       3.507219e+08   0.1            16668100       6.412674       473.66744      4736.674       14.273376    
  57436200   118375.05     -52.876411     -44102661       1.713894       352500.69     -43750160       705.21406      705.21406      705.21406      2147.393       2852.607       2147.393       2852.607       2147.393       2852.607       3.507219e+08   0.1            16668120       6.4546773      476.15275      4761.5161      14.233396    
  57436400   119703.97     -51.904564     -44104425       1.713894       356457.98     -43747967       705.21406      705.21406      705.21406      2147.393       2852.607       2147.393       2852.607       2147.393       2852.607       3.507219e+08   0.1            16668140       6.4958661      485.5688       4855.6973      14.191611    
  57436600   120763.64     -50.803357     -44096901       1.713894       359613.49     -43737287       705.21406      705.21406      705.21406      2147.393       2852.607       2147.393       2852.607       2147.393       2852.607       3.507219e+08   0.1            16668160       6.5370517      485.60786      4856.0932      14.149825    
  57436800   121527.2      -50.853076     -44104119       1.713894       361887.26     -43742232       705.21406      705.21406      705.21406      2147.393       2852.607       2147.393       2852.607       2147.393       2852.607       3.507219e+08   0.1            16668180       6.5782715      485.20263      4852.0249      14.108121    
  57437000   121990.63     -50.730548     -44111324       1.713894       363267.28     -43748057       705.21406      705.21406      705.21406      2147.393       2852.607       2147.393       2852.607       2147.393       2852.607       3.507219e+08   0.1            16668200       6.619603       483.89269      4838.9298      14.066661    
  57437200   122174.32     -49.867881     -44110767       1.713894       363814.25     -43746953       705.21406      705.21406      705.21406      2147.393       2852.607       2147.393       2852.607       2147.393       2852.607       3.507219e+08   0.1            16668220       6.6608056      485.4054       4854.0464      14.024931    
  57437400   122122.97     -49.662117     -44116044       1.713894       363661.37     -43752383       705.21406      705.21406      705.21406      2147.393       2852.607       2147.393       2852.607       2147.393       2852.607       3.507219e+08   0.1            16668240       6.7020463      484.95882      4849.5911      13.983286    
  57437600   121903.15     -49.540491     -44115828       1.713894       363006.77     -43752821       705.21406      705.21406      705.21406      2147.393       2852.607       2147.393       2852.607       2147.393       2852.607       3.507219e+08   0.1            16668260       6.7433732      483.94647      4839.4722      13.941825    
  57437800   121593.84     -48.950535     -44115604       1.713894       362085.7      -43753519       705.21406      705.21406      705.21406      2147.393       2852.607       2147.393       2852.607       2147.393       2852.607       3.507219e+08   0.1            16668280       6.7846998      483.94985      4839.4832      13.900365    
  57438000   121277.29     -47.741077     -44115368       1.713894       361143.06     -43754225       705.21406      705.21406      705.21406      2147.393       2852.607       2147.393       2852.607       2147.393       2852.607       3.507219e+08   0.1            16668300       6.8260407      483.7828       4837.8354      13.858935    
  57438200   121035.61     -46.872394     -44122492       1.713894       360423.38     -43762069       705.21406      705.21406      705.21406      2147.393       2852.607       2147.393       2852.607       2147.393       2852.607       3.507219e+08   0.1            16668320       6.8672462      485.37086      4853.7079      13.817235    
  57438400   120945.61     -45.923144     -44122223       1.713894       360155.38     -43762067       705.21406      705.21406      705.21406      2147.393       2852.607       2147.393       2852.607       2147.393       2852.607       3.507219e+08   0.1            16668340       6.9088125      481.15935      4811.5863      13.77626     
  57438600   121072.83     -45.669527     -44121943       1.713894       360534.2      -43761409       705.21406      705.21406      705.21406      2147.393       2852.607       2147.393       2852.607       2147.393       2852.607       3.507219e+08   0.1            16668360       6.9500008      485.57478      4855.7446      13.73453     
  57438800   121465.07     -46.155901     -44123549       1.713894       361702.23     -43761846       705.21406      705.21406      705.21406      2147.393       2852.607       2147.393       2852.607       2147.393       2852.607       3.507219e+08   0.1            16668380       6.9911613      485.9032       4859.0334      13.692752    
  57439000   122148.39     -46.238233     -44123242       1.713894       363737.05     -43759505       705.21406      705.21406      705.21406      2147.393       2852.607       2147.393       2852.607       2147.393       2852.607       3.507219e+08   0.1            16668400       7.0324792      484.05055      4840.5128      13.651288    
  57439200   123128.64     -45.813796     -44122917       1.713894       366656.06     -43756261       705.21406      705.21406      705.21406      2147.393       2852.607       2147.393       2852.607       2147.393       2852.607       3.507219e+08   0.1            16668420       7.0740976      480.55658      4805.5707      13.610403    
  57439400   124389.44     -44.982693     -44122576       1.713894       370410.52     -43752166       705.21406      705.21406      705.21406      2147.393       2852.607       2147.393       2852.607       2147.393       2852.607       3.507219e+08   0.1            16668440       7.1153503      484.81685      4848.1519      13.568812    
  57439600   125891.58     -43.889785     -44122221       1.713894       374883.62     -43747337       705.21406      705.21406      705.21406      2147.393       2852.607       2147.393       2852.607       2147.393       2852.607       3.507219e+08   0.1            16668460       7.1566696      484.03657      4840.3839      13.527351    
  57439800   127576.3      -42.868981     -44122224       1.713894       379900.44     -43742323       705.21406      705.21406      705.21406      2147.393       2852.607       2147.393       2852.607       2147.393       2852.607       3.507219e+08   0.1            16668480       7.1986782      476.09195      4760.9051      13.487183    
  57440000   129368.37     -41.245296     -44121847       1.713894       385236.92     -43736610       705.21406      705.21406      705.21406      2147.393       2852.607       2147.393       2852.607       2147.393       2852.607       3.507219e+08   0.1            16668500       7.240003       483.9711       4839.703       13.445724    
  57440200   131183.51     -39.030723     -44121457       1.713894       390642.1      -43730815       705.21406      705.21406      705.21406      2147.393       2852.607       2147.393       2852.607       2147.393       2852.607       3.507219e+08   0.1            16668520       7.2812226      485.2065       4852.0764      13.404073    
  57440400   132936.01     -36.508221     -44113676       1.713894       395860.74     -43717815       705.21406      705.21406      705.21406      2147.393       2852.607       2147.393       2852.607       2147.393       2852.607       3.507219e+08   0.1            16668540       7.3225024      484.49801      4844.9914      13.362537    
  57440600   134545.41     -34.710657     -44120636       1.713894       400653.26     -43719983       705.21406      705.21406      705.21406      2147.393       2852.607       2147.393       2852.607       2147.393       2852.607       3.507219e+08   0.1            16668560       7.3637595      484.76553      4847.6405      13.320962    
  57440800   135942.86     -32.398867     -44120206       1.713894       404814.62     -43715392       705.21406      705.21406      705.21406      2147.393       2852.607       2147.393       2852.607       2147.393       2852.607       3.507219e+08   0.1            16668580       7.4060021      473.45562      4734.5617      13.281159    
  57441000   137073.75     -30.576406     -44127139       1.713894       408182.23     -43718957       705.21406      705.21406      705.21406      2147.393       2852.607       2147.393       2852.607       2147.393       2852.607       3.507219e+08   0.1            16668600       7.4472867      484.43985      4844.4011      13.239625    
  57441200   137905.26     -28.007327     -44113816       1.713894       410658.31     -43703158       705.21406      705.21406      705.21406      2147.393       2852.607       2147.393       2852.607       2147.393       2852.607       3.507219e+08   0.1            16668620       7.4885171      485.08114      4850.8054      13.197998    
  57441400   138429.61     -26.580948     -44113343       1.713894       412219.75     -43701123       705.21406      705.21406      705.21406      2147.393       2852.607       2147.393       2852.607       2147.393       2852.607       3.507219e+08   0.1            16668640       7.5297523      485.02292      4850.2343      13.156384    
  57441600   138663.73     -25.189109     -44105482       1.713894       412916.91     -43692565       705.21406      705.21406      705.21406      2147.393       2852.607       2147.393       2852.607       2147.393       2852.607       3.507219e+08   0.1            16668660       7.570993       484.95742      4849.5797      13.114784    
  57441800   138647.44     -24.144704     -44104988       1.713894       412868.41     -43692120       705.21406      705.21406      705.21406      2147.393       2852.607       2147.393       2852.607       2147.393       2852.607       3.507219e+08   0.1            16668680       7.612244       484.8362       4848.3714      13.073205    
  57442000   138442.39     -23.232548     -44102589       1.713894       412257.78     -43690332       705.21406      705.21406      705.21406      2147.393       2852.607       2147.393       2852.607       2147.393       2852.607       3.507219e+08   0.1            16668700       7.6535012      484.76435      4847.6256      13.031641    
  57442200   138125.94     -22.619416     -44102077       1.713894       411315.45     -43690762       705.21406      705.21406      705.21406      2147.393       2852.607       2147.393       2852.607       2147.393       2852.607       3.507219e+08   0.1            16668720       7.6946971      485.48461      4854.8136      12.989977    
  57442400   137781.88     -22.290193     -44108932       1.713894       410290.92     -43698642       705.21406      705.21406      705.21406      2147.393       2852.607       2147.393       2852.607       2147.393       2852.607       3.507219e+08   0.1            16668740       7.7359262      485.09532      4851.0022      12.948372    
  57442600   137495.33     -21.90412      -44108396       1.713894       409437.62     -43698958       705.21406      705.21406      705.21406      2147.393       2852.607       2147.393       2852.607       2147.393       2852.607       3.507219e+08   0.1            16668760       7.7771914      484.67064      4846.6966      12.906832    
  57442800   137347.43     -21.230198     -44100470       1.713894       408997.2      -43691473       705.21406      705.21406      705.21406      2147.393       2852.607       2147.393       2852.607       2147.393       2852.607       3.507219e+08   0.1            16668780       7.8185159      483.97197      4839.7104      12.865392    
  57443000   137408.49     -19.904579     -44099917       1.713894       409179.02     -43690738       705.21406      705.21406      705.21406      2147.393       2852.607       2147.393       2852.607       2147.393       2852.607       3.507219e+08   0.1            16668800       7.8606254      474.95294      4749.5284      12.825235    
  57443200   137731.45     -17.768184     -44099356       1.713894       410140.74     -43689215       705.21406      705.21406      705.21406      2147.393       2852.607       2147.393       2852.607       2147.393       2852.607       3.507219e+08   0.1            16668820       7.9019169      484.36078      4843.6176      12.783733    
  57443400   138349.36     -16.113707     -44098787       1.713894       411980.77     -43686807       705.21406      705.21406      705.21406      2147.393       2852.607       2147.393       2852.607       2147.393       2852.607       3.507219e+08   0.1            16668840       7.943243       483.95627      4839.5527      12.742289    
  57443600   139273.97     -14.744567     -44090835       1.713894       414734.1      -43676101       705.21406      705.21406      705.21406      2147.393       2852.607       2147.393       2852.607       2147.393       2852.607       3.507219e+08   0.1            16668860       7.9844973      484.79834      4847.9839      12.700733    
  57443800   140491.76     -14.09323      -44097632       1.713894       418360.46     -43679271       705.21406      705.21406      705.21406      2147.393       2852.607       2147.393       2852.607       2147.393       2852.607       3.507219e+08   0.1            16668880       8.0257791      484.47398      4844.7468      12.659222    
  57444000   141965.58     -12.782169     -44104419       1.713894       422749.26     -43681670       705.21406      705.21406      705.21406      2147.393       2852.607       2147.393       2852.607       2147.393       2852.607       3.507219e+08   0.1            16668900       8.0670927      484.10311      4841.038       12.617764    
  57444200   143637.94     -10.306119     -44096442       1.713894       427729.25     -43668713       705.21406      705.21406      705.21406      2147.393       2852.607       2147.393       2852.607       2147.393       2852.607       3.507219e+08   0.1            16668920       8.1084634      483.43324      4834.3196      12.576396    
  57444400   145434.52     -8.241005      -44095833       1.713894       433079.16     -43662754       705.21406      705.21406      705.21406      2147.393       2852.607       2147.393       2852.607       2147.393       2852.607       3.507219e+08   0.1            16668940       8.1497789      484.07915      4840.7903      12.534943    
  57444600   147271.49     -5.705553      -44085944       1.713894       438549.36     -43647394       705.21406      705.21406      705.21406      2147.393       2852.607       2147.393       2852.607       2147.393       2852.607       3.507219e+08   0.1            16668960       8.1911597      483.31812      4833.1903      12.49359     
  57444800   149062.54     -3.8968167     -44087217       1.713894       443882.79     -43643334       705.21406      705.21406      705.21406      2147.393       2852.607       2147.393       2852.607       2147.393       2852.607       3.507219e+08   0.1            16668980       8.2324391      484.50215      4845.0168      12.452085    
  57445000   150722.1      -1.6330198     -44079207       1.713894       448824.67     -43630383       705.21406      705.21406      705.21406      2147.393       2852.607       2147.393       2852.607       2147.393       2852.607       3.507219e+08   0.1            16669000       8.2736715      485.05552      4850.5518      12.410511    
  57445200   152177.1       0.23814698    -44080458       1.713894       453157.43     -43627300       705.21406      705.21406      705.21406      2147.393       2852.607       2147.393       2852.607       2147.393       2852.607       3.507219e+08   0.1            16669020       8.3152286      481.26423      4812.6429      12.369423    
  57445400   153370.9       2.5015828     -44074321       1.713894       456712.34     -43617609       705.21406      705.21406      705.21406      2147.393       2852.607       2147.393       2852.607       2147.393       2852.607       3.507219e+08   0.1            16669040       8.3565272      484.27939      4842.7999      12.327949    
  57445600   154266.7       4.4015494     -44071765       1.713894       459379.89     -43612385       705.21406      705.21406      705.21406      2147.393       2852.607       2147.393       2852.607       2147.393       2852.607       3.507219e+08   0.1            16669060       8.3989479      471.46771      4714.6744      12.288119    
  57445800   154851.02      5.9949087     -44071099       1.713894       461119.89     -43609979       705.21406      705.21406      705.21406      2147.393       2852.607       2147.393       2852.607       2147.393       2852.607       3.507219e+08   0.1            16669080       8.4402067      484.74315      4847.4258      12.246578    
  57446000   155135.38      7.6466988     -44063051       1.713894       461966.66     -43601085       705.21406      705.21406      705.21406      2147.393       2852.607       2147.393       2852.607       2147.393       2852.607       3.507219e+08   0.1            16669100       8.4822857      475.23516      4752.3477      12.206227    
  57446200   155155.57      8.3269155     -44067858       1.713894       462026.81     -43605831       705.21406      705.21406      705.21406      2147.393       2852.607       2147.393       2852.607       2147.393       2852.607       3.507219e+08   0.1            16669120       8.5236331      483.77085      4837.7159      12.1648      
  57446400   154970.3       8.8224721     -44074557       1.713894       461475.1      -43613082       705.21406      705.21406      705.21406      2147.393       2852.607       2147.393       2852.607       2147.393       2852.607       3.507219e+08   0.1            16669140       8.564905       484.59153      4845.9142      12.123275    
  57446600   154654.56      9.7254215     -44073874       1.713894       460534.87     -43613339       705.21406      705.21406      705.21406      2147.393       2852.607       2147.393       2852.607       2147.393       2852.607       3.507219e+08   0.1            16669160       8.6062896      483.27018      4832.7192      12.08191     
  57446800   154292.63      10.450847     -44071293       1.713894       459457.1      -43611836       705.21406      705.21406      705.21406      2147.393       2852.607       2147.393       2852.607       2147.393       2852.607       3.507219e+08   0.1            16669180       8.6475521      484.7038       4847.0199      12.040375    
  57447000   153971.26      11.170531     -44070601       1.713894       458500.11     -43612101       705.21406      705.21406      705.21406      2147.393       2852.607       2147.393       2852.607       2147.393       2852.607       3.507219e+08   0.1            16669200       8.6889418      483.21247      4832.1222      11.999018    
  57447200   153776.28      12.324112     -44071806       1.713894       457919.51     -43613886       705.21406      705.21406      705.21406      2147.393       2852.607       2147.393       2852.607       2147.393       2852.607       3.507219e+08   0.1            16669220       8.730326       483.27467      4832.7646      11.957653    
  57447400   153780.28      13.899011     -44078492       1.713894       457931.41     -43620561       705.21406      705.21406      705.21406      2147.393       2852.607       2147.393       2852.607       2147.393       2852.607       3.507219e+08   0.1            16669240       8.7716759      483.67784      4836.7648      11.916242    
  57447600   154040.19      15.823759     -44070420       1.713894       458705.37     -43611715       705.21406      705.21406      705.21406      2147.393       2852.607       2147.393       2852.607       2147.393       2852.607       3.507219e+08   0.1            16669260       8.8130749      483.10283      4831.0315      11.874897    
  57447800   154594.3       16.817651     -44069724       1.713894       460355.43     -43609369       705.21406      705.21406      705.21406      2147.393       2852.607       2147.393       2852.607       2147.393       2852.607       3.507219e+08   0.1            16669280       8.8543825      484.17237      4841.7188      11.83343     
  57448000   155458.02      17.664892     -44081885       1.713894       462927.44     -43618957       705.21406      705.21406      705.21406      2147.393       2852.607       2147.393       2852.607       2147.393       2852.607       3.507219e+08   0.1            16669300       8.8957005      484.05071      4840.5173      11.791978    
  57448200   156623.79      19.665286     -44083075       1.713894       466398.89     -43616676       705.21406      705.21406      705.21406      2147.393       2852.607       2147.393       2852.607       2147.393       2852.607       3.507219e+08   0.1            16669320       8.9370547      483.62824      4836.2748      11.750575    
  57448400   158058.67      22.135127     -44081997       1.713894       470671.72     -43611325       705.21406      705.21406      705.21406      2147.393       2852.607       2147.393       2852.607       2147.393       2852.607       3.507219e+08   0.1            16669340       8.9783217      484.64782      4846.4756      11.709059    
  57448600   159707.66      24.000521     -44081651       1.713894       475582.14     -43606068       705.21406      705.21406      705.21406      2147.393       2852.607       2147.393       2852.607       2147.393       2852.607       3.507219e+08   0.1            16669360       9.0197245      483.05929      4830.595       11.66772     
  57448800   161499.8       25.363578     -44082829       1.713894       480918.83     -43601911       705.21406      705.21406      705.21406      2147.393       2852.607       2147.393       2852.607       2147.393       2852.607       3.507219e+08   0.1            16669380       9.0610664      483.77013      4837.7054      11.626303    
  57449000   163351.19      27.154707     -44082482       1.713894       486431.96     -43596050       705.21406      705.21406      705.21406      2147.393       2852.607       2147.393       2852.607       2147.393       2852.607       3.507219e+08   0.1            16669400       9.1032183      474.47463      4744.7364      11.585917    
  57449200   165172.74      29.706073     -44081761       1.713894       491856.22     -43589905       705.21406      705.21406      705.21406      2147.393       2852.607       2147.393       2852.607       2147.393       2852.607       3.507219e+08   0.1            16669420       9.1445398      484.00944      4840.0957      11.544467    
  57449400   166877.15      32.330596     -44073654       1.713894       496931.66     -43576723       705.21406      705.21406      705.21406      2147.393       2852.607       2147.393       2852.607       2147.393       2852.607       3.507219e+08   0.1            16669440       9.1858747      483.8533       4838.5333      11.503035    
  57449600   168387.63      33.705724     -44074813       1.713894       501429.6      -43573383       705.21406      705.21406      705.21406      2147.393       2852.607       2147.393       2852.607       2147.393       2852.607       3.507219e+08   0.1            16669460       9.2272145      483.79639      4837.9742      11.46161     
  57449800   169643.68      34.564764     -44077660       1.713894       505169.92     -43572490       705.21406      705.21406      705.21406      2147.393       2852.607       2147.393       2852.607       2147.393       2852.607       3.507219e+08   0.1            16669480       9.2685728      483.57755      4835.7671      11.420209    
[...]
  58094400   305.49098      9.3023327     -43927826       1.7117268      909.69997     -43926917       705.51155      705.51155      705.51155      2147.2442      2852.7558      2147.2442      2852.7558      2147.2442      2852.7558      3.5116593e+08  0.1            16733940       68.654561      423.23189      4232.3176      2.5146454    
  58094600   305.40753      9.6319317     -43927891       1.7117415      909.45146     -43926982       705.50953      705.50953      705.50953      2147.2452      2852.7548      2147.2452      2852.7548      2147.2452      2852.7548      3.5116292e+08  0.1            16733960       68.701738      423.93805      4239.3763      2.4671896    
  58094800   305.37654      7.1886197     -43927958       1.7116783      909.35919     -43927049       705.51821      705.51821      705.51821      2147.2409      2852.7591      2147.2409      2852.7591      2147.2409      2852.7591      3.5117588e+08  0.1            16733980       68.748917      423.91611      4239.1669      2.4197342    
  58095000   305.227        1.9639506     -43928026       1.7115371      908.91387     -43927117       705.53761      705.53761      705.53761      2147.2312      2852.7688      2147.2312      2852.7688      2147.2312      2852.7688      3.5120486e+08  0.1            16734000       68.796196      423.01481      4230.1456      2.3722827    
  58095200   305.33682     -3.6440599     -43928090       1.7113851      909.24091     -43927181       705.5585       705.5585       705.5585       2147.2207      2852.7793      2147.2207      2852.7793      2147.2207      2852.7793      3.5123606e+08  0.1            16734020       68.843433      423.40339      4234.0389      2.32483      
  58095400   305.43228     -5.825793      -43928155       1.7113292      909.52516     -43927245       705.56619      705.56619      705.56619      2147.2169      2852.7831      2147.2169      2852.7831      2147.2169      2852.7831      3.5124753e+08  0.1            16734040       68.890628      423.77073      4237.7065      2.2773762    
  58095600   305.35508     -3.2230338     -43928221       1.7114074      909.2953      -43927312       705.55544      705.55544      705.55544      2147.2223      2852.7777      2147.2223      2852.7777      2147.2223      2852.7777      3.5123147e+08  0.1            16734060       68.937815      423.84708      4238.4708      2.2299225    
  58095800   305.34686      1.2441942     -43928287       1.7115377      909.2708      -43927377       705.53753      705.53753      705.53753      2147.2312      2852.7688      2147.2312      2852.7688      2147.2312      2852.7688      3.5120474e+08  0.1            16734080       68.985013      423.74636      4237.4559      2.1824695    
  58096000   305.2229       3.9583409     -43928351       1.7116186      908.90168     -43927442       705.52641      705.52641      705.52641      2147.2368      2852.7632      2147.2368      2852.7632      2147.2368      2852.7632      3.5118813e+08  0.1            16734100       69.032494      421.22212      4212.2272      2.1350257    
  58096200   305.34967      3.3411315     -43928417       1.7116061      909.27918     -43927507       705.52813      705.52813      705.52813      2147.2359      2852.7641      2147.2359      2852.7641      2147.2359      2852.7641      3.5119069e+08  0.1            16734120       69.080609      415.66495      4156.645       2.0876009    
  58096400   305.44317      0.41990956    -43928482       1.7115291      909.5576      -43927573       705.53871      705.53871      705.53871      2147.2306      2852.7694      2147.2306      2852.7694      2147.2306      2852.7694      3.512065e+08   0.1            16734140       69.128215      420.12266      4201.229       2.0401602    
  58096600   305.35907      0.94612694    -43928547       1.7115484      909.30717     -43927638       705.53606      705.53606      705.53606      2147.232       2852.768       2147.232       2852.768       2147.232       2852.768       3.5120253e+08  0.1            16734160       69.175478      423.16097      4231.6123      1.9927093    
  58096800   305.34518      2.8072452     -43928981       1.7116082      909.26579     -43928071       705.52785      705.52785      705.52785      2147.2361      2852.7639      2147.2361      2852.7639      2147.2361      2852.7639      3.5119027e+08  0.1            16734180       69.222767      422.93225      4229.3228      1.9452595    
  58097000   305.21351      3.4432697     -43929046       1.7116303      908.87372     -43928137       705.5248       705.5248       705.5248       2147.2376      2852.7624      2147.2376      2852.7624      2147.2376      2852.7624      3.5118573e+08  0.1            16734200       69.270023      423.22361      4232.2274      1.8978089    
  58097200   305.3304       0.15845505    -43929111       1.7115428      909.2218      -43928202       705.53683      705.53683      705.53683      2147.2316      2852.7684      2147.2316      2852.7684      2147.2316      2852.7684      3.5120368e+08  0.1            16734220       69.317268      423.32516      4233.2579      1.8503584    
  58097400   305.44019      1.1695359     -43929176       1.7115753      909.54873     -43928266       705.53237      705.53237      705.53237      2147.2338      2852.7662      2147.2338      2852.7662      2147.2338      2852.7662      3.5119703e+08  0.1            16734240       69.364508      423.37561      4233.7605      1.8029079    
  58097600   305.35008     -0.14736802    -43936619       1.7115532      909.28039     -43935709       705.53539      705.53539      705.53539      2147.2323      2852.7677      2147.2323      2852.7677      2147.2323      2852.7677      3.5120154e+08  0.1            16734260       69.411886      422.13467      4221.3383      1.7554613    
  58097800   305.34022      3.7145266     -43936683       1.711665       909.25105     -43935774       705.52004      705.52004      705.52004      2147.24        2852.76        2147.24        2852.76        2147.24        2852.76        3.5117861e+08  0.1            16734280       69.459095      423.64819      4236.4854      1.7080106    
  58098000   305.19609      0.70327203    -43936749       1.7115848      908.82185     -43935840       705.53105      705.53105      705.53105      2147.2345      2852.7655      2147.2345      2852.7655      2147.2345      2852.7655      3.5119506e+08  0.1            16734300       69.506429      422.53244      4225.3246      1.6605632    
  58098200   305.31496     -2.1301565     -43936814       1.7115095      909.17583     -43935904       705.5414       705.5414       705.5414       2147.2293      2852.7707      2147.2293      2852.7707      2147.2293      2852.7707      3.5121051e+08  0.1            16734320       69.553637      423.65647      4236.5609      1.613113     
  58098400   305.43295      1.9609062     -43936879       1.7116273      909.52717     -43935969       705.52522      705.52522      705.52522      2147.2374      2852.7626      2147.2374      2852.7626      2147.2374      2852.7626      3.5118635e+08  0.1            16734340       69.60086       423.51531      4235.1593      1.5656636    
  58098600   305.35369      4.625165      -43936943       1.7117051      909.29116     -43936034       705.51453      705.51453      705.51453      2147.2427      2852.7573      2147.2427      2852.7573      2147.2427      2852.7573      3.5117039e+08  0.1            16734360       69.648081      423.54317      4235.4313      1.5182144    
  58098800   305.33535      5.7767268     -43937007       1.7117406      909.23654     -43936098       705.50965      705.50965      705.50965      2147.2452      2852.7548      2147.2452      2852.7548      2147.2452      2852.7548      3.511631e+08   0.1            16734380       69.695274      423.7942       4237.9359      1.4707649    
  58099000   305.19273      3.2408988     -43937073       1.7116733      908.81183     -43936164       705.5189       705.5189       705.5189       2147.2406      2852.7594      2147.2406      2852.7594      2147.2406      2852.7594      3.5117691e+08  0.1            16734400       69.742526      423.26173      4232.6236      1.4233169    
  58099200   305.30287     -2.2951247     -43935243       1.7115178      909.1398      -43934334       705.54026      705.54026      705.54026      2147.2299      2852.7701      2147.2299      2852.7701      2147.2299      2852.7701      3.5120881e+08  0.1            16734420       69.789713      423.8455       4238.4546      1.3758679    
  58099400   305.39928     -4.8118491     -43935307       1.7114509      909.42689     -43934398       705.54946      705.54946      705.54946      2147.2253      2852.7747      2147.2253      2852.7747      2147.2253      2852.7747      3.5122254e+08  0.1            16734440       69.836923      423.64195      4236.4142      1.3284198    
  58099600   305.30882     -5.2652507     -43935372       1.7114414      909.15752     -43934462       705.55076      705.55076      705.55076      2147.2246      2852.7754      2147.2246      2852.7754      2147.2246      2852.7754      3.5122449e+08  0.1            16734460       69.884134      423.629        4236.2963      1.2809719    
  58099800   305.3051       0.38966833    -43935438       1.7116019      909.14645     -43934529       705.5287       705.5287       705.5287       2147.2356      2852.7644      2147.2356      2852.7644      2147.2356      2852.7644      3.5119155e+08  0.1            16734480       69.931322      423.82947      4238.2929      1.233524     
  58100000   305.19559      7.9582941     -43935500       1.7118155      908.82036     -43934591       705.49937      705.49937      705.49937      2147.2503      2852.7497      2147.2503      2852.7497      2147.2503      2852.7497      3.5114774e+08  0.1            16734500       69.978615      422.89892      4228.9931      1.1860783    
  58100200   305.2826      -4.6213647     -43935566       1.7114683      909.07946     -43934657       705.54706      705.54706      705.54706      2147.2265      2852.7735      2147.2265      2852.7735      2147.2265      2852.7735      3.5121897e+08  0.1            16734520       70.025836      423.53743      4235.3632      1.1386315    
  58100400   305.40056     -0.56202875    -43935632       1.7115841      909.43073     -43934722       705.53115      705.53115      705.53115      2147.2344      2852.7656      2147.2344      2852.7656      2147.2344      2852.7656      3.5119521e+08  0.1            16734540       70.073016      423.9125       4239.1329      1.0911844    
  58100600   305.33844      7.8015076     -43935694       1.7118195      909.24572     -43934785       705.49882      705.49882      705.49882      2147.2506      2852.7494      2147.2506      2852.7494      2147.2506      2852.7494      3.5114693e+08  0.1            16734560       70.121263      414.53136      4145.3087      1.0437536    
  58100800   305.27449     -4.6693822     -43935760       1.7114755      909.0553      -43934851       705.54608      705.54608      705.54608      2147.227       2852.773       2147.227       2852.773       2147.227       2852.773       3.5121751e+08  0.1            16734580       70.16843       424.02748      4240.2745      0.99630634   
  58101000   305.15942      1.2669306     -43935825       1.7116432      908.71265     -43934917       705.52303      705.52303      705.52303      2147.2385      2852.7615      2147.2385      2852.7615      2147.2385      2852.7615      3.5118308e+08  0.1            16734600       70.215704      423.06353      4230.6416      0.9488609    
  58101200   305.30275      5.6117864     -43935889       1.7117666      909.13946     -43934980       705.50608      705.50608      705.50608      2147.247       2852.753       2147.247       2852.753       2147.247       2852.753       3.5115777e+08  0.1            16734620       70.262885      423.90084      4239.0086      0.90141449   
  58101400   305.37266     -4.8997753     -43935953       1.7114772      909.34765     -43935044       705.54584      705.54584      705.54584      2147.2271      2852.7729      2147.2271      2852.7729      2147.2271      2852.7729      3.5121715e+08  0.1            16734640       70.310075      423.81642      4238.1586      0.85396856   
  58101600   305.31331      4.5997284     -43936018       1.7117437      909.1709      -43935109       705.50922      705.50922      705.50922      2147.2454      2852.7546      2147.2454      2852.7546      2147.2454      2852.7546      3.5116246e+08  0.1            16734660       70.35733       423.23428      4232.3472      0.80652371   
  58101800   305.28052      1.3312128     -43936083       1.7116556      909.07326     -43935174       705.52133      705.52133      705.52133      2147.2393      2852.7607      2147.2393      2852.7607      2147.2393      2852.7607      3.5118054e+08  0.1            16734680       70.404519      423.83209      4238.3208      0.7590784    
  58102000   305.13308     -2.677261      -43936147       1.711547       908.63421     -43935239       705.53626      705.53626      705.53626      2147.2319      2852.7681      2147.2319      2852.7681      2147.2319      2852.7681      3.5120283e+08  0.1            16734700       70.451754      423.4108       4234.1036      0.71163391   
  58102200   305.29045      6.1208152     -43936210       1.7117938      909.10283     -43935301       705.50235      705.50235      705.50235      2147.2488      2852.7512      2147.2488      2852.7512      2147.2488      2852.7512      3.511522e+08   0.1            16734720       70.499006      423.26274      4232.6268      0.66418986   
  58102400   305.36337     -3.5227229     -43936276       1.7115289      909.31997     -43935366       705.53875      705.53875      705.53875      2147.2306      2852.7694      2147.2306      2852.7694      2147.2306      2852.7694      3.5120655e+08  0.1            16734740       70.546175      424.01151      4240.1243      0.61674533   
  58102600   305.29559      3.5591295     -43936340       1.711728       909.11814     -43935431       705.51139      705.51139      705.51139      2147.2443      2852.7557      2147.2443      2852.7557      2147.2443      2852.7557      3.511657e+08   0.1            16734760       70.593396      423.5398       4235.3859      0.5693016    
  58102800   305.26511      0.8567411     -43936405       1.7116557      909.02736     -43935496       705.52131      705.52131      705.52131      2147.2393      2852.7607      2147.2393      2852.7607      2147.2393      2852.7607      3.5118052e+08  0.1            16734780       70.640579      423.88541      4238.8455      0.52185789   
  58103000   305.1254      -1.000095      -43936469       1.711607       908.61134     -43935560       705.52801      705.52801      705.52801      2147.236       2852.764       2147.236       2852.764       2147.236       2852.764       3.5119052e+08  0.1            16734800       70.687815      423.4003       4234.0224      0.47441488   
  58103200   305.271        4.5006939     -43936532       1.7117622      909.0449      -43935623       705.50669      705.50669      705.50669      2147.2467      2852.7533      2147.2467      2852.7533      2147.2467      2852.7533      3.5115868e+08  0.1            16734820       70.734997      423.89292      4238.9217      0.42697183   
  58103400   305.34973     -3.284902      -43936597       1.7115493      909.27934     -43935687       705.53594      705.53594      705.53594      2147.232       2852.768       2147.232       2852.768       2147.232       2852.768       3.5120236e+08  0.1            16734840       70.782185      423.83142      4238.314       0.37952916   
  58103600   305.2871       5.4531623     -43936660       1.7117941      909.09287     -43935751       705.5023       705.5023       705.5023       2147.2489      2852.7511      2147.2489      2852.7511      2147.2489      2852.7511      3.5115213e+08  0.1            16734860       70.829461      423.05461      4230.552       0.33208724   
  58103800   305.23751     -3.1809785     -43936725       1.7115579      908.94519     -43935816       705.53475      705.53475      705.53475      2147.2326      2852.7674      2147.2326      2852.7674      2147.2326      2852.7674      3.5120059e+08  0.1            16734880       70.876701      423.36975      4233.6902      0.28464539   
  58104000   305.13087      4.6449723     -43936788       1.7117775      908.62761     -43935880       705.50459      705.50459      705.50459      2147.2477      2852.7523      2147.2477      2852.7523      2147.2477      2852.7523      3.5115554e+08  0.1            16734900       70.924055      422.34958      4223.4936      0.23720421   
  58104200   305.23527     -1.9896911     -43936853       1.7115968      908.93852     -43935944       705.52941      705.52941      705.52941      2147.2353      2852.7647      2147.2353      2852.7647      2147.2353      2852.7647      3.5119261e+08  0.1            16734920       70.971274      423.55822      4235.5941      0.18976277   
  58104400   305.35666      3.3212377     -43936917       1.7117468      909.29999     -43936007       705.5088       705.5088       705.5088       2147.2456      2852.7544      2147.2456      2852.7544      2147.2456      2852.7544      3.5116183e+08  0.1            16734940       71.018468      423.78507      4237.8498      0.14232158   
  58104600   305.25208     -0.7128277     -43936981       1.7116383      908.98856     -43936072       705.52371      705.52371      705.52371      2147.2381      2852.7619      2147.2381      2852.7619      2147.2381      2852.7619      3.511841e+08   0.1            16734960       71.065675      423.66149      4236.6067      0.094880745  
  58104800   305.2412       2.2124125     -43937045       1.7117223      908.95617     -43936136       705.51217      705.51217      705.51217      2147.2439      2852.7561      2147.2439      2852.7561      2147.2439      2852.7561      3.5116686e+08  0.1            16734980       71.113869      414.99059      4149.917       0.047440875  
  58105000   305.10361      0.15670662    -43937109       1.7116686      908.54644     -43936200       705.51954      705.51954      705.51954      2147.2402      2852.7598      2147.2402      2852.7598      2147.2402      2852.7598      3.5117787e+08  0.1            16735000       71.161115      423.31434      4233.132       0            
Loop time of 71.1611 on 1 procs for 300000 steps with 1000 atoms

Performance: 36.424 ns/day, 0.659 hours/ns, 4215.785 timesteps/s
99.8% CPU use with 1 MPI tasks x 1 OpenMP threads

MPI task timing breakdown:
Section |  min time  |  avg time  |  max time  |%varavg| %total
---------------------------------------------------------------
Pair    | 56.124     | 56.124     | 56.124     |   0.0 | 78.87
Neigh   | 0.030198   | 0.030198   | 0.030198   |   0.0 |  0.04
Comm    | 1.9253     | 1.9253     | 1.9253     |   0.0 |  2.71
Output  | 0.052855   | 0.052855   | 0.052855   |   0.0 |  0.07
Modify  | 11.532     | 11.532     | 11.532     |   0.0 | 16.21
Other   |            | 1.498      |            |       |  2.10

Nlocal:           1000 ave        1000 max        1000 min
Histogram: 1 0 0 0 0 0 0 0 0 0
Nghost:           1279 ave        1279 max        1279 min
Histogram: 1 0 0 0 0 0 0 0 0 0
Neighs:           6744 ave        6744 max        6744 min
Histogram: 1 0 0 0 0 0 0 0 0 0

Total # of neighbors = 6744
Ave neighs/atom = 6.744
Neighbor list builds = 42
Dangerous builds = 10

# run_style
run_style verlet

# write restart
write_restart ${write_res}
write_restart ./pgnpmf/37/equpmf83.res
System init for write_restart ...
Generated 0 of 1 mixed pair_coeff terms from geometric mixing rule

Total wall time: 0:02:35
