ITEM: TIMESTEP
0
ITEM: NUMBER OF ATOMS
1000
ITEM: BOX BOUNDS pp pp pp
-1.0000000000000000e+02 5.1000000000000000e+03
-1.0000000000000000e+02 5.1000000000000000e+03
-1.0000000000000000e+02 5.1000000000000000e+03
ITEM: ATOMS type x y z ix iy iz
1 0 1053.96 1056.46 0 0 0
1 4530.3 4994.91 1275.63 0 0 0
1 2312.77 1461.2 1180.03 0 0 0
1 1684.11 824.486 3132.84 0 0 0
1 3932.86 1033.62 4643 0 0 0
1 71.765 388.543 3279.47 0 0 0
1 2642.81 633.171 2329.75 0 0 0
1 0 1728.53 4928.54 0 0 0
1 2791.08 1503.8 2586.77 0 0 0
1 2848.89 1415.33 1770.85 0 0 0
1 2345.49 683.322 2611.47 0 0 0
1 1151.03 975.089 1162.27 0 0 0
1 72.972 1551.65 0 0 0 0
1 5000 1552.91 5.57 0 0 0
1 3049.72 573.934 1934.2 0 0 0
1 2418.91 4434.03 10.574 0 0 0
1 3150.04 1988.71 1507.06 0 0 0
1 537.785 1737.2 1615.05 0 0 0
1 0 2056.83 1522.97 0 0 0
1 4987.21 1781.16 3125.25 0 0 0
1 2063.49 4167.01 1557.92 0 0 0
1 1473.74 1262.8 4840.1 0 0 0
1 839.522 1042.6 4680.82 0 0 0
1 2163.16 0 4388.25 0 0 0
1 1003.15 185.252 955.821 0 0 0
1 3709.42 3709.73 2013.33 0 0 0
1 1788.56 2085.68 4422.84 0 0 0
1 2831.2 425.238 1776.54 0 0 0
1 63.426 874.831 0 0 0 0
1 2914.01 1633.97 820.364 0 0 0
1 2532.49 2484.22 3876.36 0 0 0
1 546.831 2262.4 3716.69 0 0 0
1 425.064 91.177 2204.5 0 0 0
1 94.589 779.63 551.992 0 0 0
1 4363.32 2057.16 17.941 0 0 0
1 137.897 110.961 524.359 0 0 0
1 1777.84 1474.88 2637.46 0 0 0
1 3229.19 0 1309.21 0 0 0
1 0.334 1939.45 3608.18 0 0 0
1 1212.21 196.776 1346.73 0 0 0
1 424.924 360.84 534.911 0 0 0
1 1448.68 1336.13 255.687 0 0 0
1 1374.97 236.991 1083.07 0 0 0
1 1536.59 263.334 4.638 0 0 0
1 629.187 1033.86 0 0 0 0
1 0.001 0.001 1437.6 0 0 0
1 135.05 27.995 353.789 0 0 0
1 975.576 1067.56 359.061 0 0 0
1 1.514 1867.74 2541.68 0 0 0
1 221.491 551.985 431.126 0 0 0
1 1.788 940.944 867.359 0 0 0
1 551.916 641.332 942.826 0 0 0
1 286.655 104.573 122.15 0 0 0
1 93.109 774.96 838.442 0 0 0
1 403.251 497.299 164.593 0 0 0
1 2611.05 334.404 1.22 0 0 0
1 619.29 497.412 470.241 0 0 0
1 125.797 401.526 153.64 0 0 0
1 0.639 3757.44 3057.74 0 0 0
1 626.486 539.235 805.716 0 0 0
1 148.843 568.2 825.614 0 0 0
1 488.907 263.419 567.945 0 0 0
1 887.519 613.674 808.478 0 0 0
1 1005.99 600.065 950.647 0 0 0
1 65.187 818.421 662.848 0 0 0
1 482.877 462.602 479.665 0 0 0
1 745.421 255.375 133.944 0 0 0
1 362.048 451.996 481.825 0 0 0
1 880.987 2253.22 214.102 0 0 0
1 942.431 540.59 418.236 0 0 0
1 19.292 382.422 281.542 0 0 0
1 342.019 153.605 558.652 0 0 0
1 159.682 984.344 800.578 0 0 0
1 289.286 983.215 396.729 0 0 0
1 744.7 546.538 69.917 0 0 0
1 242.152 665.683 893.845 0 0 0
1 911.205 301.387 859.759 0 0 0
1 846.786 698.147 913.91 0 0 0
1 965.475 121.724 122.752 0 0 0
1 271.827 925.566 590.226 0 0 0
1 409.284 139.402 769.073 0 0 0
1 945.53 375.36 0 0 0 0
1 541.723 318.443 215.79 0 0 0
1 3042.76 1943.3 43.269 0 0 0
1 330.619 809.212 687.447 0 0 0
1 342.623 764.889 805.097 0 0 0
1 387.721 207.146 878.304 0 0 0
1 272.873 850.894 1793.2 0 0 0
1 133.971 905.994 712.141 0 0 0
1 393.249 376.269 1004.12 0 0 0
1 542.191 254.036 318.252 0 0 0
1 311.521 767.077 36.044 0 0 0
1 4702.84 5000 3548.73 0 0 0
1 1012.96 327.185 234.958 0 0 0
1 47.084 203.693 170.586 0 0 0
1 145.479 715.268 698.393 0 0 0
1 696.559 112.591 309.787 0 0 0
1 431.321 444.997 756.205 0 0 0
1 211.214 839.964 121.344 0 0 0
1 604.431 163.761 369.609 0 0 0
1 285.794 357.25 466.941 0 0 0
1 266.768 159.88 1017.48 0 0 0
1 1026.37 1486.95 543.836 0 0 0
1 1016.3 232.657 505.877 0 0 0
1 550.974 787.992 434.072 0 0 0
1 1349.04 3627.59 2065.55 0 0 0
1 401.4 946.575 561.2 0 0 0
1 675.741 922.486 422.867 0 0 0
1 568.944 359.838 656.334 0 0 0
1 553.303 560.704 666.668 0 0 0
1 1001.49 127.101 262.704 0 0 0
1 744.977 433.513 410.241 0 0 0
1 887.438 904.025 79.788 0 0 0
1 633.087 884.885 667.629 0 0 0
1 0 470.936 768.673 0 0 0
1 821.235 638.242 1023.64 0 0 0
1 389.983 129.153 996.171 0 0 0
1 676.222 744.451 18.051 0 0 0
1 18.347 633.832 367.329 0 0 0
1 3531.86 4662.02 3411.23 0 0 0
1 113.207 425.575 832.828 0 0 0
1 759.978 194.542 440.497 0 0 0
1 0.095 4338.15 879.211 0 0 0
1 290.423 1399.12 3155.88 0 0 0
1 609.947 368.066 782.806 0 0 0
1 384.861 713.863 325.825 0 0 0
1 361.225 580.64 437.439 0 0 0
1 682.627 780.103 733.044 0 0 0
1 279.214 166.618 429.998 0 0 0
1 743.955 689.117 808.671 0 0 0
1 481.296 356.732 421.109 0 0 0
1 189.65 1009.06 559.905 0 0 0
1 736.228 589.534 220.794 0 0 0
1 183.91 132.542 94.03 0 0 0
1 945.963 795.539 829.834 0 0 0
1 10.017 2761.21 2242.5 0 0 0
1 18.907 111.818 828.686 0 0 0
1 1022.79 121.959 783.125 0 0 0
1 585.049 760.488 309.615 0 0 0
1 261.406 761.868 600.236 0 0 0
1 545.235 869.599 275.713 0 0 0
1 421.813 839.608 613.952 0 0 0
1 807.561 473.026 682.209 0 0 0
1 509.211 816.551 1032.35 0 0 0
1 766.357 194.838 246.846 0 0 0
1 176.369 611.61 44.92 0 0 0
1 399.122 678.373 107.644 0 0 0
1 337.132 547.97 844.281 0 0 0
1 895.121 562.367 917.798 0 0 0
1 424.021 253.848 393.264 0 0 0
1 1065.28 583.284 54.817 0 0 0
1 31.511 602.178 803.544 0 0 0
1 572.159 520.431 947.513 0 0 0
1 443.483 967.769 406.497 0 0 0
1 4017.94 4.384 23.064 0 0 0
1 870.554 12.435 414.01 0 0 0
1 595.416 521.123 86.524 0 0 0
1 214.238 246.963 929.146 0 0 0
1 653.159 677.845 999.079 0 0 0
1 162.211 229.254 749.075 0 0 0
1 104.325 957.453 457.646 0 0 0
1 565.469 354.579 535.365 0 0 0
1 300.864 188.751 791.077 0 0 0
1 330.326 285.543 56.921 0 0 0
1 761.887 719.851 284.439 0 0 0
1 48.968 1530.93 106.59 0 0 0
1 902.662 182.535 835.654 0 0 0
1 617.048 651.389 496.003 0 0 0
1 470.213 904.507 135.445 0 0 0
1 604.655 0 470.467 0 0 0
1 613.262 108.156 190.104 0 0 0
1 304.38 92.123 337.797 0 0 0
1 997.659 262.342 621.974 0 0 0
1 306.069 900.826 77.305 0 0 0
1 782.897 831.379 240.42 0 0 0
1 952.622 814.021 952.547 0 0 0
1 908.968 0.521 845.34 0 0 0
1 435.766 1054.22 507.353 0 0 0
1 312.679 0 737.379 0 0 0
1 93.03 277.851 843.707 0 0 0
1 330.974 78.869 657.257 0 0 0
1 875.455 50.793 597.759 0 0 0
1 2.051 418.199 1363.48 0 0 0
1 159.303 323.837 367.374 0 0 0
1 855.977 728.231 784.964 0 0 0
1 661.789 500.097 352.907 0 0 0
1 506.871 552.434 274.46 0 0 0
1 165.197 901.729 356.788 0 0 0
1 317.749 1029.41 518.719 0 0 0
1 680.831 66.38 559.202 0 0 0
1 676.053 856.598 42.73 0 0 0
1 476.356 608.514 462.111 0 0 0
1 15.976 27.731 81.616 0 0 0
1 780.923 0 545.622 0 0 0
1 328.363 876.73 494.652 0 0 0
1 798.418 57.551 963.717 0 0 0
1 196.894 1049.01 444.929 0 0 0
1 1140.68 2608.53 5000 0 0 0
1 620.818 975.412 788.022 0 0 0
1 239.058 563.273 142.565 0 0 0
1 158.499 809.41 453.526 0 0 0
1 182.562 1171.41 654.638 0 0 0
1 257.001 375.353 991.708 0 0 0
1 799.213 653.518 54.924 0 0 0
1 367.313 455.779 605.024 0 0 0
1 66.38 1026.83 923.172 0 0 0
1 300.88 320.324 887.283 0 0 0
1 638.31 942.414 301.687 0 0 0
1 28.62 2708.51 2556.26 0 0 0
1 808.939 793.515 550.506 0 0 0
1 937.293 445.83 342.577 0 0 0
1 608.303 66.586 656.05 0 0 0
1 569.755 975.099 395.043 0 0 0
1 623.881 396.573 1019.92 0 0 0
1 1032.79 2161.07 293.871 0 0 0
1 605.29 419.758 269.094 0 0 0
1 439.766 251.101 226.459 0 0 0
1 357.761 380.187 136.903 0 0 0
1 926.845 151.833 1036.97 0 0 0
1 419.047 690.63 606.879 0 0 0
1 860.853 1030.23 650.877 0 0 0
1 34.581 383.69 694.526 0 0 0
1 1021.72 210.969 849.939 0 0 0
1 654.13 356.459 176.448 0 0 0
1 3176.55 4257.87 4501.42 0 0 0
1 648.73 504.819 587.377 0 0 0
1 337.71 301.583 267.436 0 0 0
1 298.962 692.985 701.326 0 0 0
1 436.097 478.411 339.013 0 0 0
1 368.543 360.469 377.369 0 0 0
1 235.786 505.903 896.446 0 0 0
1 561.997 203.811 945.049 0 0 0
1 295.552 125.428 896.829 0 0 0
1 791.746 869.098 646.949 0 0 0
1 477.269 998.457 235.713 0 0 0
1 532.65 691.286 86.415 0 0 0
1 63.619 188.636 400.865 0 0 0
1 320.186 695.015 1024.29 0 0 0
1 563.679 1068.2 315.022 0 0 0
1 638.595 316.015 357.054 0 0 0
1 568.283 51.896 327.161 0 0 0
1 965.104 610.034 535.635 0 0 0
1 196.754 21.431 115.957 0 0 0
1 933.503 963.514 799.65 0 0 0
1 724.985 1122.15 831.253 0 0 0
1 998.285 0.4 1058.2 0 0 0
1 723.67 1009.09 506.009 0 0 0
1 740.285 465.23 267.683 0 0 0
1 464.943 1016.17 637.095 0 0 0
1 436.317 719.483 435.211 0 0 0
1 426.264 219.132 109.891 0 0 0
1 189.626 846.557 852.573 0 0 0
1 4630.2 1406.39 2755.28 0 0 0
1 985.084 809.735 622.198 0 0 0
1 22.84 432.141 97.927 0 0 0
1 0 1378.63 3135.71 0 0 0
1 1095.89 1636.37 3695.98 0 0 0
1 832.63 953.186 431.227 0 0 0
1 75.709 8.321 591.57 0 0 0
1 620.794 907.839 546.042 0 0 0
1 972.369 564.259 662.852 0 0 0
1 261.815 447.136 167.776 0 0 0
1 882.431 783.65 680.706 0 0 0
1 903.313 502.252 231.655 0 0 0
1 701.727 804.646 586.703 0 0 0
1 805.694 801.475 1250.48 0 0 0
1 812.082 845.777 849.561 0 0 0
1 455.354 0 941.21 0 0 0
1 196.892 338.375 826.887 0 0 0
1 720.849 712.206 517.111 0 0 0
1 786.944 424.072 902.799 0 0 0
1 659.654 412.31 905.106 0 0 0
1 433.505 551.864 918.476 0 0 0
1 687.563 1055.04 397.919 0 0 0
1 211.946 474.607 782.017 0 0 0
1 786.055 687.553 170.29 0 0 0
1 1645.25 279.844 4789.86 0 0 0
1 1026.9 749.564 741.049 0 0 0
1 347.156 431.575 875.784 0 0 0
1 573.945 717.251 197.148 0 0 0
1 479.759 614.377 171.599 0 0 0
1 162.563 648.083 2151.49 0 0 0
1 305.896 460.117 42.76 0 0 0
1 463.38 261.027 800.623 0 0 0
1 799.266 764.988 7.857 0 0 0
1 769.837 385.588 602.416 0 0 0
1 483.662 86.207 246.079 0 0 0
1 1019.01 880.51 876.301 0 0 0
1 39.711 267.582 951.919 0 0 0
1 646.217 219.559 473.661 0 0 0
1 832.087 245.894 971.041 0 0 0
1 343.357 628.169 202.572 0 0 0
1 4999.28 0.146 3050.39 0 0 0
1 981.513 463.185 502.636 0 0 0
1 316.88 1021.32 74.802 0 0 0
1 647.77 645.795 751.461 0 0 0
1 0 997.203 2477.33 0 0 0
1 436.07 843.812 450.416 0 0 0
1 855.406 1066.73 394.151 0 0 0
1 255.057 613.84 784.357 0 0 0
1 170.749 855.038 245.28 0 0 0
1 576.576 1008.89 990.243 0 0 0
1 852.506 248.825 369.91 0 0 0
1 940.626 231.151 251.804 0 0 0
1 153.228 474.643 49.308 0 0 0
1 747.74 319.195 852.947 0 0 0
1 236.23 964.981 161.165 0 0 0
1 459.431 145.598 595.936 0 0 0
1 888.681 835.5 398.281 0 0 0
1 917.816 637.736 72.962 0 0 0
1 548.222 455.9 726.929 0 0 0
1 375.067 769.795 526.633 0 0 0
1 684.105 834.272 329.852 0 0 0
1 986.971 665.764 276.004 0 0 0
1 2394.17 2156.9 2407.83 0 0 0
1 64.489 1057.67 402.772 0 0 0
1 753.189 270.168 662.996 0 0 0
1 1015.54 448.622 197.696 0 0 0
1 135.254 134.933 649.893 0 0 0
1 641.876 615.58 383.089 0 0 0
1 716.25 290.728 549.62 0 0 0
1 519.923 26.623 552.485 0 0 0
1 888.731 182.206 31.424 0 0 0
1 933.743 351.956 571.699 0 0 0
1 675.553 778.259 222.939 0 0 0
1 299.848 1232.24 481.287 0 0 0
1 131.302 355.888 1010.37 0 0 0
1 964.677 480.965 1092.54 0 0 0
1 1052.57 822.319 170.77 0 0 0
1 721.343 887.972 781.254 0 0 0
1 746.087 970.223 92.645 0 0 0
1 534.333 390.288 118.709 0 0 0
1 232.252 1759.97 241.664 0 0 0
1 956.236 769.151 221.112 0 0 0
1 784.973 851.078 93.844 0 0 0
1 507.507 910.157 954.941 0 0 0
1 1001.72 546.974 312.319 0 0 0
1 90.512 556.152 113.04 0 0 0
1 741.362 148.178 1033.72 0 0 0
1 1032.34 396.061 667.72 0 0 0
1 262.092 781.467 214.226 0 0 0
1 268.631 544.049 636.595 0 0 0
1 546.545 660.763 820.585 0 0 0
1 771.838 848.631 427.231 0 0 0
1 551.056 562.994 545.71 0 0 0
1 50.52 520.222 340.896 0 0 0
1 382.659 876.037 337.234 0 0 0
1 73.71 857.584 917.676 0 0 0
1 1836.03 720.575 888.462 0 0 0
1 0.706 2304.76 1.988 0 0 0
1 665.808 261.934 252.292 0 0 0
1 659.119 541.04 1035.38 0 0 0
1 1195.23 200.95 1659.86 0 0 0
1 7.407 284.693 529.071 0 0 0
1 512.281 701.644 530.543 0 0 0
1 360.258 925.673 673.271 0 0 0
1 860.175 117.304 252.448 0 0 0
1 156.67 1020.23 333.643 0 0 0
1 834.2 508.079 330.804 0 0 0
1 1874.17 2617.69 1153.51 0 0 0
1 0 516.704 881.778 0 0 0
1 2538.35 3575.54 1774.63 0 0 0
1 528.089 218.459 446.296 0 0 0
1 1002.79 581.64 790.39 0 0 0
1 859.692 396.007 420.887 0 0 0
1 664.837 362.716 466.79 0 0 0
1 805.922 109.234 361.544 0 0 0
1 39.362 87.413 250.294 0 0 0
1 988.169 2719.73 566.927 0 0 0
1 717.989 767.735 897.253 0 0 0
1 149.789 888.383 562.628 0 0 0
1 119.592 200.412 294.251 0 0 0
1 4983.62 4706.32 4020.16 0 0 0
1 2562.91 1316.52 2444.81 0 0 0
1 837.447 231.681 585.148 0 0 0
1 621.985 948.463 69.95 0 0 0
1 65.646 3364.39 4343.97 0 0 0
1 6.336 2184.8 22.656 0 0 0
1 318.958 999.304 970.447 0 0 0
1 259.643 1022.02 270.126 0 0 0
1 1007.85 690.61 143.396 0 0 0
1 267.867 271.675 703.931 0 0 0
1 610.142 814.632 963.99 0 0 0
1 2530.64 2810.17 3069.07 0 0 0
1 946.239 93.52 906.608 0 0 0
1 281.074 659.829 83.037 0 0 0
1 0 576.616 38.503 0 0 0
1 334.696 748.835 913.753 0 0 0
1 630.844 216.987 140.227 0 0 0
1 56.105 511.999 220.306 0 0 0
1 856.728 203.183 163.514 0 0 0
1 220.676 503.138 306.306 0 0 0
1 813.728 3706.1 1472.37 0 0 0
1 768.471 169.672 50.55 0 0 0
1 832.346 620.99 287.224 0 0 0
1 1015.66 501.936 880.517 0 0 0
1 867.934 695.993 592.102 0 0 0
1 912.668 230.899 702.798 0 0 0
1 509.685 514.551 825.53 0 0 0
1 496.038 444.208 221.482 0 0 0
1 900.824 112.228 737.257 0 0 0
1 315.91 633.324 591.32 0 0 0
1 221.455 378.178 75.381 0 0 0
1 455.237 870.844 753.405 0 0 0
1 372.833 984.119 863.172 0 0 0
1 669.729 817.727 481.456 0 0 0
1 374.1 342.045 783.916 0 0 0
1 980.967 681.574 855.37 0 0 0
1 671.458 184.476 586.931 0 0 0
1 878.678 197.918 476.515 0 0 0
1 900.748 713.357 441.359 0 0 0
1 2126.56 2082.2 1238.21 0 0 0
1 42.13 898.794 232.511 0 0 0
1 483.678 56.427 839.594 0 0 0
1 998.357 767.658 343.352 0 0 0
1 191.277 244.64 558.756 0 0 0
1 433.138 551.11 570.102 0 0 0
1 312.32 31.615 516.534 0 0 0
1 881.079 920.774 944.757 0 0 0
1 664.787 422.994 58.915 0 0 0
1 651.145 616.009 606.754 0 0 0
1 1182.14 1038.76 3025.18 0 0 0
1 800.155 538.913 770.709 0 0 0
1 19.177 834.176 474.682 0 0 0
1 864.537 774.054 138.68 0 0 0
1 215.54 114.711 739.759 0 0 0
1 164.229 139.954 899.529 0 0 0
1 485.56 800.744 195.772 0 0 0
1 901.025 656.052 191.383 0 0 0
1 435.879 33.968 639.224 0 0 0
1 580.467 417.569 387.824 0 0 0
1 671.109 242.954 994.809 0 0 0
1 1043.46 235.49 159.214 0 0 0
1 736.085 357.631 990.206 0 0 0
1 661.347 117.69 2861.42 0 0 0
1 8.087 719.019 772.998 0 0 0
1 1733.48 4542.64 2083.91 0 0 0
1 402.141 167.469 311.406 0 0 0
1 2701.17 3098.34 318.838 0 0 0
1 682.862 273.899 761.401 0 0 0
1 247.704 708.986 310.039 0 0 0
1 770.864 576.26 605.849 0 0 0
1 852.445 344.642 775.142 0 0 0
1 527.291 454.09 592.827 0 0 0
1 353.166 311.098 621.188 0 0 0
1 883.073 502.648 560.901 0 0 0
1 1184.43 2843.26 2327.16 0 0 0
1 733.902 96.916 164.695 0 0 0
1 992.386 307.78 762.339 0 0 0
1 523.886 971.014 506.938 0 0 0
1 1079.43 565.497 514.76 0 0 0
1 84.082 347.035 459.246 0 0 0
1 625.266 550.483 249.139 0 0 0
1 441.69 750.113 727.234 0 0 0
1 126.331 427.851 315.064 0 0 0
1 716.567 458.508 808.835 0 0 0
1 666.96 733.414 394.451 0 0 0
1 1845.29 3576.24 83.14 0 0 0
1 115.118 181.8 21.342 0 0 0
1 1025.47 718.424 966.547 0 0 0
1 1681.55 0 457.563 0 0 0
1 324.364 986.316 2142.56 0 0 0
1 202.185 428.718 410.776 0 0 0
1 432.46 800.745 76.797 0 0 0
1 799.923 500.66 168.414 0 0 0
1 895.631 411.358 106.377 0 0 0
1 4265.05 2175.21 177.449 0 0 0
1 800.91 0 311.912 0 0 0
1 1120.01 1788.15 95.846 0 0 0
1 458.788 251.226 987.098 0 0 0
1 3134.64 4027.93 3120.56 0 0 0
1 344.577 252.615 484.523 0 0 0
1 940.623 668.882 714.813 0 0 0
1 96.787 513.218 440.705 0 0 0
1 746.877 899.148 535.288 0 0 0
1 379.804 743.395 208.589 0 0 0
1 1034.69 359.789 91.4 0 0 0
1 319.976 486.604 373.441 0 0 0
1 674.92 477.282 166.575 0 0 0
1 231.53 24.564 426.733 0 0 0
1 3978.11 614.929 3404.55 0 0 0
1 649.664 173.261 24.953 0 0 0
1 564.912 285.617 1035.19 0 0 0
1 217.188 914.545 465.48 0 0 0
1 276.368 198.204 283.845 0 0 0
1 653.269 665.81 273.604 0 0 0
1 180.158 949.234 947.487 0 0 0
1 0.527 311.961 3214.56 0 0 0
1 24.491 704.821 653.921 0 0 0
1 298.14 892.818 244.895 0 0 0
1 274.021 285.387 369.038 0 0 0
1 787.688 731.34 402.092 0 0 0
1 189.318 2758.86 2106.55 0 0 0
1 1046.08 681.936 628.737 0 0 0
1 279.356 570.472 992.141 0 0 0
1 379.433 993.23 306.89 0 0 0
1 130.422 658.992 939.829 0 0 0
1 830.712 981.541 213.78 0 0 0
1 0 2003 1110.54 0 0 0
1 930.377 296.365 137.948 0 0 0
1 372.884 114.508 206.451 0 0 0
1 139.031 49.097 1004.73 0 0 0
1 640.054 305.559 43.473 0 0 0
1 535.309 1507.6 1196.66 0 0 0
1 660.127 435.31 685.762 0 0 0
1 595.313 783.943 846.725 0 0 0
1 914.385 499.559 749.862 0 0 0
1 326.103 500.209 733.36 0 0 0
1 1314.72 589.955 1846.69 0 0 0
1 161.05 344.029 710.706 0 0 0
1 322.363 2204.18 722.311 0 0 0
1 1041.89 388.948 364.145 0 0 0
1 216.869 28.828 853.925 0 0 0
1 72.413 496.557 657.653 0 0 0
1 284.816 598.783 343.482 0 0 0
1 984.534 568.01 161.224 0 0 0
1 1011.08 349.333 474.247 0 0 0
1 474.002 796.768 341.128 0 0 0
1 517.413 836.408 539.76 0 0 0
1 330.074 521.378 257.904 0 0 0
1 993.89 650.944 395.892 0 0 0
1 1695.2 29.431 2153.77 0 0 0
1 232.022 379.923 263.879 0 0 0
1 907.203 0 968.746 0 0 0
1 805.924 639.302 703.267 0 0 0
1 812.392 236.759 775.863 0 0 0
1 466.688 316.631 50.625 0 0 0
1 3504.62 4165.88 3525.47 0 0 0
1 337.33 250.901 979.439 0 0 0
1 648.187 1177.32 103.119 0 0 0
1 371.866 987.224 177.121 0 0 0
1 533.25 529.152 390.633 0 0 0
1 1846.63 0 564.02 0 0 0
1 876.903 752.57 310.961 0 0 0
1 941.056 324.898 338.084 0 0 0
1 142.986 633.62 379.146 0 0 0
1 449.747 381.702 654.27 0 0 0
1 403.917 593.9 322.659 0 0 0
1 951.096 496.815 40.771 0 0 0
1 798.138 887.763 1145.65 0 0 0
1 3203.89 2404.86 946.782 0 0 0
1 953.21 806.969 497.251 0 0 0
1 818.58 297.745 47.379 0 0 0
1 1004.8 852.145 63.673 0 0 0
1 696.971 549.917 697.974 0 0 0
1 1053.93 492.436 994.92 0 0 0
1 960.362 10.888 708.824 0 0 0
1 538.336 678.136 384.95 0 0 0
1 1003.87 977.364 664.613 0 0 0
1 768.289 745.467 659.066 0 0 0
1 1140.37 1499.69 749.489 0 0 0
1 536.437 185.283 70.528 0 0 0
1 269.006 839.317 356.621 0 0 0
1 587.473 895.067 868.13 0 0 0
1 727.866 19.534 820.602 0 0 0
1 910.169 1015.98 119.953 0 0 0
1 753.528 313.808 394.824 0 0 0
1 489.237 677.546 274.363 0 0 0
1 93.568 15.841 883.118 0 0 0
1 1642.8 438.814 1118.35 0 0 0
1 610.607 40.42 854.007 0 0 0
1 800.09 966.83 734.124 0 0 0
1 80.814 279.998 656.744 0 0 0
1 235.422 783.804 760.558 0 0 0
1 2704.88 2593.8 0.25 0 0 0
1 939.322 3024.55 3625.56 0 0 0
1 1058.62 432.955 778.42 0 0 0
1 917.881 5.506 234.415 0 0 0
1 345.974 1827.09 2737.61 0 0 0
1 176.565 594.392 694.341 0 0 0
1 383.029 412.73 252.141 0 0 0
1 815.602 94.911 483.716 0 0 0
1 602.96 850.417 158.158 0 0 0
1 486.878 1035.47 759.595 0 0 0
1 179.887 1927.4 2001.95 0 0 0
1 1069.2 228 1033.45 0 0 0
1 527.726 934.399 700.339 0 0 0
1 14.545 3214.99 4997.41 0 0 0
1 556.899 152.649 835.541 0 0 0
1 2502.38 1298.84 0 0 0 0
1 504.928 1164.97 861.181 0 0 0
1 2676.76 1935.53 269.578 0 0 0
1 898.616 443.971 860.678 0 0 0
1 1203.1 514.544 1360.28 0 0 0
1 1363.66 0 1812.23 0 0 0
1 140.703 345.246 576.64 0 0 0
1 1325.33 450.468 0.002 0 0 0
1 740.424 1000.2 632.413 0 0 0
1 2029.24 2592.72 2179.8 0 0 0
1 0.229 0.905 3971.45 0 0 0
1 729.374 1626.34 975.03 0 0 0
1 278.594 1535.42 4795.57 0 0 0
1 270.201 396.087 707.389 0 0 0
1 0 3042.8 2269.98 0 0 0
1 0 220.065 823.666 0 0 0
1 1750.91 1370.02 366.854 0 0 0
1 2792.59 2213.53 1458.84 0 0 0
1 1659.72 51.377 62.627 0 0 0
1 958.383 107.934 459.109 0 0 0
1 258.024 163.349 648.706 0 0 0
2 38.981 4492.53 1130.6 0 0 0
2 4909.01 2360.83 11.514 0 0 0
2 0 5000 2757.33 0 0 0
2 4982.73 0.178 4997.05 0 0 0
2 2.932 14.01 4985.3 0 0 0
2 4832.62 2115.36 2112.27 0 0 0
2 2592.45 3699.67 176.311 0 0 0
2 1937.97 1439.85 1462.08 0 0 0
2 4961.74 67.844 4382.28 0 0 0
2 1136.85 3991.04 3635.98 0 0 0
2 0 1994.1 4600.48 0 0 0
2 1954.34 0 3085.09 0 0 0
2 52.054 4842.21 3.951 0 0 0
2 2565.47 1725.29 1391.95 0 0 0
2 0 3393.17 3434.85 0 0 0
2 4377.01 4164.6 584.614 0 0 0
2 2082.85 564.528 2714.27 0 0 0
2 1941.16 4741.32 2978.81 0 0 0
2 4880.17 5000 2367.42 0 0 0
2 0 3355.7 2768.74 0 0 0
2 892.469 5000 0 0 0 0
2 1472.94 5000 0 0 0 0
2 1410.2 2602.2 0 0 0 0
2 0.004 4999.99 665.445 0 0 0
2 3011.06 1361.27 4999.99 0 0 0
2 4183.82 4577.71 992.544 0 0 0
2 6.329 4289.08 4179.69 0 0 0
2 3.06 1214.09 3936.47 0 0 0
2 1117.84 1106.04 1535.73 0 0 0
2 2699.64 4949.61 25.217 0 0 0
2 4305.72 4999.99 2642.41 0 0 0
2 1900.1 0 1499.8 0 0 0
2 0 149.636 1846.6 0 0 0
2 0 706.653 4075.74 0 0 0
2 0 2488.15 2601.65 0 0 0
2 373.604 759.743 2247.89 0 0 0
2 3984.25 1469.45 0 0 0 0
2 0 1884.43 728.112 0 0 0
2 5000 1979.65 5000 0 0 0
2 2908.18 4561.74 5000 0 0 0
2 2396.55 2045.62 2806.51 0 0 0
2 2669.62 66.862 153.582 0 0 0
2 644.794 0 1423.84 0 0 0
2 0 1545.45 4625.53 0 0 0
2 2716.84 0 369.461 0 0 0
2 2032.34 560.495 0 0 0 0
2 413.284 1134.48 4349.02 0 0 0
2 1713.96 5000 5000 0 0 0
2 462.391 60.067 109.286 0 0 0
2 1564.95 1127.73 907.759 0 0 0
2 0 771.139 1176.84 0 0 0
2 566.603 724.024 664.932 0 0 0
2 3080.53 2141.85 0 0 0 0
2 1180.4 43.172 247.356 0 0 0
2 613.357 1046.81 3833.34 0 0 0
2 2070.61 2006.05 3134.53 0 0 0
2 80.757 2017.03 199.876 0 0 0
2 39.04 1503.51 553.807 0 0 0
2 2659.92 848.796 3315.96 0 0 0
2 1293.92 721.54 970.979 0 0 0
2 2419.78 0 308.351 0 0 0
2 0 1293.72 608.217 0 0 0
2 552.836 130.258 1080.04 0 0 0
2 737.328 3080.12 0 0 0 0
2 2448.14 2363.1 0 0 0 0
2 1061.36 0 867.219 0 0 0
2 5000 0 2096.6 0 0 0
2 1595.68 1731.03 1504.35 0 0 0
2 400.239 2138.72 4502.09 0 0 0
2 1462.54 578.212 0.001 0 0 0
2 1869.6 510.41 3608.41 0 0 0
2 2.705 2832.25 2450.35 0 0 0
2 3052.8 0 1970.74 0 0 0
2 206.887 1196.71 970.091 0 0 0
2 676.869 2980.09 5000 0 0 0
2 1248.48 522.472 264.581 0 0 0
2 5.35 95.133 1011.1 0 0 0
2 964.312 1297.81 109.188 0 0 0
2 2411.87 4992.92 1972.45 0 0 0
2 42.336 921.769 1038.17 0 0 0
2 0.668 2956.13 4904.67 0 0 0
2 2925.85 0 4633.24 0 0 0
2 1511.75 1741.14 2477.74 0 0 0
2 0 424.936 1183.67 0 0 0
2 595.676 2450.92 0 0 0 0
2 1412.49 2141.89 972.526 0 0 0
2 0 942.236 3414.08 0 0 0
2 218.208 365.423 1127.87 0 0 0
2 1199.1 424.937 3099.19 0 0 0
2 5000 5000 0 0 0 0
2 332.243 1020.96 1874.28 0 0 0
2 5000 3236.39 0 0 0 0
2 505.732 375.411 898.94 0 0 0
2 829.582 4701.19 1507.69 0 0 0
2 1258.56 155.715 404.665 0 0 0
2 1601.66 2333.44 2711.48 0 0 0
2 3610.74 1241.64 1523.75 0 0 0
2 5000 2633.93 4125.41 0 0 0
2 2982.63 0 1151.27 0 0 0
2 67.744 3490.71 771.009 0 0 0
2 2636.38 551.084 0 0 0 0
2 1230.18 546.175 943.61 0 0 0
2 2426.24 4316.02 629.225 0 0 0
2 1036.6 114.246 602.965 0 0 0
2 2343.33 312.894 28.094 0 0 0
2 1641.86 1919.2 4085.76 0 0 0
2 145.974 173.761 1424.92 0 0 0
2 5000 1429.47 1715.71 0 0 0
2 588.144 106.53 1723 0 0 0
2 861.279 43.121 0 0 0 0
2 0 171.157 691.714 0 0 0
2 13.975 2681.25 6.971 0 0 0
2 0 2863.12 1935.03 0 0 0
2 265.505 1275.9 738.268 0 0 0
2 3851.38 451.845 0 0 0 0
2 2488.08 3167.36 0 0 0 0
2 183.832 476.786 546.025 0 0 0
2 6.665 1816.48 1171.42 0 0 0
2 582.59 1114.38 689.118 0 0 0
2 447.677 1381.06 0 0 0 0
2 3650.33 1525.27 1777.43 0 0 0
2 52.027 88.007 2302.18 0 0 0
2 2150.46 3333.41 1262.33 0 0 0
2 3351.31 0 1596.89 0 0 0
2 1788.59 3700.22 3.027 0 0 0
2 529.384 2145.57 133.047 0 0 0
2 190.56 262.922 172.737 0 0 0
2 1243.47 697.073 548.073 0 0 0
2 1547.52 1022.86 5000 0 0 0
2 79.559 489.842 2063.03 0 0 0
2 1797.86 2234.62 5000 0 0 0
2 258.206 692.414 462.824 0 0 0
2 1350.09 4648.79 341.662 0 0 0
2 481.255 1349.28 1416.48 0 0 0
2 706.796 64.646 2608.06 0 0 0
2 963.468 340.391 1021.05 0 0 0
2 71.556 2307.81 1136.92 0 0 0
2 3096.4 3971.93 3609.79 0 0 0
2 168.114 4314.67 4684.77 0 0 0
2 3513.04 865.298 752.333 0 0 0
2 0 2678.89 1999.67 0 0 0
2 1353.34 58.076 132.765 0 0 0
2 514.431 1257.67 1192.23 0 0 0
2 2506.17 1163.64 2566.18 0 0 0
2 1062.14 1086.54 780.42 0 0 0
2 3192.57 386.394 2338.07 0 0 0
2 163.206 1393.64 0.061 0 0 0
2 1352.37 52.316 1122.08 0 0 0
2 1345.57 3580.72 4432.52 0 0 0
2 480.892 480.295 1763.94 0 0 0
2 3574.79 3684.66 0 0 0 0
2 4895.08 3425.89 3780.58 0 0 0
2 2020.87 2822.67 2211.81 0 0 0
2 682.776 4.488 4991.87 0 0 0
2 3207.8 0 3420.81 0 0 0
2 3139.43 0 1444.02 0 0 0
2 1343.95 1003.88 374.722 0 0 0
2 97.643 129.861 1224.71 0 0 0
2 2016.42 0 1082.99 0 0 0
2 0 1865.3 983.607 0 0 0
2 1407.93 149.598 0 0 0 0
2 817.819 1229.13 970.044 0 0 0
2 1309.55 1033.81 91.255 0 0 0
2 1201.18 233.287 217.188 0 0 0
2 425.028 2005.31 1128.24 0 0 0
2 15.995 1384.26 1069.72 0 0 0
2 1704.95 5000 467.878 0 0 0
2 871.107 656.182 1217.13 0 0 0
2 173.214 1422.78 656.197 0 0 0
2 2691.95 580.774 2145.16 0 0 0
2 1783.56 4442.9 70.789 0 0 0
2 284.951 1478.22 144.84 0 0 0
2 132.499 95.021 4910.03 0 0 0
2 561.695 208.809 692.18 0 0 0
2 0 949.379 105.183 0 0 0
2 511.639 898.132 0 0 0 0
2 0 1906.04 0 0 0 0
2 1500.32 1192.69 700.086 0 0 0
2 105.916 628.766 551.488 0 0 0
2 0 1677.1 0 0 0 0
2 234.64 0 1437.12 0 0 0
2 2609.04 0 3301.01 0 0 0
2 34.181 1100.24 13.089 0 0 0
2 2021.3 2320.94 0 0 0 0
2 136.35 662.739 214.242 0 0 0
2 4837.56 2382.39 1679.73 0 0 0
2 1133.52 508.928 650.748 0 0 0
2 1407.16 2148.72 2776.25 0 0 0
2 2248.98 1329.72 0 0 0 0
2 18.45 4.381 2825.25 0 0 0
2 2407.83 0 1125.22 0 0 0
2 557.138 1459.29 460.098 0 0 0
2 4815.17 1.903 4968.42 0 0 0
2 715.282 0 1602.71 0 0 0
2 373.732 2086.18 330.983 0 0 0
2 0 2256.39 729.061 0 0 0
2 473.276 501.464 0 0 0 0
2 1490.85 3722.94 3734.01 0 0 0
2 375.14 2176.57 0 0 0 0
2 664.541 2164.09 0 0 0 0
2 906.579 2255.04 979.514 0 0 0
2 86.439 5000 4550.73 0 0 0
2 1397.26 294.892 316.601 0 0 0
2 925.018 145.518 1622.19 0 0 0
2 1233.96 340.976 1130.72 0 0 0
2 0 1232.1 1609.59 0 0 0
2 0 2579.61 417.357 0 0 0
2 0 614.676 1283.26 0 0 0
2 5000 1477.89 1905.56 0 0 0
2 933.442 1946.38 0 0 0 0
2 4978.86 129.681 3705.82 0 0 0
2 1329.9 829.75 33.625 0 0 0
2 291.952 1621.05 975.997 0 0 0
2 2354.07 5000 340.552 0 0 0
2 646.235 0 67.129 0 0 0
2 1735.36 1440.12 15.568 0 0 0
2 1163.42 0 2156.3 0 0 0
2 68.129 2260.62 1488.37 0 0 0
2 250.533 1807.11 0.109 0 0 0
2 2208.61 0 1095.27 0 0 0
2 4524.23 4165.37 1444.11 0 0 0
2 2732.94 1031.55 1235.71 0 0 0
2 647.56 1703.01 767.678 0 0 0
2 2030.52 1414.6 1263.94 0 0 0
2 1713.38 1116.44 2258.07 0 0 0
2 175.798 1717.56 1825.8 0 0 0
2 636.031 617.1 2202.45 0 0 0
2 1663.74 1074.71 1158.34 0 0 0
2 1822.82 0 1296.3 0 0 0
2 1633.87 212.763 1076.98 0 0 0
2 799.697 1156.61 714.676 0 0 0
2 436.161 2482.68 1305.15 0 0 0
2 1344.86 3088.56 3403.92 0 0 0
2 1123.18 30.066 440.323 0 0 0
2 2232.54 19.559 29.842 0 0 0
2 2560.68 186.152 0 0 0 0
2 1799.31 18.389 3015.3 0 0 0
2 3096.79 0 5000 0 0 0
2 1487.45 0 1031.28 0 0 0
2 4503.73 2066.74 109.068 0 0 0
2 1371.36 1469.4 773.011 0 0 0
2 755.524 2110.1 2489.47 0 0 0
2 0 1621.02 1475.99 0 0 0
2 713.908 774.382 1124 0 0 0
2 1.209 3692.46 0.548 0 0 0
2 173.444 1671.59 2010.4 0 0 0
2 2448.39 1141.72 0 0 0 0
2 4730.07 4026.1 4169.82 0 0 0
2 63.293 785.552 334.856 0 0 0
2 3107.23 3274.84 0 0 0 0
2 3374.59 1138.72 0 0 0 0
2 1267.19 663.468 792.543 0 0 0
2 1364.51 119.547 1321.59 0 0 0
2 2900.88 0 1485.58 0 0 0
2 1490.26 565.117 918.319 0 0 0
2 10.187 284.238 0 0 0 0
2 1634.19 2270.47 993.511 0 0 0
2 1138.46 0 5000 0 0 0
2 3316.52 890.664 656.797 0 0 0
2 2203.05 438.97 1240.62 0 0 0
2 1259.27 632.631 0.002 0 0 0
2 394.597 0 1950.08 0 0 0
2 1726.85 1860.97 0 0 0 0
2 2918.03 2964.38 319.282 0 0 0
2 134.962 2131.94 82.063 0 0 0
2 1136.64 186.916 0.792 0 0 0
2 0 3317.69 646.464 0 0 0
2 1606.03 1628.81 4.594 0 0 0
2 486.402 1101.39 1125.66 0 0 0
2 1068.7 466.443 1582.9 0 0 0
2 1289.52 1774.04 706.445 0 0 0
2 1654.18 639.505 1543.36 0 0 0
2 57.521 2418.86 563.029 0 0 0
2 354.932 779.983 1222.24 0 0 0
2 1896.88 2420.79 485.693 0 0 0
2 1459.92 1437.58 74.014 0 0 0
2 2287.53 440.908 1550.38 0 0 0
2 1204.12 130.572 753.516 0 0 0
2 1041.07 1123.64 70.876 0 0 0
2 94.519 1698.29 162.96 0 0 0
2 535.941 22.996 2299.24 0 0 0
2 1036.62 0 135.93 0 0 0
2 613.509 1022.17 188.69 0 0 0
2 166.226 889.366 1163.13 0 0 0
2 296.627 1232.73 25.305 0 0 0
2 0 68.234 3702.64 0 0 0
2 2799.41 10.789 4746.38 0 0 0
2 719.593 161.533 1353.24 0 0 0
2 822.47 338.069 239.599 0 0 0
2 1042.45 135.1 4253.08 0 0 0
2 322.282 0 1158.92 0 0 0
2 4936.79 123.8 2921.86 0 0 0
2 0 1106.25 234.082 0 0 0
2 708.26 165.008 867.292 0 0 0
2 135.558 2489.75 0 0 0 0
2 780.845 585.956 452.479 0 0 0
2 774.667 1861.6 597.435 0 0 0
2 762.525 3330.99 6.808 0 0 0
2 2629.77 4274.37 414.669 0 0 0
2 0.001 2440.1 132.804 0 0 0
2 1361.71 1237.63 0 0 0 0
2 3329.86 795.307 2615.17 0 0 0
2 3959.39 0.541 242.266 0 0 0
2 1416.76 1616.06 0 0 0 0
2 376.411 1521.73 1679.2 0 0 0
2 1941.28 1656.54 0 0 0 0
2 2719.84 2556.73 279.576 0 0 0
2 148.49 37.249 1631.78 0 0 0
2 4961.43 1315.97 156.484 0 0 0
2 0 3271.91 4582.13 0 0 0
2 3847.14 2360.05 1798.46 0 0 0
2 2134.77 1332.74 542.153 0 0 0
2 0 1935.49 5000 0 0 0
2 5000 1462.08 645.321 0 0 0
2 1.423 1.964 1729.79 0 0 0
2 0 1458.67 2617.89 0 0 0
2 98.342 3590.92 1365.64 0 0 0
2 2147.52 3609.8 941.416 0 0 0
2 632.009 345.531 1336.11 0 0 0
2 432.8 97.481 446.803 0 0 0
2 3091.63 4734.57 2002.69 0 0 0
2 2696.52 1107.3 708.446 0 0 0
2 837.706 3276.15 2188.22 0 0 0
2 753.927 105.511 691.546 0 0 0
2 2424.1 2246.22 742.114 0 0 0
2 3074 3143.87 5000 0 0 0
2 3444.55 44.578 2828.79 0 0 0
2 970.837 4930.02 149.039 0 0 0
2 2361.06 5000 1809.71 0 0 0
2 0 1605.92 685.259 0 0 0
2 1159.34 1217.15 262.292 0 0 0
2 4883.39 67.946 92.236 0 0 0
2 372.904 1004.85 1231.65 0 0 0
2 233.12 2264.46 1303.2 0 0 0
2 1745.41 1018.47 1486.88 0 0 0
2 1419.89 3.829 790.569 0 0 0
2 671.64 1328.44 0 0 0 0
2 428.472 608.691 741.029 0 0 0
2 320.635 2519.95 0 0 0 0
2 2254.28 0 3016.03 0 0 0
2 0 3412.75 1850.17 0 0 0
2 171.449 0 1912.4 0 0 0
2 1146.64 0 1716.63 0 0 0
2 253.773 3273.72 1559.45 0 0 0
2 1055.88 583.131 1170.47 0 0 0
2 3288.54 3572.4 4286.21 0 0 0
2 5000 2650.2 845.444 0 0 0
2 0 1141.62 2418.04 0 0 0
2 120.761 513.662 999.841 0 0 0
2 1410.49 1279.81 1491.44 0 0 0
2 0 2863.04 969.764 0 0 0
2 2183.78 1138.82 0 0 0 0
2 1305.92 1170.98 589.485 0 0 0
2 0 426.687 1787.6 0 0 0
2 1234.78 2062.19 946.901 0 0 0
2 0 718.192 975.363 0 0 0
2 2534.34 2736.16 2217.16 0 0 0
2 1905.63 1188.06 10.97 0 0 0
2 4461.71 0 10.063 0 0 0
2 1782.8 943.048 0 0 0 0
2 718.676 274.196 1137.91 0 0 0
2 1286.2 299.365 0 0 0 0
2 5000 582.499 2762.54 0 0 0
2 2.406 876.911 1729.3 0 0 0
2 950.08 806.04 1200.91 0 0 0
2 756.046 490.968 3487.43 0 0 0
2 2649.69 1744.6 2637.85 0 0 0
2 743.594 570.425 910.063 0 0 0
2 1126.77 918.562 0 0 0 0
2 0.014 4250.53 2666.97 0 0 0
2 1211.5 119.184 1045.13 0 0 0
2 1192.94 1378.24 162.522 0 0 0
2 1069.75 96.987 4601.24 0 0 0
2 43.321 293.656 1546.74 0 0 0
2 0 942.821 687.459 0 0 0
2 0 645.135 2368.96 0 0 0
2 0 233.048 1340.32 0 0 0
2 2892.59 0 15.219 0 0 0
2 3720.49 2.595 0 0 0 0