ITEM: TIMESTEP
0
ITEM: NUMBER OF ATOMS
1000
ITEM: BOX BOUNDS pp pp pp
-1.0000000000000000e+02 4.1000000000000000e+03
-1.0000000000000000e+02 4.1000000000000000e+03
-1.0000000000000000e+02 4.1000000000000000e+03
ITEM: ATOMS type x y z ix iy iz
1 2000 1022.06 0 0 0 0
1 0.001 1999.91 1276.66 0 0 0
1 1650.35 1265.63 814.116 0 0 0
1 1642.47 1642.98 1251.69 0 0 0
1 28.727 631.852 340.342 0 0 0
1 1754.96 50.524 1495.1 0 0 0
1 406.704 1762.63 2000 0 0 0
1 836.557 1332.27 1617.71 0 0 0
1 1999.92 5.232 1835.07 0 0 0
1 1986.55 1824.1 1357.67 0 0 0
1 453.879 0.001 2000 0 0 0
1 2000 0 336.136 0 0 0
1 796.44 546.297 367.919 0 0 0
1 1999.85 1960.79 1767.05 0 0 0
1 714.711 22.413 603.005 0 0 0
1 455.433 562.486 641.319 0 0 0
1 377.167 953.04 173.343 0 0 0
1 831.867 82.519 865.925 0 0 0
1 419.011 1274.98 1834.83 0 0 0
1 435.147 575.084 71.92 0 0 0
1 801.476 97.242 256.97 0 0 0
1 756.223 437.65 275.657 0 0 0
1 294.3 214.446 976.725 0 0 0
1 346.725 315.889 380.312 0 0 0
1 709.151 660.329 379.493 0 0 0
1 268.536 868.706 506.199 0 0 0
1 448.446 462.269 497.409 0 0 0
1 0 764.017 416.469 0 0 0
1 783.785 704.242 47.937 0 0 0
1 1999.98 378.986 8.811 0 0 0
1 317.255 0 882.625 0 0 0
1 212.435 629.242 913.358 0 0 0
1 450.169 665.12 558.066 0 0 0
1 879.298 295.786 17.819 0 0 0
1 210.402 912.85 179.024 0 0 0
1 358.182 170.803 810.162 0 0 0
1 180.042 392.569 538.969 0 0 0
1 114.725 970.69 72.275 0 0 0
1 674.348 421.892 759.473 0 0 0
1 880.96 773.524 903.294 0 0 0
1 949.937 295.325 439.063 0 0 0
1 638.716 553.105 301.191 0 0 0
1 161.133 686.49 184.564 0 0 0
1 1015.57 554.873 475.469 0 0 0
1 31.354 489.978 188.189 0 0 0
1 382.803 8.864 336.623 0 0 0
1 235.99 88.565 794.936 0 0 0
1 955.391 45.892 563.034 0 0 0
1 852.367 769.697 282.688 0 0 0
1 839.622 974.935 625.617 0 0 0
1 516.732 980.559 963.964 0 0 0
1 490.676 143.009 97.37 0 0 0
1 955.836 514.277 189.199 0 0 0
1 275.677 472.842 1025.83 0 0 0
1 879.419 935.148 817.783 0 0 0
1 763.977 65.951 135.759 0 0 0
1 710.219 30.055 33.353 0 0 0
1 2000 1510.86 101.922 0 0 0
1 2000 1974.6 586.801 0 0 0
1 780.569 238.462 49.756 0 0 0
1 84.796 79.986 0.013 0 0 0
1 0.085 0.082 12.646 0 0 0
1 17.646 535.525 894.987 0 0 0
1 2007.74 98.241 1999.97 0 0 0
1 2123.97 1920.28 1544.84 0 0 0
1 4000 0.002 1297.01 0 0 0
1 2098.95 20.587 43.418 0 0 0
1 2100.69 1942.34 1983.05 0 0 0
1 3930.63 788.899 1964.77 0 0 0
1 3511.71 1313.37 273.636 0 0 0
1 2001.76 1584.05 1973.66 0 0 0
1 3913.28 67.19 1305.27 0 0 0
1 3998.57 211.689 27.608 0 0 0
1 4000 0.003 179.675 0 0 0
1 2174.85 182.212 835.808 0 0 0
1 2135.86 119.471 204.449 0 0 0
1 2000.17 458.661 216.822 0 0 0
1 2154.24 554.793 2.694 0 0 0
1 2093.92 535.107 229.304 0 0 0
1 2202.98 265.262 305.652 0 0 0
1 2186.83 573.611 347.806 0 0 0
1 3590.02 9.792 1994.19 0 0 0
1 2269.09 502.302 117.263 0 0 0
1 2166.17 267.336 689.413 0 0 0
1 2157.2 734.354 466.014 0 0 0
1 2779.69 1482.8 1663.61 0 0 0
1 2130.66 199.453 35.854 0 0 0
1 2106.75 183.692 351.448 0 0 0
1 2162.49 803.361 260.635 0 0 0
1 2030.22 136.235 1032.54 0 0 0
1 2062.38 700.61 659.447 0 0 0
1 2256.24 294.549 593.764 0 0 0
1 2116.55 508.987 719.781 0 0 0
1 2035.29 614.972 593.484 0 0 0
1 2023.7 977.982 830.405 0 0 0
1 2172.69 394.876 725.538 0 0 0
1 2038.98 962.615 494.293 0 0 0
1 2143.59 867.289 1010.81 0 0 0
1 2006.1 339.688 504.702 0 0 0
1 2088.52 984.327 250.401 0 0 0
1 2134.34 797.512 65.691 0 0 0
1 2143.76 544.83 961.423 0 0 0
1 2164.5 1102.22 625.673 0 0 0
1 2159.15 620.795 670.402 0 0 0
1 2103 337.508 48.923 0 0 0
1 2180.61 561.042 478.316 0 0 0
1 3097.38 1656.99 988.028 0 0 0
1 2109.7 947.845 694.112 0 0 0
1 2008.58 319.2 633.626 0 0 0
1 2098.26 431.108 492.243 0 0 0
1 2035.44 753.364 957.909 0 0 0
1 2057.82 79.689 390.464 0 0 0
1 2158.47 150.167 656.57 0 0 0
1 2000 1041.71 928.132 0 0 0
1 2015.45 978.278 387.568 0 0 0
1 2181.99 725.314 640.353 0 0 0
1 2174.35 844.12 761.454 0 0 0
1 2533.27 65.827 34.953 0 0 0
1 3856.23 511.391 1108.24 0 0 0
1 2013.75 10.006 1709.19 0 0 0
1 3508.2 307.479 1319.64 0 0 0
1 2146.8 874.397 1774.07 0 0 0
1 2646.12 1714.62 577.767 0 0 0
1 3896.12 26.904 0.02 0 0 0
1 2177 146.143 980.022 0 0 0
1 401.175 3992.08 1.796 0 0 0
1 606.155 2001.68 1994.53 0 0 0
1 1991.26 2037.92 1999.81 0 0 0
1 1999.92 2003.53 241.544 0 0 0
1 1087.32 3672.41 1910.82 0 0 0
1 0.824 2407.72 1999.84 0 0 0
1 459.091 2761.79 1922.42 0 0 0
1 1072.46 2000 1099.4 0 0 0
1 0 2137.06 1276.52 0 0 0
1 1434.62 2403.22 1193.23 0 0 0
1 267.646 2691.51 836.434 0 0 0
1 0 3033.8 1982.23 0 0 0
1 112.7 2004.41 662.166 0 0 0
1 0 3847.55 0 0 0 0
1 130.19 3136.08 1974.58 0 0 0
1 0 2197.77 144.692 0 0 0
1 120.576 2000.01 1238.16 0 0 0
1 388.685 2000 645.106 0 0 0
1 832.659 2000 353.661 0 0 0
1 1015.6 2034.6 894.152 0 0 0
1 409.77 2130.15 4.853 0 0 0
1 389.108 2105.73 808.15 0 0 0
1 448.051 2195.62 362 0 0 0
1 211.301 2006.37 1039.78 0 0 0
1 861.683 2025.06 977.749 0 0 0
1 885.161 2213.39 380.693 0 0 0
1 574.775 2181.1 4.453 0 0 0
1 381.077 2160.9 1002.51 0 0 0
1 615.999 2085.86 385.293 0 0 0
1 760.444 2236.72 207.495 0 0 0
1 402.358 2000 333.287 0 0 0
1 249.831 2000 30.093 0 0 0
1 875.066 2000 499.068 0 0 0
1 1735.31 2031.79 106.099 0 0 0
1 8.177 2122.88 331.251 0 0 0
1 278.178 2000 432.484 0 0 0
1 477.418 2297.87 210.909 0 0 0
1 147.729 2150.11 423.058 0 0 0
1 236.763 2109.23 0 0 0 0
1 170.084 2093.09 1098.04 0 0 0
1 330.65 2204.72 79.526 0 0 0
1 237.006 2092.04 490.207 0 0 0
1 759.665 2111.19 641.692 0 0 0
1 145.257 2268.06 489.02 0 0 0
1 736.209 2000.01 883.628 0 0 0
1 329.043 2207.49 560.512 0 0 0
1 333.757 2011.71 790.519 0 0 0
1 146.269 2110.53 775.763 0 0 0
1 977.365 2153.48 804.07 0 0 0
1 987.423 2209.66 966.63 0 0 0
1 667.046 2000 281.44 0 0 0
1 782.093 2123.75 1007.31 0 0 0
1 324.55 2093.3 914.424 0 0 0
1 856.039 2000 701.505 0 0 0
1 1107.01 2071.97 533.881 0 0 0
1 293.914 2093.36 127.984 0 0 0
1 2000 3458.64 0 0 0 0
1 0 3875.83 226.223 0 0 0
1 422.322 2726.45 0 0 0 0
1 1873.79 2829.84 1637.25 0 0 0
1 1073.65 3885.43 1933.91 0 0 0
1 1824.99 2625.02 1537.4 0 0 0
1 4.527 3684.47 1998.73 0 0 0
1 1474.09 1623.76 3739.73 0 0 0
1 1844.3 19.239 2033.87 0 0 0
1 1999.18 1366.68 3999.21 0 0 0
1 1931.28 579.377 3031.81 0 0 0
1 965.168 9.844 3996.63 0 0 0
1 1843.8 90.81 2180.84 0 0 0
1 3.062 1737.45 2666.42 0 0 0
1 183.893 568.851 2624.57 0 0 0
1 1705.56 1773.64 2666.07 0 0 0
1 201.734 1999.43 3846.21 0 0 0
1 1999.93 759.168 3999.97 0 0 0
1 2000 1134.65 2577.12 0 0 0
1 1975.17 1997.42 2304.44 0 0 0
1 1975 111.552 3257.96 0 0 0
1 876.707 410.976 2077.5 0 0 0
1 647.57 679.593 2225.86 0 0 0
1 380.587 37.554 2152.26 0 0 0
1 546.869 1335.24 3954.39 0 0 0
1 94.832 983.669 2050.23 0 0 0
1 427.554 436.778 2007.23 0 0 0
1 465.75 621.066 2169.51 0 0 0
1 544.341 742.725 2149.37 0 0 0
1 183.293 709.225 2187.34 0 0 0
1 76.346 275.985 3920.74 0 0 0
1 903.279 750.875 2009.83 0 0 0
1 902.118 799.106 2210.71 0 0 0
1 427.054 508.505 2231.18 0 0 0
1 1004.73 73.913 2092.69 0 0 0
1 744.298 916.624 2005.74 0 0 0
1 724.16 611.859 2032.27 0 0 0
1 734.609 481.993 2040.76 0 0 0
1 0 774.1 2096.38 0 0 0
1 161.9 418.496 2199.28 0 0 0
1 492.701 506.65 2087.54 0 0 0
1 242.654 910.531 2117.61 0 0 0
1 288.564 190.774 2000 0 0 0
1 610.064 798.632 2000 0 0 0
1 393.24 23.293 2533.01 0 0 0
1 401.151 750.902 2075.15 0 0 0
1 686.306 43.736 2121.85 0 0 0
1 344.632 250.626 2210.32 0 0 0
1 7.763 904.511 2054.05 0 0 0
1 882.884 574.716 2105.99 0 0 0
1 880.388 890.668 2018.02 0 0 0
1 557.858 401.964 2124.2 0 0 0
1 427.334 709.16 2263.72 0 0 0
1 894.665 39.138 2101.38 0 0 0
1 95.014 16.736 3926.66 0 0 0
1 305.859 538.717 2225.54 0 0 0
1 68.069 828.035 2000 0 0 0
1 735.706 637.473 2159.15 0 0 0
1 382.629 546.533 2066.1 0 0 0
1 975.682 988.169 2116.59 0 0 0
1 328.534 263.246 2096.58 0 0 0
1 409.276 0 4000 0 0 0
1 531.067 34.589 2179.3 0 0 0
1 153.555 0 2000 0 0 0
1 0 318.862 4000 0 0 0
1 1999.9 1282.64 3225.01 0 0 0
1 0.004 2000 3466.17 0 0 0
1 0.004 114.132 2000.44 0 0 0
1 171.103 836.269 2416.83 0 0 0
1 3826.22 3990.7 1760.2 0 0 0
1 3023.92 4000 0.11 0 0 0
1 2007.62 3997.19 1319.34 0 0 0
1 2000.4 2000.96 126.604 0 0 0
1 2349.28 3899.9 1947.41 0 0 0
1 4000 2007.05 71.774 0 0 0
1 2000 4000 359.06 0 0 0
1 4000 2001.29 1774.91 0 0 0
1 2136.53 3912 77.077 0 0 0
1 3999.89 2433.37 1030.42 0 0 0
1 4000 3487.54 1127.04 0 0 0
1 2000 3870.65 506.783 0 0 0
1 2947.35 3440.7 0 0 0 0
1 3999.93 2738.43 830.667 0 0 0
1 2223.2 2209.97 648.851 0 0 0
1 2363.76 2003.07 590.675 0 0 0
1 2186.65 2185.63 991.477 0 0 0
1 2000 2462.73 224.181 0 0 0
1 2078.7 2133.78 1469.74 0 0 0
1 2263.44 2130.75 751.926 0 0 0
1 2257.48 2205.66 521.202 0 0 0
1 2231.28 2351.49 715.204 0 0 0
1 2000 2821.34 2000 0 0 0
1 2000 2286.46 975.857 0 0 0
1 2113.99 2159.97 1108.51 0 0 0
1 2179.49 2204.2 105.344 0 0 0
1 2182.57 2211.92 755.975 0 0 0
1 2294.87 2145.14 56.886 0 0 0
1 2550.93 2495.98 975.407 0 0 0
1 2438.94 2000 212.644 0 0 0
1 2046.06 2757.19 1773.57 0 0 0
1 2140.97 2266.24 924.158 0 0 0
1 2830.66 2129.34 0.489 0 0 0
1 2451.12 2098.93 610.435 0 0 0
1 2775.18 2109.89 1852.78 0 0 0
1 2000 2280.08 451.839 0 0 0
1 2166.5 2498.15 879.708 0 0 0
1 2001.66 2207.37 880.096 0 0 0
1 2000 2538.49 936.981 0 0 0
1 2225.5 2007.89 790.573 0 0 0
1 3675.97 2926.05 2000 0 0 0
1 3549.61 2501.83 0 0 0 0
1 2345 2462.58 0 0 0 0
1 2309.44 2154.43 165.67 0 0 0
1 3992.17 2111.08 340.978 0 0 0
1 2196.79 2000 462.818 0 0 0
1 2075.59 2264.14 779.92 0 0 0
1 2000 2532.09 1252.4 0 0 0
1 2000 2899.37 47.776 0 0 0
1 2005.97 2319.43 848.856 0 0 0
1 2974.82 3858.32 2000 0 0 0
1 2000 2072.44 637.574 0 0 0
1 2242.27 2000 989.223 0 0 0
1 2113.21 2068.06 330.3 0 0 0
1 2352.57 2147.19 463.645 0 0 0
1 2614.99 3386.21 1515.86 0 0 0
1 2000 2292.01 200.209 0 0 0
1 2015.72 2154.86 540.447 0 0 0
1 2000 4000 1640.64 0 0 0
1 2380.16 3999.91 1999.95 0 0 0
1 3998.3 3739.6 2.045 0 0 0
1 3439.91 4000 226.976 0 0 0
1 2215.74 2264.55 426.443 0 0 0
1 3521.91 1997.97 2023.12 0 0 0
1 3115.66 659.57 3252.34 0 0 0
1 4000 576.434 2000.01 0 0 0
1 2539.57 35.383 2596.89 0 0 0
1 3013.61 1579.13 3468.22 0 0 0
1 2094.5 353.543 2212.82 0 0 0
1 3045.02 1787.93 3821.94 0 0 0
1 4000 1748.67 2826.04 0 0 0
1 3233.28 0 3868.97 0 0 0
1 2075.08 0.013 3887.18 0 0 0
1 3324.43 641.516 4000 0 0 0
1 2976.03 282.134 4000 0 0 0
1 2181.97 266.312 2187.27 0 0 0
1 3153.48 619.162 2173.09 0 0 0
1 3816.01 950.3 2500.47 0 0 0
1 2614.12 458.526 2097.08 0 0 0
1 2529.89 540.363 2284.03 0 0 0
1 2469.55 272.025 2666.07 0 0 0
1 3644.61 1074.35 4000 0 0 0
1 2359.66 1126.62 2196.85 0 0 0
1 2249.74 1928.19 2712.21 0 0 0
1 2805.29 607.929 2143.12 0 0 0
1 2737.59 1012.35 2423.7 0 0 0
1 2095.06 458.243 4000 0 0 0
1 2289.62 722.747 2261.46 0 0 0
1 3935.15 360.966 2249.23 0 0 0
1 2259.32 983.784 2499.46 0 0 0
1 2001.9 241.007 3056.39 0 0 0
1 2739.25 677.728 3865.5 0 0 0
1 3197.69 356.501 2295.87 0 0 0
1 2857.67 806.469 2912.05 0 0 0
1 2655.16 342.295 2581.08 0 0 0
1 2163.19 543.199 2029.63 0 0 0
1 2250.55 683.997 2165.86 0 0 0
1 2539.87 1053.62 3636.7 0 0 0
1 2562.59 980.147 2875.58 0 0 0
1 4000 864.679 2245.73 0 0 0
1 2491.17 341.24 2989.94 0 0 0
1 2682.3 932.248 3159.84 0 0 0
1 2197.26 313.055 2323.88 0 0 0
1 2751.76 290.16 2071.57 0 0 0
1 3025.91 609.807 3113.32 0 0 0
1 2506.2 1141.53 2161.32 0 0 0
1 3612.46 341.706 2130.78 0 0 0
1 2582.22 392.971 2815.55 0 0 0
1 3997.65 469.406 2480.02 0 0 0
1 2921.65 1286.72 2004.75 0 0 0
1 2477.41 461.366 3731.4 0 0 0
1 2211.72 1313.01 2495.89 0 0 0
1 2526.17 339.593 2351.39 0 0 0
1 3778.92 461.272 3514.57 0 0 0
1 2474.59 377.399 2193.56 0 0 0
1 4000 819.098 2930.78 0 0 0
1 2115.32 949.135 3994.47 0 0 0
1 2720.17 407.559 3001.99 0 0 0
1 2440.32 1844.89 2005.94 0 0 0
1 4000 1279.76 2144.33 0 0 0
1 2000.12 0.089 3473.97 0 0 0
1 3006.28 1008.49 3910.26 0 0 0
1 3318.8 1756.3 3572.13 0 0 0
1 2509.88 0.155 2000.46 0 0 0
1 2179.46 360 2100.55 0 0 0
1 78.754 3756.62 2485.72 0 0 0
1 1022.82 3996.79 3997.28 0 0 0
1 678.171 3575.84 2228.69 0 0 0
1 4.137 2011.12 3137.81 0 0 0
1 845.87 2304.29 3892.77 0 0 0
1 1996.7 2000.3 3967.68 0 0 0
1 112.864 2000.03 3768.82 0 0 0
1 2000 2000 3317.44 0 0 0
1 0.002 2137.1 4000 0 0 0
1 37.687 2484.18 3514.2 0 0 0
1 0 2578.46 2588.8 0 0 0
1 0 3889.93 4000 0 0 0
1 1523.02 3604.62 2000 0 0 0
1 2000 3413.94 3193.82 0 0 0
1 0 2570.25 2253.8 0 0 0
1 1648.41 3870.44 2009.63 0 0 0
1 272.776 2624.99 3648.5 0 0 0
1 1217.95 2536.82 2000 0 0 0
1 424.799 2278.7 2002.02 0 0 0
1 674.761 3096.64 2320.01 0 0 0
1 344.478 2588.86 3128.04 0 0 0
1 233.048 2515.55 2072.95 0 0 0
1 878.919 2293.99 2000 0 0 0
1 236.285 2000 2266.11 0 0 0
1 100.607 2560.62 2000.12 0 0 0
1 1272.09 2000 3939.42 0 0 0
1 895.176 2000 3161.04 0 0 0
1 36.686 2491.25 2523.28 0 0 0
1 383.868 2017.65 2309.41 0 0 0
1 1509.01 2191.33 2371.91 0 0 0
1 2000 3007.84 2389.02 0 0 0
1 1801.87 2956.08 4000 0 0 0
1 115.762 2912.59 2004.57 0 0 0
1 627.577 2804.08 2000 0 0 0
1 571.52 2103.6 2657.85 0 0 0
1 419.838 3643.01 4000 0 0 0
1 0.12 2029.07 3752.3 0 0 0
1 881.825 2584.95 2000 0 0 0
1 220.991 3113.71 3573 0 0 0
1 68.957 2082.99 2543.32 0 0 0
1 583.375 2469.73 2306.8 0 0 0
1 1717.25 3716.78 3937.22 0 0 0
1 369.68 2598.25 2003.38 0 0 0
1 328.921 2691.32 2913.63 0 0 0
1 1593.47 2970.11 2000 0 0 0
1 698.993 3893.91 2328.23 0 0 0
1 0 2233.57 3602.37 0 0 0
1 184.394 2000 3340.74 0 0 0
1 0 2522.23 3678.09 0 0 0
1 1082.28 2001.21 2841.84 0 0 0
1 650.183 2325.95 2000 0 0 0
1 1656.79 3073.52 2000 0 0 0
1 1635.47 2830.67 2000 0 0 0
1 858.336 2000 2349.79 0 0 0
1 1767.49 2011.01 3225.72 0 0 0
1 1096.66 2000 2000 0 0 0
1 695.028 2000 2995.77 0 0 0
1 5.191 3998.19 2233.67 0 0 0
1 1252.56 4000 4000 0 0 0
1 59.624 2000.05 3999.24 0 0 0
1 0.686 3999.98 3996.16 0 0 0
1 1813.2 2096.3 3645.14 0 0 0
1 482.768 2085.49 2921.5 0 0 0
1 3833.13 2780.61 2393.48 0 0 0
1 3576.05 3625.62 2867.1 0 0 0
1 3121.98 3818.13 2579.8 0 0 0
1 2389.94 3903.02 2266.91 0 0 0
1 3999.7 2002.57 3650.74 0 0 0
1 3999.13 2289.24 2000.83 0 0 0
1 2319.16 4000 3273.93 0 0 0
1 3792.36 2461.29 2048.62 0 0 0
1 2000 4000 3209.71 0 0 0
1 3999.98 3744.34 4000 0 0 0
1 3921.91 2673.39 3841.81 0 0 0
1 2700.45 3234.6 4000 0 0 0
1 3918.84 3279.21 2840.05 0 0 0
1 2786.55 2558.61 2031.19 0 0 0
1 2100.62 2382.54 2256.82 0 0 0
1 2274.56 3005.84 2054.45 0 0 0
1 2028.32 2117.56 3031.18 0 0 0
1 2729.13 2226.53 3183.64 0 0 0
1 2107.47 2934.2 3919.34 0 0 0
1 2604.32 2201.14 2000 0 0 0
1 3999.95 3757.31 3673.15 0 0 0
1 3986.45 3350.7 3990.56 0 0 0
1 3973.89 2509.51 3530.6 0 0 0
1 2000 2350.97 3305.38 0 0 0
1 2189.78 3689.45 2019.76 0 0 0
1 2128.52 3506.61 2033.04 0 0 0
1 2235.07 2230.69 2963.87 0 0 0
1 3477.32 3785.5 2018.97 0 0 0
1 2319.82 2042.63 3986.71 0 0 0
1 3837.78 4000 3081.1 0 0 0
1 2000 2387.31 3841.39 0 0 0
1 3986.89 2000 2419.44 0 0 0
1 2036.07 3726.09 2123.85 0 0 0
1 2342.49 2134.48 2063.47 0 0 0
1 2841.27 2000 3978.04 0 0 0
1 3866.83 3245.71 2018.16 0 0 0
1 2379.92 3936.95 2154.82 0 0 0
1 2339.24 3337.52 4000 0 0 0
1 3741.68 2000 2964.63 0 0 0
1 3184.8 2168.18 2017.95 0 0 0
1 2328.02 2029.1 2529.53 0 0 0
1 2199.11 3901.24 3961.7 0 0 0
1 2737.1 2294.02 2334.5 0 0 0
1 3979.6 2942.58 3968.91 0 0 0
1 3189.07 3299.07 2103.36 0 0 0
1 2413.93 2000 3769.43 0 0 0
1 3319.95 2124.66 2006.63 0 0 0
1 3995.08 2068.57 2170.1 0 0 0
1 2126.59 3777.44 2000 0 0 0
1 3924.46 2002.69 2108.46 0 0 0
1 2000 3103.44 2170.97 0 0 0
1 2497.05 4000 3254.21 0 0 0
1 2000 3328.57 3095.55 0 0 0
1 3855.91 2138.93 2104.23 0 0 0
1 3788.58 3703.24 2230.23 0 0 0
1 2463.51 3070.48 2058.43 0 0 0
1 4000 4000 3227.11 0 0 0
1 4000 2000 3417.79 0 0 0
1 2035.27 3581.24 3575.34 0 0 0
1 2895.5 2197.82 3888.7 0 0 0
1 3999.26 3999.16 2279.15 0 0 0
1 2000 2747.88 2783.05 0 0 0
2 171.814 1288.77 1195.86 0 0 0
2 1995.86 1998 5.235 0 0 0
2 51.213 1952.27 1999 0 0 0
2 0.072 1492.58 1999.98 0 0 0
2 206.237 111.068 1999.92 0 0 0
2 975.119 1996.97 1795.48 0 0 0
2 6.653 1997.57 9.331 0 0 0
2 2.121 1997.46 1548.71 0 0 0
2 0 0 576.458 0 0 0
2 1945.21 132.423 1586.89 0 0 0
2 1457.93 2000 123.257 0 0 0
2 1106.34 394.047 2000 0 0 0
2 175.688 551.668 748.561 0 0 0
2 405.293 1000.72 449.673 0 0 0
2 732.856 634.335 829.104 0 0 0
2 539.917 110.999 376.827 0 0 0
2 57.233 1077.91 201.371 0 0 0
2 197.748 192.863 350.348 0 0 0
2 0 212.975 520.613 0 0 0
2 274.496 84.917 376.937 0 0 0
2 66.024 58.107 185.105 0 0 0
2 28.965 890.821 216.117 0 0 0
2 938.874 791.339 529.999 0 0 0
2 630.543 542.469 8.838 0 0 0
2 271.562 586.655 372.313 0 0 0
2 560.935 162.366 251.202 0 0 0
2 446.513 443.096 623.547 0 0 0
2 124.676 172.834 817.098 0 0 0
2 378.308 797.283 233.727 0 0 0
2 431.549 513.292 932.643 0 0 0
2 181.844 389.042 650.053 0 0 0
2 304.783 845.329 322.989 0 0 0
2 429.874 858.108 948.252 0 0 0
2 316.855 442.319 844.598 0 0 0
2 40.412 887.706 396.552 0 0 0
2 96.141 780.818 777.173 0 0 0
2 62.272 473.417 565.01 0 0 0
2 233.493 150.428 173.768 0 0 0
2 374.019 615.844 246.907 0 0 0
2 914.73 311.915 674.644 0 0 0
2 733.278 233.528 183.576 0 0 0
2 429.821 690.344 849.181 0 0 0
2 581.027 152.649 532.103 0 0 0
2 825.651 753.839 797.043 0 0 0
2 201.952 0.304 439.961 0 0 0
2 0.892 1691.05 509.18 0 0 0
2 558.197 418.366 891.217 0 0 0
2 559.703 44.996 742.428 0 0 0
2 144.803 48.181 336.937 0 0 0
2 834.111 502.46 871.485 0 0 0
2 765.303 230.28 662.23 0 0 0
2 334.832 748.984 895.894 0 0 0
2 787.412 148.881 462.641 0 0 0
2 113.346 299.392 599.706 0 0 0
2 470.869 752.784 407.362 0 0 0
2 915.755 154.064 726.273 0 0 0
2 742.612 753.172 948.356 0 0 0
2 1938.19 258.006 1890.84 0 0 0
2 401.912 441.072 1864.53 0 0 0
2 411.191 1503.27 289.068 0 0 0
2 1481.5 943.421 1988.97 0 0 0
2 99.289 1126.95 0 0 0 0
2 2000 385.399 1886.56 0 0 0
2 2393.07 180.104 230.976 0 0 0
2 2000.09 1999.96 1000.67 0 0 0
2 2228.89 619.25 979.515 0 0 0
2 2104.8 76.253 1926.74 0 0 0
2 3852.6 1108.44 1253.78 0 0 0
2 2006.08 169.896 1324.59 0 0 0
2 3999.86 0.052 27.938 0 0 0
2 3997.98 1904.85 1999.73 0 0 0
2 3947.51 1999.57 1975.58 0 0 0
2 2071.61 1535.61 1302.58 0 0 0
2 2206.94 37.159 0.092 0 0 0
2 3995.46 1342.44 1931.25 0 0 0
2 2147.85 0.06 1999.95 0 0 0
2 2057.27 727.92 552.694 0 0 0
2 2015.55 198.333 544.149 0 0 0
2 2000 567.97 281.838 0 0 0
2 2631.47 1851.78 33.577 0 0 0
2 2000 269.783 1271.83 0 0 0
2 2098.08 669.217 760.536 0 0 0
2 2000 291.43 852.841 0 0 0
2 2000 919.084 727.302 0 0 0
2 2991.43 1084.99 0 0 0 0
2 2449.11 454.37 1054.13 0 0 0
2 2083.77 879.965 352.427 0 0 0
2 2004.69 885.856 1001.2 0 0 0
2 2000 508.267 105.714 0 0 0
2 2000 717.637 224.475 0 0 0
2 2131.1 455.927 1025.25 0 0 0
2 2785.57 2000 913.237 0 0 0
2 2011.58 857.273 869.811 0 0 0
2 2227.21 449.003 245.152 0 0 0
2 2000 788.436 471.7 0 0 0
2 2040.81 475.528 348.557 0 0 0
2 2077.27 813.141 619.506 0 0 0
2 2472.94 1859.44 880.235 0 0 0
2 2019.74 0 219.465 0 0 0
2 2013.33 978.424 614.572 0 0 0
2 2000 731.078 1079.16 0 0 0
2 2044.86 820.327 214.631 0 0 0
2 2000 1014.23 1451.64 0 0 0
2 2000 621.422 713.073 0 0 0
2 2068.98 1683.72 1991.06 0 0 0
2 2070.71 696.503 315.153 0 0 0
2 2000 188.258 931.629 0 0 0
2 3898.13 1548.25 1973.04 0 0 0
2 3172.26 318.616 350.355 0 0 0
2 2000 457.962 702.018 0 0 0
2 2000 216.845 146.709 0 0 0
2 2017.67 313.693 234.059 0 0 0
2 2597.06 0 1502.6 0 0 0
2 2018.87 808.365 741.189 0 0 0
2 2094.91 960.706 69.927 0 0 0
2 2084.98 264.298 963.189 0 0 0
2 2000 498.662 526.41 0 0 0
2 4000 606.904 601.711 0 0 0
2 2830.57 1546.69 1457.48 0 0 0
2 4000 1998.73 580.191 0 0 0
2 2541.82 1962.23 106.242 0 0 0
2 3999.9 1456.18 1147.55 0 0 0
2 3093.9 394.984 1999.86 0 0 0
2 2000 -0 -0 0 0 0
2 2000 588.366 428.823 0 0 0
2 1579.94 3465.98 1.099 0 0 0
2 0 4000 246.55 0 0 0
2 1939.69 2705.6 775.498 0 0 0
2 1305.54 3915.97 1867.48 0 0 0
2 492.56 2598.59 482.605 0 0 0
2 0.003 4000 1503.92 0 0 0
2 0.054 2000.05 963.917 0 0 0
2 125.676 3318.79 2000 0 0 0
2 1999.98 3805.97 0.013 0 0 0
2 1706.98 2000.01 0.046 0 0 0
2 836.321 2004.52 1838.1 0 0 0
2 707.972 3999.8 1999.92 0 0 0
2 212.311 2000 155.516 0 0 0
2 815.944 2107.1 275.055 0 0 0
2 747.449 2108.66 384.932 0 0 0
2 219.942 2115.93 602.38 0 0 0
2 131.648 2006.12 230.563 0 0 0
2 808.033 2000 214.921 0 0 0
2 749.105 2009.48 94.272 0 0 0
2 869.547 2171.69 696.628 0 0 0
2 670.416 2147.81 775.365 0 0 0
2 936.499 2102.15 2000 0 0 0
2 1771.98 3892.38 2.496 0 0 0
2 28.09 3364.94 123.436 0 0 0
2 0 2357.33 960.033 0 0 0
2 694.288 2104.52 39.493 0 0 0
2 160.158 2068.61 878.117 0 0 0
2 448.305 2169.21 533.254 0 0 0
2 723.974 2000 453.524 0 0 0
2 229.58 2000 659.396 0 0 0
2 581.893 2178.74 300.863 0 0 0
2 82.747 3070.87 1144.32 0 0 0
2 548.114 2217.54 557.84 0 0 0
2 208.079 2061.38 320.157 0 0 0
2 28.925 2112.33 554.778 0 0 0
2 433.078 2000 101.11 0 0 0
2 870.822 2000 823.426 0 0 0
2 0 2668.36 0 0 0 0
2 716.304 2001.87 758.472 0 0 0
2 388.662 2102.41 294.118 0 0 0
2 975.303 2063.15 710.392 0 0 0
2 298.032 3935.19 1947.26 0 0 0
2 533.784 2000 668.61 0 0 0
2 936.906 2109.86 470.414 0 0 0
2 780.507 2085.73 510.123 0 0 0
2 1126.09 2143.55 178.21 0 0 0
2 642.566 2050.29 649.838 0 0 0
2 521.652 2000 323.632 0 0 0
2 328.217 2115.69 628.148 0 0 0
2 59.617 2204.41 385.499 0 0 0
2 423.322 2000 877.373 0 0 0
2 259.122 2001.37 938.047 0 0 0
2 1896.21 3850.1 5.872 0 0 0
2 684.511 2098.66 224.555 0 0 0
2 1067.43 2428.84 0 0 0 0
2 879.887 2074.11 597.809 0 0 0
2 409.95 2043.54 200.765 0 0 0
2 800.569 4000 0 0 0 0
2 1076.72 3035.74 985.826 0 0 0
2 2000 3703.09 1982.48 0 0 0
2 702.042 3508.49 821.137 0 0 0
2 1982.9 2007.16 1867.89 0 0 0
2 471.259 2225.36 778.938 0 0 0
2 712.257 1842.95 3014.32 0 0 0
2 62.951 17.694 3371.93 0 0 0
2 343.306 130.879 2325.3 0 0 0
2 441.543 1098.26 3489.05 0 0 0
2 1912.14 1999.08 2115.21 0 0 0
2 1210.51 1157.33 2650.45 0 0 0
2 1999.69 30.628 3344 0 0 0
2 851.72 1902.42 2849.98 0 0 0
2 46.124 1753.12 2000 0 0 0
2 6.539 14.87 2118.27 0 0 0
2 1664.66 1999.91 3961.22 0 0 0
2 899.314 1603.16 3675.11 0 0 0
2 2000 2000 3446.15 0 0 0
2 464.597 226.998 2002.51 0 0 0
2 423.633 1009.37 2243.01 0 0 0
2 620.119 555.275 2174.83 0 0 0
2 792.458 745.405 2140.62 0 0 0
2 1006.66 626.072 2170.38 0 0 0
2 485.149 354.956 2389.51 0 0 0
2 854.265 995.794 2121.09 0 0 0
2 634.025 363.496 2284.91 0 0 0
2 142.553 643.468 2365.77 0 0 0
2 103.144 909.797 2274.53 0 0 0
2 955.038 341.127 2223.5 0 0 0
2 116.018 548.751 2115.61 0 0 0
2 223.841 467.413 2000 0 0 0
2 768.414 777.662 2286.43 0 0 0
2 119.5 545.328 2266.6 0 0 0
2 504.362 703.376 2012.52 0 0 0
2 808.273 135.1 2192.11 0 0 0
2 329.821 410.352 2292.6 0 0 0
2 365.445 925.434 2127.59 0 0 0
2 501.544 110.657 2009.36 0 0 0
2 262.641 468.543 2121.3 0 0 0
2 927.229 601.771 2335.45 0 0 0
2 398.341 347.79 2107.63 0 0 0
2 327.488 625.482 2131.58 0 0 0
2 317.187 1953.22 2133.04 0 0 0
2 216.426 576.691 2073.7 0 0 0
2 300.949 165.257 2154.6 0 0 0
2 958.748 139.677 2188.62 0 0 0
2 295.207 701.577 2206.22 0 0 0
2 624.012 147.778 2136.41 0 0 0
2 615.01 639.008 2103.52 0 0 0
2 210.899 163.408 2412.08 0 0 0
2 62.767 380.612 2256.72 0 0 0
2 135.784 186.371 2126.35 0 0 0
2 640.293 788.495 2212.11 0 0 0
2 201.151 117.966 2235.09 0 0 0
2 25.995 1005.31 2136.43 0 0 0
2 426.92 146.46 2210.74 0 0 0
2 766.135 487.726 2158.33 0 0 0
2 83.647 749.064 2212.16 0 0 0
2 827.607 856.817 2122.56 0 0 0
2 92.401 311.199 2164.22 0 0 0
2 1452.56 0 3458.87 0 0 0
2 2000 1774.67 2578.56 0 0 0
2 15.232 1870.74 3625.94 0 0 0
2 22.444 0.153 2010.41 0 0 0
2 3.249 1999.63 2968.92 0 0 0
2 0.078 1034.62 2000.05 0 0 0
2 481.976 618.565 2410.08 0 0 0
2 2627.46 2000.02 0.193 0 0 0
2 2296.74 2031.87 1984.03 0 0 0
2 2864.58 3922.4 1806.68 0 0 0
2 3123.13 3999.97 1144.15 0 0 0
2 2002.32 3998.85 1998.5 0 0 0
2 3440.04 3491.27 104.269 0 0 0
2 3905.69 3999.75 1974.06 0 0 0
2 3593.51 2731.49 287.906 0 0 0
2 2979.92 3078.58 1499.91 0 0 0
2 2001.13 2041.92 1692.19 0 0 0
2 2000.15 2025.39 738.162 0 0 0
2 2140.57 2349.24 1394.16 0 0 0
2 2000 3624.39 18.001 0 0 0
2 2000 3292.51 1819.32 0 0 0
2 2104.66 2267.43 257.446 0 0 0
2 2195.47 2309.53 1022.89 0 0 0
2 2139.96 2384.88 903.252 0 0 0
2 2202.07 2122.81 222.553 0 0 0
2 2152.05 2380.18 88.862 0 0 0
2 2337.07 2456.11 323.59 0 0 0
2 2224.8 2146.9 876.973 0 0 0
2 2130.53 2030.06 1030.25 0 0 0
2 2381.68 2396.08 928.352 0 0 0
2 2086.11 2224.62 368.07 0 0 0
2 2529.2 2207.56 910.301 0 0 0
2 2177.11 2402.48 460.181 0 0 0
2 2348.3 2349.27 160.744 0 0 0
2 2069.22 2184.58 1003 0 0 0
2 2053.97 2162.54 703.53 0 0 0
2 2083.03 2374.41 178.543 0 0 0
2 2229.01 2040.36 291.165 0 0 0
2 2368.97 2360.41 497.321 0 0 0
2 2439.62 2422.2 581.89 0 0 0
2 2116.38 2004.29 768.154 0 0 0
2 2406.08 2290.02 873.903 0 0 0
2 2281.89 2262.52 175.943 0 0 0
2 2116.61 2367.18 1075.27 0 0 0
2 2218.96 2211.8 296.466 0 0 0
2 2197.39 2098.75 79.632 0 0 0
2 2260.92 2243.78 831.055 0 0 0
2 2390.54 2011.99 1011.97 0 0 0
2 2430.82 2101.08 1077.26 0 0 0
2 2324.05 2173.31 624.637 0 0 0
2 2018.7 2429.94 94.051 0 0 0
2 2282.31 2412.72 821.66 0 0 0
2 2806.99 3955.94 25.145 0 0 0
2 2544.42 2109.5 78.691 0 0 0
2 2392 2069 720.683 0 0 0
2 2398.76 2231.35 111.519 0 0 0
2 2258.17 2333.89 894.97 0 0 0
2 4000 4000 1575.74 0 0 0
2 2307.76 2321.97 599.517 0 0 0
2 2437.37 2141.43 389.823 0 0 0
2 2257.75 2310.92 57.959 0 0 0
2 2174.38 2308.22 182.152 0 0 0
2 2264.51 2407.17 115.9 0 0 0
2 2000 3655.11 1742.12 0 0 0
2 4000 2207.61 578.587 0 0 0
2 4000 3515.98 2000 0 0 0
2 2338.84 2054.05 0 0 0 0
2 3006.44 2000.3 1168.52 0 0 0
2 2661.23 3685.51 647.973 0 0 0
2 2149.33 2474.35 727.629 0 0 0
2 2000 223.386 4000 0 0 0
2 3997.97 1.665 2007.68 0 0 0
2 3696.62 470.137 3753.65 0 0 0
2 2006.51 1894.18 2091.13 0 0 0
2 2396.51 25.387 2075.82 0 0 0
2 2544.76 312.403 2081.65 0 0 0
2 2000.01 291.632 2591.5 0 0 0
2 3812.74 1863.04 2050.32 0 0 0
2 3585.73 0.037 2144.23 0 0 0
2 2594.12 395.971 2000.13 0 0 0
2 2000.01 338.866 2852.21 0 0 0
2 3995.46 449.168 2019.98 0 0 0
2 3092.41 579.459 3881.49 0 0 0
2 2588.76 81.683 3967.41 0 0 0
2 2159.43 607.073 2340.78 0 0 0
2 2250.15 1648.3 3587.74 0 0 0
2 3332.98 1580.83 4000 0 0 0
2 3213.07 1034.8 3467.66 0 0 0
2 2533.61 84.635 2156.99 0 0 0
2 2391.3 1800.74 2534.53 0 0 0
2 3838.03 349.357 3894.51 0 0 0
2 2946.12 1249.87 4000 0 0 0
2 2749.74 725.134 2584.7 0 0 0
2 2278.89 891.009 3784.73 0 0 0
2 2215.96 133.128 3958.14 0 0 0
2 2652.24 398.301 2304.43 0 0 0
2 2211.13 481.525 2443.01 0 0 0
2 3332.98 714.485 3349.2 0 0 0
2 4000 1074.48 4000 0 0 0
2 3516.98 893.502 2962.98 0 0 0
2 4000 739.603 2468.92 0 0 0
2 2947.16 1722.35 2518.25 0 0 0
2 2475.53 109.018 2329.39 0 0 0
2 2958.87 261.915 3526.92 0 0 0
2 3653.57 96.241 2240.22 0 0 0
2 3257.62 856.361 2020.8 0 0 0
2 2387.41 442.301 2008.35 0 0 0
2 3922.83 89.434 2462.9 0 0 0
2 2170.35 976.141 2123.46 0 0 0
2 3499.34 1261.54 3427.54 0 0 0
2 3957.16 423.242 2337.78 0 0 0
2 2000.01 1159.35 2000.03 0 0 0
2 3964.68 1734.46 3892.2 0 0 0
2 4000 143.354 3190.73 0 0 0
2 4000 676.588 2320.2 0 0 0
2 2696.69 690.506 3046.14 0 0 0
2 2364.9 41.522 2727.45 0 0 0
2 3722.43 1195.36 4000 0 0 0
2 3121.57 597.601 2603.66 0 0 0
2 2949.53 2000 3854.83 0 0 0
2 2334.04 195.933 2421.71 0 0 0
2 3977.83 567.283 3915.95 0 0 0
2 2130.56 1205.51 3846.44 0 0 0
2 3054.45 1389.46 3628.25 0 0 0
2 3496.25 660.688 2568.66 0 0 0
2 3458.69 468.93 3730.11 0 0 0
2 4000 1927.78 2191.88 0 0 0
2 2516 0.009 3990.45 0 0 0
2 2152.82 957.439 3093.18 0 0 0
2 2000.07 985.648 2305.93 0 0 0
2 2216.55 1949.62 2044.03 0 0 0
2 2486.33 811.006 2218.85 0 0 0
2 1400.71 2071.07 3109.46 0 0 0
2 0.649 3565.77 2003.24 0 0 0
2 45.476 3989.92 2000.25 0 0 0
2 1916.57 3317.78 3879.23 0 0 0
2 169.232 2762.99 4000 0 0 0
2 1648.67 2505.43 3014.92 0 0 0
2 1883.28 2000 2007.8 0 0 0
2 2000 3999.78 3063.14 0 0 0
2 1675.99 2768.76 2246.75 0 0 0
2 614.612 4000 2925.78 0 0 0
2 1930.76 3470.91 3656.84 0 0 0
2 2000 2645.28 3233.87 0 0 0
2 1815.6 2730.03 2000 0 0 0
2 1893.8 3947.66 3910.69 0 0 0
2 714.432 2226.39 2000 0 0 0
2 432.985 2000.55 2194.01 0 0 0
2 192.411 2196.98 2029.24 0 0 0
2 141.062 2026.22 2924.92 0 0 0
2 980.24 2000 2005.62 0 0 0
2 82.338 2216.89 2190.69 0 0 0
2 380.721 2152.29 2002.97 0 0 0
2 53.662 2981.85 2063.39 0 0 0
2 602.405 2190.66 2281.45 0 0 0
2 421.425 2289.18 2266.6 0 0 0
2 205.812 2284.38 2247.51 0 0 0
2 699.2 2404.88 2065.69 0 0 0
2 0 3316.06 2000 0 0 0
2 414.57 2018.15 2502.82 0 0 0
2 1032.45 2226.37 2344.01 0 0 0
2 2000 3575.79 3145.47 0 0 0
2 162.969 2020.11 2145.35 0 0 0
2 283.519 2155.49 2340.58 0 0 0
2 0.152 3433.97 2000.12 0 0 0
2 610.788 2200.21 2127.62 0 0 0
2 226.151 2346.51 2045.87 0 0 0
2 572.627 2003.01 2340.75 0 0 0
2 558.518 3598.55 3397.25 0 0 0
2 1892.87 3846.85 3982.47 0 0 0
2 741.026 2221.03 2365.91 0 0 0
2 458.723 2000 2388.7 0 0 0
2 486.945 2103.63 2412.75 0 0 0
2 446.021 2194.69 2202.57 0 0 0
2 1728.49 3592.15 2000 0 0 0
2 307.268 2273.49 2366.54 0 0 0
2 248.214 2106.8 2000 0 0 0
2 828.757 2196.07 2021.59 0 0 0
2 523.33 2106.21 2271.47 0 0 0
2 78.391 2368.45 2262.14 0 0 0
2 307.279 2263.8 2054.93 0 0 0
2 114.593 2383.26 2142.6 0 0 0
2 776.482 2081.04 2748.89 0 0 0
2 280.216 3999.28 3999.11 0 0 0
2 450.992 2276.2 2124.28 0 0 0
2 190.203 2251.72 2125.23 0 0 0
2 1358.46 4000 3734.7 0 0 0
2 367.036 2307.19 2477.53 0 0 0
2 968.222 2209.67 2080.8 0 0 0
2 1403.35 2050.43 3889.67 0 0 0
2 939.968 2000 3817.81 0 0 0
2 417.01 3997.68 3992.97 0 0 0
2 1826.21 2020.45 3999.36 0 0 0
2 313.649 2140.05 3390.88 0 0 0
2 527.156 2238.15 2000 0 0 0
2 3841.14 2000.05 2003.6 0 0 0
2 2107.89 2004.54 3745.44 0 0 0
2 2220.8 3036.7 3229.83 0 0 0
2 3997.72 2000.83 2618.86 0 0 0
2 3999.88 2646.81 2000.02 0 0 0
2 2000.17 2310.62 2477.25 0 0 0
2 3590.94 2188.84 3859.78 0 0 0
2 2000.92 3934.78 3615.89 0 0 0
2 3118.12 2000 3929.59 0 0 0
2 3991.55 3991.8 4000 0 0 0
2 3560.73 3879.32 2005.28 0 0 0
2 2000 3935.76 2578.45 0 0 0
2 3436.12 3763.57 3992.07 0 0 0
2 3947.71 2433.49 2039.14 0 0 0
2 2000 3992.33 2691.37 0 0 0
2 2000 2399.61 3466.24 0 0 0
2 3473.45 2780.55 2860.01 0 0 0
2 3194.42 2000 2894.66 0 0 0
2 2203.16 2075.44 2319.26 0 0 0
2 4000 3548.04 2997.41 0 0 0
2 2013.17 2091.55 2373.31 0 0 0
2 2643.34 2562.33 2029.16 0 0 0
2 3182.57 3987.39 2039.58 0 0 0
2 3117.65 2701.46 2175.66 0 0 0
2 2874.09 3172.34 2932.4 0 0 0
2 2943.65 2000 2304.76 0 0 0
2 3888.19 3631.37 2000 0 0 0
2 2000.01 2995.6 3188.69 0 0 0
2 3992.26 2141.79 3762.72 0 0 0
2 2711.83 2000 2367.61 0 0 0
2 3999.07 3658.6 3915.2 0 0 0
2 4000 3883.92 2401.77 0 0 0
2 2790.31 2422.89 2523 0 0 0
2 2054.38 2935.34 2099.76 0 0 0
2 2000 3436.47 2145.74 0 0 0