LAMMPS (23 Jun 2022 - Update 1)
OMP_NUM_THREADS environment is not set. Defaulting to 1 thread. (src/comm.cpp:98)
  using 1 OpenMP thread(s) per MPI task
# Read restart
read_restart ${read_res}
read_restart ./pgnpmf/0100/equpmf18.res
Reading restart file ...
  restart file = 23 Jun 2022, LAMMPS = 23 Jun 2022
  restoring atom style atomic from restart
  orthogonal box = (810.67545 810.67545 810.67545) to (3189.3246 3189.3246 3189.3246)
  2 by 1 by 2 MPI processor grid
  restoring pair style table from restart
  1000 atoms
  read_restart CPU = 0.005 seconds

# Settings

pair_style table spline 9941

pair_coeff 1 1 ./pgnpmf/N20.txt DE_GNP 75.6
pair_coeff 2 2 ./pgnpmf/N100.txt DE_GNP 115.92
WARNING: 3 of 9941 force values in table DE_GNP are inconsistent with -dE/dr.
WARNING:  Should only be flagged at inflection points (src/pair_table.cpp:463)
pair_coeff 1 2 ./pgnpmf/mixed_potential.txt DE_GNP 95.66
WARNING: 1562 of 9941 force values in table DE_GNP are inconsistent with -dE/dr.
WARNING:  Should only be flagged at inflection points (src/pair_table.cpp:463)

#Neigh_list Calc Frequency

neigh_modify delay 0 every 1 check yes

# Saving Frequency (50 frames)

variable ts_save equal ${steps_equ}
variable ts_save equal 5000

# Dump
#dump 1 all custom ${ts_save} ./pgnpmf/${folder}/equilibration/trajectory/trajectory_${usic}_${trial}.equ.custom type x y z ix iy iz
#dump_modify 1 first no sort id
dump 2 all cfg 50000 ./pgnpmf/${folder}/equilibration/trajectory/dumpgen.tens_*.cfg mass type xs ys zs fx fy fz
dump 2 all cfg 50000 ./pgnpmf/0100/equilibration/trajectory/dumpgen.tens_*.cfg mass type xs ys zs fx fy fz
dump_modify 2 element N20 N100

# thermo_style
thermo_style custom step temp press pe density ke etotal lx ly lz xlo xhi ylo yhi zlo zhi vol dt time cpu tpcpu spcpu cpuremain

# run info
timestep ${ts}
timestep 0.1
thermo 10000


# fix

fix 1 all momentum 1000 linear 1 1 1 angular
variable T equal ${temp}
variable T equal 300
fix 2 all nvt temp ${T} 370000 100.0
fix 2 all nvt temp 300 370000 100.0

run 200000
Generated 0 of 1 mixed pair_coeff terms from geometric mixing rule
Unused restart file global fix info:
  fix style: npt, fix ID: 5
Neighbor list info ...
  update every 1 steps, delay 0 steps, check yes
  max neighbors/atom: 2000, page size: 100000
  master list distance cutoff = 117.92
  ghost atom cutoff = 117.92
  binsize = 58.96, bins = 41 41 41
  1 neighbor lists, perpetual/occasional/extra = 1 0 0
  (1) pair table, perpetual
      attributes: half, newton on
      pair build: half/bin/atomonly/newton
      stencil: half/bin/3d
      bin: standard
Per MPI rank memory allocation (min/avg/max) = 3.176 | 3.178 | 3.183 Mbytes
   Step          Temp          Press          PotEng        Density         KinEng         TotEng           Lx             Ly             Lz            Xlo            Xhi            Ylo            Yhi            Zlo            Zhi           Volume           Dt            Time           CPU           T/CPU          S/CPU         CPULeft    
  21460000   310.1706       1.0313909     -33965875       0.052074229    923.63508     -33964952       2378.6491      2378.6491      2378.6491      810.67545      3189.3246      810.67545      3189.3246      810.67545      3189.3246      1.3458329e+10  0.1            2600000        0              0              0              0            
  21470000   18002.566     -1.7183468     -34022807       0.052074229    53608.567     -33969198       2378.6491      2378.6491      2378.6491      810.67545      3189.3246      810.67545      3189.3246      810.67545      3189.3246      1.3458329e+10  0.1            2601000        0.89338146     1119.3421      11193.412      16.974283    
  21480000   38439.765     -6.5609313     -34097672       0.052074229    114467.06     -33983205       2378.6491      2378.6491      2378.6491      810.67545      3189.3246      810.67545      3189.3246      810.67545      3189.3246      1.3458329e+10  0.1            2602000        1.9789944      921.13846      9211.3811      17.810974    
  21490000   56898.577     -11.314766     -34190337       0.052074229    169434.25     -34020903       2378.6491      2378.6491      2378.6491      810.67545      3189.3246      810.67545      3189.3246      810.67545      3189.3246      1.3458329e+10  0.1            2603000        2.9480824      1031.898       10318.983      16.705813    
  21500000   72537.588     -14.963129     -34234437       0.052074229    216004.55     -34018432       2378.6491      2378.6491      2378.6491      810.67545      3189.3246      810.67545      3189.3246      810.67545      3189.3246      1.3458329e+10  0.1            2604000        3.8971647      1053.6494      10536.494      15.588668    
  21510000   91413.459     -17.298831     -34296910       0.052074229    272213.67     -34024696       2378.6491      2378.6491      2378.6491      810.67545      3189.3246      810.67545      3189.3246      810.67545      3189.3246      1.3458329e+10  0.1            2605000        4.8888504      1008.384       10083.838      14.666559    
  21520000   112916.71     -18.305094     -34309761       0.052074229    336246.68     -33973514       2378.6491      2378.6491      2378.6491      810.67545      3189.3246      810.67545      3189.3246      810.67545      3189.3246      1.3458329e+10  0.1            2606000        5.8484614      1042.0892      10420.892      13.646415    
  21530000   124792.43     -18.307303     -34359221       0.052074229    371610.56     -33987611       2378.6491      2378.6491      2378.6491      810.67545      3189.3246      810.67545      3189.3246      810.67545      3189.3246      1.3458329e+10  0.1            2607000        6.8750211      974.12731      9741.2723      12.767901    
  21540000   151889.79     -16.929955     -34392629       0.052074229    452301.87     -33940327       2378.6491      2378.6491      2378.6491      810.67545      3189.3246      810.67545      3189.3246      810.67545      3189.3246      1.3458329e+10  0.1            2608000        7.8953432      980.08273      9800.8271      11.843019    
  21550000   164854.36     -14.742858     -34485522       0.052074229    490908.14     -33994614       2378.6491      2378.6491      2378.6491      810.67545      3189.3246      810.67545      3189.3246      810.67545      3189.3246      1.3458329e+10  0.1            2609000        9.018667       890.21502      8902.1519      11.022818    
  21560000   182984.01     -11.399419     -34554481       0.052074229    544895.14     -34009586       2378.6491      2378.6491      2378.6491      810.67545      3189.3246      810.67545      3189.3246      810.67545      3189.3246      1.3458329e+10  0.1            2610000        9.9559777      1066.8825      10668.825      9.9559797    
  21570000   206734.06     -7.4399648     -34553149       0.052074229    615618.73     -33937530       2378.6491      2378.6491      2378.6491      810.67545      3189.3246      810.67545      3189.3246      810.67545      3189.3246      1.3458329e+10  0.1            2611000        10.901962      1057.1002      10571.001      8.9197887    
  21580000   214638.75     -3.2552048     -34559947       0.052074229    639157.55     -33920789       2378.6491      2378.6491      2378.6491      810.67545      3189.3246      810.67545      3189.3246      810.67545      3189.3246      1.3458329e+10  0.1            2612000        11.982846      925.16843      9251.684       7.9885657    
  21590000   247182.09      0.88328313    -34545878       0.052074229    736066.06     -33809812       2378.6491      2378.6491      2378.6491      810.67545      3189.3246      810.67545      3189.3246      810.67545      3189.3246      1.3458329e+10  0.1            2613000        12.965877      1017.2616      10172.617      6.9816274    
  21600000   264882.98      4.3322091     -34599398       0.052074229    788776.3      -33810622       2378.6491      2378.6491      2378.6491      810.67545      3189.3246      810.67545      3189.3246      810.67545      3189.3246      1.3458329e+10  0.1            2614000        13.938262      1028.3986      10283.978      5.9735428    
  21610000   274187.07      7.7191768     -34687486       0.052074229    816482.28     -33871004       2378.6491      2378.6491      2378.6491      810.67545      3189.3246      810.67545      3189.3246      810.67545      3189.3246      1.3458329e+10  0.1            2615000        14.891644      1048.8981      10488.987      4.9638822    
  21620000   299064.2       11.13213      -34688503       0.052074229    890562.12     -33797941       2378.6491      2378.6491      2378.6491      810.67545      3189.3246      810.67545      3189.3246      810.67545      3189.3246      1.3458329e+10  0.1            2616000        16.004076      898.9313       8989.3099      4.0010198    
  21630000   314558.52      13.535263     -34763540       0.052074229    936701.56     -33826839       2378.6491      2378.6491      2378.6491      810.67545      3189.3246      810.67545      3189.3246      810.67545      3189.3246      1.3458329e+10  0.1            2617000        17.035792      969.25941      9692.5983      3.0063167    
  21640000   327820.83      16.046662     -34859743       0.052074229    976194.45     -33883548       2378.6491      2378.6491      2378.6491      810.67545      3189.3246      810.67545      3189.3246      810.67545      3189.3246      1.3458329e+10  0.1            2618000        17.921379      1129.1941      11291.942      1.9912646    
  21650000   361011.84      19.359847     -34847892       0.052074229    1075031.6     -33772860       2378.6491      2378.6491      2378.6491      810.67545      3189.3246      810.67545      3189.3246      810.67545      3189.3246      1.3458329e+10  0.1            2619000        18.876603      1046.8756      10468.756      0.99350552   
  21660000   356159.88      22.215459     -34883514       0.052074229    1060583.3     -33822930       2378.6491      2378.6491      2378.6491      810.67545      3189.3246      810.67545      3189.3246      810.67545      3189.3246      1.3458329e+10  0.1            2620000        19.842601      1035.1986      10351.983      0            
Loop time of 19.8427 on 4 procs for 200000 steps with 1000 atoms

Performance: 87.085 ns/day, 0.276 hours/ns, 10079.295 timesteps/s
99.6% CPU use with 4 MPI tasks x 1 OpenMP threads

MPI task timing breakdown:
Section |  min time  |  avg time  |  max time  |%varavg| %total
---------------------------------------------------------------
Pair    | 0.054905   | 3.8307     | 14.569     | 316.8 | 19.31
Neigh   | 0.0015126  | 0.0073355  | 0.023494   |  10.9 |  0.04
Comm    | 2.0082     | 12.638     | 16.275     | 172.7 | 63.69
Output  | 0.062717   | 0.063065   | 0.064102   |   0.2 |  0.32
Modify  | 1.4368     | 1.8133     | 2.5351     |  31.6 |  9.14
Other   |            | 1.491      |            |       |  7.51

Nlocal:            250 ave         811 max          34 min
Histogram: 3 0 0 0 0 0 0 0 0 1
Nghost:          134.5 ave         199 max          63 min
Histogram: 1 0 0 0 0 2 0 0 0 1
Neighs:          989.5 ave        3824 max           1 min
Histogram: 3 0 0 0 0 0 0 0 0 1

Total # of neighbors = 3958
Ave neighs/atom = 3.958
Neighbor list builds = 57
Dangerous builds = 0

unfix 2

fix 3 all nvt temp 370000 370000 $(100.0*dt) #iso 1.0 1.0 $(1000.0*dt)
fix 3 all nvt temp 370000 370000 10 

run 500000
Generated 0 of 1 mixed pair_coeff terms from geometric mixing rule
Per MPI rank memory allocation (min/avg/max) = 4.475 | 4.477 | 4.482 Mbytes
   Step          Temp          Press          PotEng        Density         KinEng         TotEng           Lx             Ly             Lz            Xlo            Xhi            Ylo            Yhi            Zlo            Zhi           Volume           Dt            Time           CPU           T/CPU          S/CPU         CPULeft    
  21660000   356159.88      22.215459     -34883514       0.052074229    1060583.3     -33822930       2378.6491      2378.6491      2378.6491      810.67545      3189.3246      810.67545      3189.3246      810.67545      3189.3246      1.3458329e+10  0.1            2620000        0              0              0              0            
  21670000   375187.33      24.779365     -35006894       0.052074229    1117243.8     -33889650       2378.6491      2378.6491      2378.6491      810.67545      3189.3246      810.67545      3189.3246      810.67545      3189.3246      1.3458329e+10  0.1            2621000        1.1601649      861.946        8619.4525      56.8482      
  21680000   366824.22      25.391277     -35036724       0.052074229    1092339.9     -33944384       2378.6491      2378.6491      2378.6491      810.67545      3189.3246      810.67545      3189.3246      810.67545      3189.3246      1.3458329e+10  0.1            2622000        2.2252316      938.90823      9389.0799      53.40563     
  21690000   389824.81      26.594431     -35059087       0.052074229    1160831.7     -33898255       2378.6491      2378.6491      2378.6491      810.67545      3189.3246      810.67545      3189.3246      810.67545      3189.3246      1.3458329e+10  0.1            2623000        3.4815161      795.99801      7959.982       54.543791    
  21700000   357142.31      27.935448     -34974964       0.052074229    1063508.8     -33911456       2378.6491      2378.6491      2378.6491      810.67545      3189.3246      810.67545      3189.3246      810.67545      3189.3246      1.3458329e+10  0.1            2624000        4.4289137      1055.5232      10555.235      50.93253     
  21710000   370910.67      28.686329     -35021838       0.052074229    1104508.6     -33917330       2378.6491      2378.6491      2378.6491      810.67545      3189.3246      810.67545      3189.3246      810.67545      3189.3246      1.3458329e+10  0.1            2625000        5.4014321      1028.258       10282.578      48.612911    
  21720000   385287.63      28.789349     -35048267       0.052074229    1147320.8     -33900946       2378.6491      2378.6491      2378.6491      810.67545      3189.3246      810.67545      3189.3246      810.67545      3189.3246      1.3458329e+10  0.1            2626000        6.417492       984.19403      9841.9407      47.061625    
  21730000   367995.72      28.051395     -35083982       0.052074229    1095828.4     -33988154       2378.6491      2378.6491      2378.6491      810.67545      3189.3246      810.67545      3189.3246      810.67545      3189.3246      1.3458329e+10  0.1            2627000        7.5839832      857.27184      8572.719       46.587339    
  21740000   369177.02      27.231931     -35181917       0.052074229    1099346.1     -34082571       2378.6491      2378.6491      2378.6491      810.67545      3189.3246      810.67545      3189.3246      810.67545      3189.3246      1.3458329e+10  0.1            2628000        8.6241765      961.35985      9613.5981      45.276938    
  21750000   370881.69      26.614459     -35126811       0.052074229    1104422.3     -34022389       2378.6491      2378.6491      2378.6491      810.67545      3189.3246      810.67545      3189.3246      810.67545      3189.3246      1.3458329e+10  0.1            2629000        9.642342       982.15843      9821.584       43.926236    
  21760000   348329.65      24.92918      -35095308       0.052074229    1037266.2     -34058041       2378.6491      2378.6491      2378.6491      810.67545      3189.3246      810.67545      3189.3246      810.67545      3189.3246      1.3458329e+10  0.1            2630000        10.668229      974.76642      9747.6663      42.672924    
  21770000   379744.55      22.995746     -35158245       0.052074229    1130814.4     -34027431       2378.6491      2378.6491      2378.6491      810.67545      3189.3246      810.67545      3189.3246      810.67545      3189.3246      1.3458329e+10  0.1            2631000        11.605044      1067.4465      10674.464      41.145163    
  21780000   383324.2       21.309305     -35055609       0.052074229    1141474       -33914135       2378.6491      2378.6491      2378.6491      810.67545      3189.3246      810.67545      3189.3246      810.67545      3189.3246      1.3458329e+10  0.1            2632000        12.608313      996.73856      9967.3833      39.926342    
  21790000   362656.36      19.059327     -35024723       0.052074229    1079928.7     -33944795       2378.6491      2378.6491      2378.6491      810.67545      3189.3246      810.67545      3189.3246      810.67545      3189.3246      1.3458329e+10  0.1            2633000        13.55309       1058.454       10584.541      38.574186    
  21800000   362998.78      16.228256     -35044170       0.052074229    1080948.4     -33963221       2378.6491      2378.6491      2378.6491      810.67545      3189.3246      810.67545      3189.3246      810.67545      3189.3246      1.3458329e+10  0.1            2634000        14.639921      920.10644      9201.0649      37.645517    
  21810000   374347.5       13.239828     -35013562       0.052074229    1114742.9     -33898819       2378.6491      2378.6491      2378.6491      810.67545      3189.3246      810.67545      3189.3246      810.67545      3189.3246      1.3458329e+10  0.1            2635000        15.778814      878.0453       8780.4538      36.817239    
  21820000   352939.82      10.268193     -34969797       0.052074229    1050994.5     -33918802       2378.6491      2378.6491      2378.6491      810.67545      3189.3246      810.67545      3189.3246      810.67545      3189.3246      1.3458329e+10  0.1            2636000        16.737166      1043.4586      10434.584      35.566482    
  21830000   380080.69      8.4392295     -34885247       0.052074229    1131815.4     -33753432       2378.6491      2378.6491      2378.6491      810.67545      3189.3246      810.67545      3189.3246      810.67545      3189.3246      1.3458329e+10  0.1            2637000        17.680404      1060.1768      10601.768      34.32079     
  21840000   360231.04      6.4134041     -34725624       0.052074229    1072706.5     -33652917       2378.6491      2378.6491      2378.6491      810.67545      3189.3246      810.67545      3189.3246      810.67545      3189.3246      1.3458329e+10  0.1            2638000        18.628486      1054.7615      10547.615      33.117313    
  21850000   379915.83      4.631931      -34620075       0.052074229    1131324.5     -33488751       2378.6491      2378.6491      2378.6491      810.67545      3189.3246      810.67545      3189.3246      810.67545      3189.3246      1.3458329e+10  0.1            2639000        19.723308      913.39086      9133.9082      32.180138    
  21860000   365733.41      3.2785551     -34531961       0.052074229    1089091.7     -33442869       2378.6491      2378.6491      2378.6491      810.67545      3189.3246      810.67545      3189.3246      810.67545      3189.3246      1.3458329e+10  0.1            2640000        20.7284        994.93332      9949.3314      31.092604    
  21870000   358707.89      2.2487791     -34444526       0.052074229    1068170.9     -33376355       2378.6491      2378.6491      2378.6491      810.67545      3189.3246      810.67545      3189.3246      810.67545      3189.3246      1.3458329e+10  0.1            2641000        21.73213       996.28453      9962.8469      30.011039    
  21880000   372851.99      1.0097286     -34265766       0.052074229    1110289.6     -33155477       2378.6491      2378.6491      2378.6491      810.67545      3189.3246      810.67545      3189.3246      810.67545      3189.3246      1.3458329e+10  0.1            2642000        22.74239       989.84344      9898.4332      28.944864    
  21890000   382501.68     -1.0265589     -34209054       0.052074229    1139024.7     -33070030       2378.6491      2378.6491      2378.6491      810.67545      3189.3246      810.67545      3189.3246      810.67545      3189.3246      1.3458329e+10  0.1            2643000        23.756953      985.64673      9856.4677      27.888599    
  21900000   367450.35     -3.221873      -34054482       0.052074229    1094204.4     -32960278       2378.6491      2378.6491      2378.6491      810.67545      3189.3246      810.67545      3189.3246      810.67545      3189.3246      1.3458329e+10  0.1            2644000        24.718777      1039.6906      10396.908      26.778678    
  21910000   367441.25     -5.2816865     -33981965       0.052074229    1094177.3     -32887788       2378.6491      2378.6491      2378.6491      810.67545      3189.3246      810.67545      3189.3246      810.67545      3189.3246      1.3458329e+10  0.1            2645000        25.827896      901.6169       9016.1652      25.827899    
  21920000   369015.68     -7.2055096     -33970537       0.052074229    1098865.7     -32871672       2378.6491      2378.6491      2378.6491      810.67545      3189.3246      810.67545      3189.3246      810.67545      3189.3246      1.3458329e+10  0.1            2646000        26.91783       917.48639      9174.8644      24.847231    
  21930000   370192.34     -8.1440336     -33818283       0.052074229    1102369.6     -32715913       2378.6491      2378.6491      2378.6491      810.67545      3189.3246      810.67545      3189.3246      810.67545      3189.3246      1.3458329e+10  0.1            2647000        28.051788      881.86721      8818.6742      23.895969    
  21940000   370608.21     -8.4708974     -33765703       0.052074229    1103608       -32662095       2378.6491      2378.6491      2378.6491      810.67545      3189.3246      810.67545      3189.3246      810.67545      3189.3246      1.3458329e+10  0.1            2648000        28.927234      1142.2749      11422.75       22.728543    
  21950000   363316.87     -8.0786757     -33697153       0.052074229    1081895.6     -32615258       2378.6491      2378.6491      2378.6491      810.67545      3189.3246      810.67545      3189.3246      810.67545      3189.3246      1.3458329e+10  0.1            2649000        29.928633      998.6026       9986.0238      21.67246     
  21960000   379495.46     -6.8474302     -33650747       0.052074229    1130072.7     -32520674       2378.6491      2378.6491      2378.6491      810.67545      3189.3246      810.67545      3189.3246      810.67545      3189.3246      1.3458329e+10  0.1            2650000        30.893215      1036.7181      10367.181      20.595479    
  21970000   372447.52     -5.3964455     -33550600       0.052074229    1109085.1     -32441515       2378.6491      2378.6491      2378.6491      810.67545      3189.3246      810.67545      3189.3246      810.67545      3189.3246      1.3458329e+10  0.1            2651000        32.006846      897.96415      8979.6417      19.617101    
  21980000   372563.42     -4.910927      -33467808       0.052074229    1109430.2     -32358378       2378.6491      2378.6491      2378.6491      810.67545      3189.3246      810.67545      3189.3246      810.67545      3189.3246      1.3458329e+10  0.1            2652000        32.897749      1122.4565      11224.566      18.504985    
  21990000   382096.25     -5.4027135     -33345968       0.052074229    1137817.4     -32208150       2378.6491      2378.6491      2378.6491      810.67545      3189.3246      810.67545      3189.3246      810.67545      3189.3246      1.3458329e+10  0.1            2653000        33.768384      1148.5868      11485.869      17.395835    
  22000000   366995.97     -6.0459527     -33244714       0.052074229    1092851.3     -32151863       2378.6491      2378.6491      2378.6491      810.67545      3189.3246      810.67545      3189.3246      810.67545      3189.3246      1.3458329e+10  0.1            2654000        34.816079      954.47522      9544.7432      16.38404     
  22010000   386202.13     -4.9742535     -33077374       0.052074229    1150044       -31927330       2378.6491      2378.6491      2378.6491      810.67545      3189.3246      810.67545      3189.3246      810.67545      3189.3246      1.3458329e+10  0.1            2655000        35.8726        946.50403      9465.0457      15.373973    
  22020000   367274.83     -4.1986914     -32931500       0.052074229    1093681.7     -31837818       2378.6491      2378.6491      2378.6491      810.67545      3189.3246      810.67545      3189.3246      810.67545      3189.3246      1.3458329e+10  0.1            2656000        36.755588      1132.5181      11325.186      14.293841    
  22030000   355896.23     -5.4873029     -32902340       0.052074229    1059798.2     -31842542       2378.6491      2378.6491      2378.6491      810.67545      3189.3246      810.67545      3189.3246      810.67545      3189.3246      1.3458329e+10  0.1            2657000        37.666036      1098.3601      10983.598      13.234014    
  22040000   372921.85     -7.9169689     -32796606       0.052074229    1110497.6     -31686108       2378.6491      2378.6491      2378.6491      810.67545      3189.3246      810.67545      3189.3246      810.67545      3189.3246      1.3458329e+10  0.1            2658000        38.729033      940.73667      9407.3673      12.230222    
  22050000   354014.73     -10.14154      -32768394       0.052074229    1054195.4     -31714198       2378.6491      2378.6491      2378.6491      810.67545      3189.3246      810.67545      3189.3246      810.67545      3189.3246      1.3458329e+10  0.1            2659000        39.77703       954.20041      9542.0048      11.219163    
  22060000   368550.33     -9.5011839     -32683934       0.052074229    1097480       -31586454       2378.6491      2378.6491      2378.6491      810.67545      3189.3246      810.67545      3189.3246      810.67545      3189.3246      1.3458329e+10  0.1            2660000        40.871244      913.8981       9138.9803      10.217812    
  22070000   379986.55     -8.0952327     -32487346       0.052074229    1131535.1     -31355811       2378.6491      2378.6491      2378.6491      810.67545      3189.3246      810.67545      3189.3246      810.67545      3189.3246      1.3458329e+10  0.1            2661000        41.770211      1112.389       11123.891      9.1690712    
  22080000   349374.81     -8.110341      -32480612       0.052074229    1040378.5     -31440234       2378.6491      2378.6491      2378.6491      810.67545      3189.3246      810.67545      3189.3246      810.67545      3189.3246      1.3458329e+10  0.1            2662000        42.761735      1008.5478      10085.473      8.145093     
  22090000   384902.65     -7.9780926     -32410234       0.052074229    1146174.4     -31264060       2378.6491      2378.6491      2378.6491      810.67545      3189.3246      810.67545      3189.3246      810.67545      3189.3246      1.3458329e+10  0.1            2663000        43.71982       1043.7489      10437.493      7.1171804    
  22100000   381335.27     -8.3351846     -32313135       0.052074229    1135551.3     -31177583       2378.6491      2378.6491      2378.6491      810.67545      3189.3246      810.67545      3189.3246      810.67545      3189.3246      1.3458329e+10  0.1            2664000        44.738219      981.93331      9819.3334      6.1006666    
  22110000   387982.08     -8.5276548     -32192250       0.052074229    1155344.4     -31036906       2378.6491      2378.6491      2378.6491      810.67545      3189.3246      810.67545      3189.3246      810.67545      3189.3246      1.3458329e+10  0.1            2665000        45.768746      970.37717      9703.7718      5.0854166    
  22120000   390990.76     -8.469269      -32151785       0.052074229    1164303.7     -30987482       2378.6491      2378.6491      2378.6491      810.67545      3189.3246      810.67545      3189.3246      810.67545      3189.3246      1.3458329e+10  0.1            2666000        46.852326      922.86661      9228.6665      4.0741156    
  22130000   368592.86     -7.7730665     -32139168       0.052074229    1097606.6     -31041561       2378.6491      2378.6491      2378.6491      810.67545      3189.3246      810.67545      3189.3246      810.67545      3189.3246      1.3458329e+10  0.1            2667000        47.841768      1010.6711      10106.714      3.05373      
  22140000   364810.73     -6.1420892     -32083133       0.052074229    1086344.1     -30996789       2378.6491      2378.6491      2378.6491      810.67545      3189.3246      810.67545      3189.3246      810.67545      3189.3246      1.3458329e+10  0.1            2668000        48.699906      1165.3141      11653.138      2.0291628    
  22150000   359620.59     -5.1963232     -31953892       0.052074229    1070888.7     -30883003       2378.6491      2378.6491      2378.6491      810.67545      3189.3246      810.67545      3189.3246      810.67545      3189.3246      1.3458329e+10  0.1            2669000        49.636626      1067.5539      10675.537      1.0129924    
  22160000   364696.47     -5.7971859     -31954022       0.052074229    1086003.8     -30868018       2378.6491      2378.6491      2378.6491      810.67545      3189.3246      810.67545      3189.3246      810.67545      3189.3246      1.3458329e+10  0.1            2670000        50.664031      973.3263       9733.2631      0            
Loop time of 50.6641 on 4 procs for 500000 steps with 1000 atoms

Performance: 85.267 ns/day, 0.281 hours/ns, 9868.923 timesteps/s
99.6% CPU use with 4 MPI tasks x 1 OpenMP threads

MPI task timing breakdown:
Section |  min time  |  avg time  |  max time  |%varavg| %total
---------------------------------------------------------------
Pair    | 0.14026    | 9.7887     | 37.326     | 508.3 | 19.32
Neigh   | 0.0058158  | 0.030704   | 0.099957   |  22.8 |  0.06
Comm    | 5.091      | 32.349     | 41.8       | 276.8 | 63.85
Output  | 0.10249    | 0.10279    | 0.10365    |   0.2 |  0.20
Modify  | 3.6494     | 4.6129     | 6.4219     |  49.7 |  9.10
Other   |            | 3.78       |            |       |  7.46

Nlocal:            250 ave         810 max          35 min
Histogram: 3 0 0 0 0 0 0 0 0 1
Nghost:         142.75 ave         213 max          59 min
Histogram: 1 0 0 0 0 1 1 0 0 1
Neighs:            926 ave        3566 max           1 min
Histogram: 3 0 0 0 0 0 0 0 0 1

Total # of neighbors = 3704
Ave neighs/atom = 3.704
Neighbor list builds = 240
Dangerous builds = 0

unfix 3

fix 4 all nvt temp 370000 ${T} $(100.0*dt)
fix 4 all nvt temp 370000 300 $(100.0*dt)
fix 4 all nvt temp 370000 300 10

run 200000
Generated 0 of 1 mixed pair_coeff terms from geometric mixing rule
Per MPI rank memory allocation (min/avg/max) = 4.475 | 4.478 | 4.482 Mbytes
   Step          Temp          Press          PotEng        Density         KinEng         TotEng           Lx             Ly             Lz            Xlo            Xhi            Ylo            Yhi            Zlo            Zhi           Volume           Dt            Time           CPU           T/CPU          S/CPU         CPULeft    
  22160000   364696.47     -5.7971859     -31954022       0.052074229    1086003.8     -30868018       2378.6491      2378.6491      2378.6491      810.67545      3189.3246      810.67545      3189.3246      810.67545      3189.3246      1.3458329e+10  0.1            2670000        0              0              0              0            
  22170000   353208.76     -7.3792551     -31971608       0.052074229    1051795.4     -30919812       2378.6491      2378.6491      2378.6491      810.67545      3189.3246      810.67545      3189.3246      810.67545      3189.3246      1.3458329e+10  0.1            2671000        1.0122859      987.86264      9878.6192      19.23347     
  22180000   334181        -9.1109934     -31979647       0.052074229    995133.96     -30984513       2378.6491      2378.6491      2378.6491      810.67545      3189.3246      810.67545      3189.3246      810.67545      3189.3246      1.3458329e+10  0.1            2672000        1.9057841      1119.1966      11191.964      17.152075    
  22190000   326725.25     -10.26556      -31985056       0.052074229    972931.99     -31012124       2378.6491      2378.6491      2378.6491      810.67545      3189.3246      810.67545      3189.3246      810.67545      3189.3246      1.3458329e+10  0.1            2673000        2.7914849      1129.0492      11290.491      15.818428    
  22200000   302221.06     -11.060448     -31929842       0.052074229    899962.7      -31029880       2378.6491      2378.6491      2378.6491      810.67545      3189.3246      810.67545      3189.3246      810.67545      3189.3246      1.3458329e+10  0.1            2674000        3.8857175      913.88247      9138.8256      15.542879    
  22210000   273046.37     -11.786376     -31915126       0.052074229    813085.47     -31102040       2378.6491      2378.6491      2378.6491      810.67545      3189.3246      810.67545      3189.3246      810.67545      3189.3246      1.3458329e+10  0.1            2675000        4.8851667      1000.5512      10005.514      14.655506    
  22220000   253377.88     -12.197054     -31930641       0.052074229    754516.05     -31176125       2378.6491      2378.6491      2378.6491      810.67545      3189.3246      810.67545      3189.3246      810.67545      3189.3246      1.3458329e+10  0.1            2676000        5.7634363      1138.6021      11386.021      13.448023    
  22230000   240391.25     -12.99999      -31953941       0.052074229    715844.09     -31238097       2378.6491      2378.6491      2378.6491      810.67545      3189.3246      810.67545      3189.3246      810.67545      3189.3246      1.3458329e+10  0.1            2677000        6.6224473      1164.1299      11641.298      12.298834    
  22240000   225605.45     -14.421109     -31994662       0.052074229    671814.5      -31322847       2378.6491      2378.6491      2378.6491      810.67545      3189.3246      810.67545      3189.3246      810.67545      3189.3246      1.3458329e+10  0.1            2678000        7.6257212      996.73669      9967.3649      11.438586    
  22250000   203137.91     -16.458829     -32052474       0.052074229    604910.01     -31447564       2378.6491      2378.6491      2378.6491      810.67545      3189.3246      810.67545      3189.3246      810.67545      3189.3246      1.3458329e+10  0.1            2679000        8.7160169      917.18231      9171.8256      10.652912    
  22260000   179719        -18.490796     -32042551       0.052074229    535172.5      -31507379       2378.6491      2378.6491      2378.6491      810.67545      3189.3246      810.67545      3189.3246      810.67545      3189.3246      1.3458329e+10  0.1            2680000        9.6598011      1059.5643      10595.64       9.6598035    
  22270000   161997.1      -20.421792     -32059288       0.052074229    482399.7      -31576888       2378.6491      2378.6491      2378.6491      810.67545      3189.3246      810.67545      3189.3246      810.67545      3189.3246      1.3458329e+10  0.1            2681000        10.660385      999.4163       9994.1633      8.7221352    
  22280000   150249.82     -21.741975     -32050821       0.052074229    447418.3      -31603403       2378.6491      2378.6491      2378.6491      810.67545      3189.3246      810.67545      3189.3246      810.67545      3189.3246      1.3458329e+10  0.1            2682000        11.527845      1152.7906      11527.909      7.6852316    
  22290000   130832.46     -23.030823     -32107419       0.052074229    389596.72     -31717823       2378.6491      2378.6491      2378.6491      810.67545      3189.3246      810.67545      3189.3246      810.67545      3189.3246      1.3458329e+10  0.1            2683000        12.384626      1167.1598      11671.593      6.6686461    
  22300000   116176.21     -23.656452     -32165773       0.052074229    345952.91     -31819820       2378.6491      2378.6491      2378.6491      810.67545      3189.3246      810.67545      3189.3246      810.67545      3189.3246      1.3458329e+10  0.1            2684000        13.238458      1171.1901      11711.908      5.6736259    
  22310000   93136.499     -23.966096     -32202617       0.052074229    277344.59     -31925273       2378.6491      2378.6491      2378.6491      810.67545      3189.3246      810.67545      3189.3246      810.67545      3189.3246      1.3458329e+10  0.1            2685000        14.179705      1062.4201      10624.199      4.7265693    
  22320000   75722.333     -24.342318     -32233793       0.052074229    225488.18     -32008305       2378.6491      2378.6491      2378.6491      810.67545      3189.3246      810.67545      3189.3246      810.67545      3189.3246      1.3458329e+10  0.1            2686000        15.09204       1096.0894      10960.895      3.7730105    
  22330000   57019.881     -25.198186     -32337097       0.052074229    169795.47     -32167302       2378.6491      2378.6491      2378.6491      810.67545      3189.3246      810.67545      3189.3246      810.67545      3189.3246      1.3458329e+10  0.1            2687000        16.147949      947.05111      9470.5075      2.8496386    
  22340000   38693.88      -26.330197     -32397732       0.052074229    115223.77     -32282508       2378.6491      2378.6491      2378.6491      810.67545      3189.3246      810.67545      3189.3246      810.67545      3189.3246      1.3458329e+10  0.1            2688000        17.156908      991.12105      9911.2117      1.9063233    
  22350000   18726.968     -27.60733      -32466723       0.052074229    55765.712     -32410957       2378.6491      2378.6491      2378.6491      810.67545      3189.3246      810.67545      3189.3246      810.67545      3189.3246      1.3458329e+10  0.1            2689000        18.02809       1147.8654      11478.657      0.94884695   
  22360000   520.57254     -28.685787     -32511892       0.052074229    1550.1761     -32510342       2378.6491      2378.6491      2378.6491      810.67545      3189.3246      810.67545      3189.3246      810.67545      3189.3246      1.3458329e+10  0.1            2690000        18.880664      1172.9183      11729.181      0            
Loop time of 18.8807 on 4 procs for 200000 steps with 1000 atoms

Performance: 91.522 ns/day, 0.262 hours/ns, 10592.824 timesteps/s
99.7% CPU use with 4 MPI tasks x 1 OpenMP threads

MPI task timing breakdown:
Section |  min time  |  avg time  |  max time  |%varavg| %total
---------------------------------------------------------------
Pair    | 0.054383   | 3.6179     | 13.734     | 307.1 | 19.16
Neigh   | 0.0014662  | 0.0076277  | 0.024672   |  11.3 |  0.04
Comm    | 1.9995     | 11.983     | 15.462     | 166.6 | 63.47
Output  | 0.027123   | 0.027216   | 0.027494   |   0.1 |  0.14
Modify  | 1.4061     | 1.7896     | 2.4696     |  30.2 |  9.48
Other   |            | 1.455      |            |       |  7.71

Nlocal:            250 ave         809 max          35 min
Histogram: 3 0 0 0 0 0 0 0 0 1
Nghost:         142.25 ave         214 max          61 min
Histogram: 1 0 0 0 0 2 0 0 0 1
Neighs:          917.5 ave        3538 max           1 min
Histogram: 3 0 0 0 0 0 0 0 0 1

Total # of neighbors = 3670
Ave neighs/atom = 3.67
Neighbor list builds = 63
Dangerous builds = 0

unfix 4

fix 5 all npt temp ${T} ${T} $(100.0*dt) iso 1.0 1.0 $(1000.0*dt)
fix 5 all npt temp 300 ${T} $(100.0*dt) iso 1.0 1.0 $(1000.0*dt)
fix 5 all npt temp 300 300 $(100.0*dt) iso 1.0 1.0 $(1000.0*dt)
fix 5 all npt temp 300 300 10 iso 1.0 1.0 $(1000.0*dt)
fix 5 all npt temp 300 300 10 iso 1.0 1.0 100

run 300000
Generated 0 of 1 mixed pair_coeff terms from geometric mixing rule
Per MPI rank memory allocation (min/avg/max) = 4.475 | 4.478 | 4.482 Mbytes
   Step          Temp          Press          PotEng        Density         KinEng         TotEng           Lx             Ly             Lz            Xlo            Xhi            Ylo            Yhi            Zlo            Zhi           Volume           Dt            Time           CPU           T/CPU          S/CPU         CPULeft    
  22360000   520.57254     -28.685787     -32511892       0.052074229    1550.1761     -32510342       2378.6491      2378.6491      2378.6491      810.67545      3189.3246      810.67545      3189.3246      810.67545      3189.3246      1.3458329e+10  0.1            2690000        0              0              0              0            
  22370000   319.88054      0.99894611    -33063642       0.0543027      952.54963     -33062689       2345.6553      2345.6553      2345.6553      827.17236      3172.8276      827.17236      3172.8276      827.17236      3172.8276      1.2906027e+10  0.1            2691000        1.2133296      824.17796      8241.7728      35.186629    
  22380000   319.25282      0.9986746     -33083269       0.054365447    950.68039     -33082319       2344.7525      2344.7525      2344.7525      827.62374      3172.3763      827.62374      3172.3763      827.62374      3172.3763      1.2891131e+10  0.1            2692000        2.5036883      774.97825      7749.7829      35.05167     
  22390000   318.63787      1.0011945     -33102483       0.054426597    948.84916     -33101534       2343.874       2343.874       2343.874       828.06298      3171.937       828.06298      3171.937       828.06298      3171.937       1.2876648e+10  0.1            2693000        3.7374846      810.50655      8105.0657      33.637383    
  22400000   318.03871      0.95994127    -33121298       0.05448266     947.06498     -33120351       2343.0698      2343.0698      2343.0698      828.46509      3171.5349      828.46509      3171.5349      828.46509      3171.5349      1.2863397e+10  0.1            2694000        4.9559475      820.70612      8207.061       32.213676    
  22410000   317.54473      1.0705467     -33147083       0.054549997    945.59398     -33146138       2342.1053      2342.1053      2342.1053      828.94734      3171.0527      828.94734      3171.0527      828.94734      3171.0527      1.2847519e+10  0.1            2695000        6.099908       874.15624      8741.5635      30.49955     
  22420000   317.00335      1.0065158     -33157811       0.0546028      943.98185     -33156867       2341.3501      2341.3501      2341.3501      829.32495      3170.6751      829.32495      3170.6751      829.32495      3170.6751      1.2835095e+10  0.1            2696000        7.1978083      910.82951      9108.2951      28.791241    
  22430000   316.54519      0.87307803    -33175602       0.054654023    942.61753     -33174659       2340.6184      2340.6184      2340.6184      829.69079      3170.3092      829.69079      3170.3092      829.69079      3170.3092      1.2823065e+10  0.1            2697000        8.3450686      871.64174      8716.4172      27.419518    
  22440000   316.09012      0.97009936    -33193062       0.054713605    941.26241     -33192121       2339.7685      2339.7685      2339.7685      830.11576      3169.8842      830.11576      3169.8842      830.11576      3169.8842      1.2809101e+10  0.1            2698000        9.4861952      876.327        8763.2693      26.087043    
  22450000   315.69561      1.0007011     -33217615       0.054772231    940.08762     -33216675       2338.9334      2338.9334      2338.9334      830.53331      3169.4667      830.53331      3169.4667      830.53331      3169.4667      1.2795391e+10  0.1            2699000        10.71338       814.87289      8148.7288      24.997893    
  22460000   315.32318      0.99548596    -33234530       0.054826958    938.97858     -33233591       2338.1549      2338.1549      2338.1549      830.92254      3169.0775      830.92254      3169.0775      830.92254      3169.0775      1.2782619e+10  0.1            2700000        11.883768      854.41797      8544.1815      23.767539    
  22470000   314.97027      1.0547524     -33258579       0.054885335    937.92767     -33257641       2337.3257      2337.3257      2337.3257      831.33717      3168.6628      831.33717      3168.6628      831.33717      3168.6628      1.2769023e+10  0.1            2701000        12.939873      946.87566      9468.7557      22.350693    
  22480000   314.59854      0.97424309    -33275049       0.054933281    936.82074     -33274113       2336.6454      2336.6454      2336.6454      831.67728      3168.3227      831.67728      3168.3227      831.67728      3168.3227      1.2757878e+10  0.1            2702000        14.128294      841.4523       8414.5228      21.192444    
  22490000   314.27432      1.0052165     -33291273       0.054986679    935.85525     -33290337       2335.8888      2335.8888      2335.8888      832.05559      3167.9444      832.05559      3167.9444      832.05559      3167.9444      1.2745489e+10  0.1            2703000        15.336576      827.62116      8276.2114      20.055526    
  22500000   313.98411      1.0415247     -33307295       0.055040099    934.99107     -33306360       2335.1329      2335.1329      2335.1329      832.43357      3167.5664      832.43357      3167.5664      832.43357      3167.5664      1.2733119e+10  0.1            2704000        16.427026      917.05268      9170.5267      18.773747    
  22510000   313.70698      0.97358139    -33352649       0.055089274    934.16581     -33351715       2334.4378      2334.4378      2334.4378      832.78108      3167.2189      832.78108      3167.2189      832.78108      3167.2189      1.2721752e+10  0.1            2705000        17.619938      838.28447      8382.8455      17.619941    
  22520000   313.44023      0.98172113    -33375688       0.055141323    933.37149     -33374755       2333.7031      2333.7031      2333.7031      833.14845      3166.8516      833.14845      3166.8516      833.14845      3166.8516      1.2709744e+10  0.1            2706000        18.769732      869.72131      8697.2124      16.423518    
  22530000   313.20684      1.0807755     -33398550       0.055197543    932.67648     -33397617       2332.9105      2332.9105      2332.9105      833.54474      3166.4553      833.54474      3166.4553      833.54474      3166.4553      1.2696799e+10  0.1            2707000        19.962448      838.42273      8384.228       15.265403    
  22540000   312.91578      1.0373483     -33413901       0.055241809    931.80974     -33412969       2332.2872      2332.2872      2332.2872      833.85639      3166.1436      833.85639      3166.1436      833.85639      3166.1436      1.2686625e+10  0.1            2708000        21.067843      904.6536       9046.5355      14.04523     
  22550000   312.70886      1.0652879     -33436437       0.055291228    931.19357     -33435506       2331.5922      2331.5922      2331.5922      834.20392      3165.7961      834.20392      3165.7961      834.20392      3165.7961      1.2675286e+10  0.1            2709000        22.285925      820.96264      8209.6264      12.902379    
  22560000   312.49251      1.0556591     -33473601       0.055339849    930.54933     -33472671       2330.9091      2330.9091      2330.9091      834.54544      3165.4546      834.54544      3165.4546      834.54544      3165.4546      1.2664149e+10  0.1            2710000        23.482483      835.73082      8357.3073      11.741243    
  22570000   312.24617      0.91417781    -33488530       0.055378917    929.81578     -33487601       2330.3609      2330.3609      2330.3609      834.81956      3165.1804      834.81956      3165.1804      834.81956      3165.1804      1.2655215e+10  0.1            2711000        24.735647      797.98006      7979.8012      10.600993    
  22580000   312.04216      0.95691344    -33532801       0.055428488    929.20826     -33531871       2329.666       2329.666       2329.666       835.16702      3164.833       835.16702      3164.833       835.16702      3164.833       1.2643897e+10  0.1            2712000        25.820182      922.05408      9220.5414      9.3891581    
  22590000   311.8508       0.88867649    -33554825       0.055471574    928.63844     -33553897       2329.0626      2329.0626      2329.0626      835.46868      3164.5313      835.46868      3164.5313      835.46868      3164.5313      1.2634077e+10  0.1            2713000        26.89372       931.49946      9314.9929      8.1850461    
  22600000   311.66003      0.96032105    -33561959       0.055519592    928.07035     -33561031       2328.391       2328.391       2328.391       835.80451      3164.1955      835.80451      3164.1955      835.80451      3164.1955      1.262315e+10   0.1            2714000        28.225247      751.01775      7510.1782      7.0563123    
  22610000   311.47386      0.91170203    -33568994       0.055561057    927.51595     -33568066       2327.8116      2327.8116      2327.8116      836.09419      3163.9058      836.09419      3163.9058      836.09419      3163.9058      1.2613729e+10  0.1            2715000        29.312558      919.70031      9197.0034      5.8625119    
  22620000   311.32079      1.0126513     -33605397       0.055610183    927.06014     -33604470       2327.126       2327.126       2327.126       836.43702      3163.563       836.43702      3163.563       836.43702      3163.563       1.2602586e+10  0.1            2716000        30.389889      928.21922      9282.1913      4.6753679    
  22630000   311.16699      1.0576492     -33626950       0.05565652     926.60216     -33626023       2326.48        2326.48        2326.48        836.76002      3163.24        836.76002      3163.24        836.76002      3163.24        1.2592094e+10  0.1            2717000        31.585147      836.63976      8366.3968      3.5094611    
  22640000   310.95954      0.95905643    -33633669       0.055691934    925.98442     -33632743       2325.9867      2325.9867      2325.9867      837.00664      3162.9934      837.00664      3162.9934      837.00664      3162.9934      1.2584086e+10  0.1            2718000        32.745581      861.74642      8617.4649      2.3389702    
  22650000   310.82625      1.1091378     -33654985       0.055741255    925.58751     -33654060       2325.3005      2325.3005      2325.3005      837.34975      3162.6502      837.34975      3162.6502      837.34975      3162.6502      1.2572952e+10  0.1            2719000        33.930499      843.93985      8439.398       1.1700173    
  22660000   310.65134      1.0876546     -33668849       0.055780665    925.06665     -33667924       2324.7527      2324.7527      2324.7527      837.62363      3162.3764      837.62363      3162.3764      837.62363      3162.3764      1.2564069e+10  0.1            2720000        35.084148      866.81539      8668.1553      0            
Loop time of 35.0842 on 4 procs for 300000 steps with 1000 atoms

Performance: 73.879 ns/day, 0.325 hours/ns, 8550.857 timesteps/s
99.6% CPU use with 4 MPI tasks x 1 OpenMP threads

MPI task timing breakdown:
Section |  min time  |  avg time  |  max time  |%varavg| %total
---------------------------------------------------------------
Pair    | 0.19086    | 5.9448     | 22.133     | 383.5 | 16.94
Neigh   | 0.0016625  | 0.0096363  | 0.031916   |  13.1 |  0.03
Comm    | 3.052      | 19.026     | 24.551     | 211.5 | 54.23
Output  | 0.069073   | 0.069237   | 0.069706   |   0.1 |  0.20
Modify  | 5.2444     | 6.3012     | 8.8382     |  58.6 | 17.96
Other   |            | 3.733      |            |       | 10.64

Nlocal:            250 ave         809 max          35 min
Histogram: 3 0 0 0 0 0 0 0 0 1
Nghost:          144.5 ave         216 max          63 min
Histogram: 1 0 0 0 0 2 0 0 0 1
Neighs:         950.25 ave        3663 max           1 min
Histogram: 3 0 0 0 0 0 0 0 0 1

Total # of neighbors = 3801
Ave neighs/atom = 3.801
Neighbor list builds = 78
Dangerous builds = 30

# run_style
run_style verlet

# write restart
write_restart ${write_res}
write_restart ./pgnpmf/0100/equpmf19.res
System init for write_restart ...
Generated 0 of 1 mixed pair_coeff terms from geometric mixing rule

Total wall time: 0:02:04
