LAMMPS (23 Jun 2022 - Update 1)
OMP_NUM_THREADS environment is not set. Defaulting to 1 thread. (src/comm.cpp:98)
  using 1 OpenMP thread(s) per MPI task
# Read restart
read_restart ${read_res}
read_restart ./pgnpmf/0100/equpmf83.res
Reading restart file ...
  restart file = 23 Jun 2022, LAMMPS = 23 Jun 2022
  restoring atom style atomic from restart
  orthogonal box = (1618.8912 1618.8912 1618.8912) to (2381.1088 2381.1088 2381.1088)
  1 by 2 by 2 MPI processor grid
  restoring pair style table from restart
  1000 atoms
  read_restart CPU = 0.003 seconds

# Settings

pair_style table spline 9941

pair_coeff 1 1 ./pgnpmf/N20.txt DE_GNP 75.6
pair_coeff 2 2 ./pgnpmf/N100.txt DE_GNP 115.92
WARNING: 3 of 9941 force values in table DE_GNP are inconsistent with -dE/dr.
WARNING:  Should only be flagged at inflection points (src/pair_table.cpp:463)
pair_coeff 1 2 ./pgnpmf/mixed_potential.txt DE_GNP 95.66
WARNING: 1562 of 9941 force values in table DE_GNP are inconsistent with -dE/dr.
WARNING:  Should only be flagged at inflection points (src/pair_table.cpp:463)

#Neigh_list Calc Frequency

neigh_modify delay 0 every 1 check yes

# Saving Frequency (50 frames)

variable ts_save equal ${steps_equ}
variable ts_save equal 50000

variable nts equal ${steps_equ}/${ts}
variable nts equal 50000/${ts}
variable nts equal 50000/0.1
variable medium equal ${nts}*3
variable medium equal 500000*3
variable long equal ${nts}*5
variable long equal 500000*5

# Dump
#dump 1 all custom ${ts_save} ./pgnpmf/${folder}/equilibration/trajectory/trajectory_${usic}_${trial}.equ.custom type x y z ix iy iz
#dump_modify 1 first no sort id
dump 2 all cfg 50000 ./pgnpmf/${folder}/equilibration/trajectory/dumpequ.tens_*.cfg mass type xs ys zs fx fy fz
dump 2 all cfg 50000 ./pgnpmf/0100/equilibration/trajectory/dumpequ.tens_*.cfg mass type xs ys zs fx fy fz
dump_modify 2 element N20 N100

# thermo_style
thermo_style custom step temp press pe density ke etotal lx ly lz xlo xhi ylo yhi zlo zhi vol dt time cpu tpcpu spcpu cpuremain

# run info
timestep ${ts}
timestep 0.1
thermo 5000

# fix

fix 1 all momentum 1000 linear 1 1 1 angular
variable T equal ${temp}
variable T equal 300
fix 2 all nvt temp ${T} 370000 100.0
fix 2 all nvt temp 300 370000 100.0

run ${nts}
run 500000
Generated 0 of 1 mixed pair_coeff terms from geometric mixing rule
Unused restart file global fix info:
  fix style: npt, fix ID: 5
Neighbor list info ...
  update every 1 steps, delay 0 steps, check yes
  max neighbors/atom: 2000, page size: 100000
  master list distance cutoff = 117.92
  ghost atom cutoff = 117.92
  binsize = 58.96, bins = 13 13 13
  1 neighbor lists, perpetual/occasional/extra = 1 0 0
  (1) pair table, perpetual
      attributes: half, newton on
      pair build: half/bin/atomonly/newton
      stencil: half/bin/3d
      bin: standard
Per MPI rank memory allocation (min/avg/max) = 3.073 | 3.075 | 3.077 Mbytes
   Step          Temp          Press          PotEng        Density         KinEng         TotEng           Lx             Ly             Lz            Xlo            Xhi            Ylo            Yhi            Zlo            Zhi           Volume           Dt            Time           CPU           T/CPU          S/CPU         CPULeft    
 145060000   307.80105      0.74242474    -61849231       1.5826211      916.57897     -61848314       762.21767      762.21767      762.21767      1618.8912      2381.1088      1618.8912      2381.1088      1618.8912      2381.1088      4.4283e+08     0.1            14960000       0              0              0              0            
 145065000   1775.7172      1.6265167     -61834468       1.5826211      5287.7826     -61829180       762.21767      762.21767      762.21767      1618.8912      2381.1088      1618.8912      2381.1088      1618.8912      2381.1088      4.4283e+08     0.1            14960500       0.28405715     1760.2052      17602.003      28.121889    
 145070000   8024.995       4.5578186     -61834025       1.5826211      23897.065     -61810128       762.21767      762.21767      762.21767      1618.8912      2381.1088      1618.8912      2381.1088      1618.8912      2381.1088      4.4283e+08     0.1            14961000       0.56772588     1762.6203      17626.203      27.818672    
 145075000   11528.185      9.3184924     -61839769       1.5826211      34328.967     -61805440       762.21767      762.21767      762.21767      1618.8912      2381.1088      1618.8912      2381.1088      1618.8912      2381.1088      4.4283e+08     0.1            14961500       0.84795467     1784.2561      17842.552      27.417276    
 145080000   15041.226      14.844915     -61851419       1.5826211      44790.203     -61806629       762.21767      762.21767      762.21767      1618.8912      2381.1088      1618.8912      2381.1088      1618.8912      2381.1088      4.4283e+08     0.1            14962000       1.1297383      1774.4118      17744.124      27.11377     
 145085000   18624.71       24.577711     -61839418       1.5826211      55461.206     -61783957       762.21767      762.21767      762.21767      1618.8912      2381.1088      1618.8912      2381.1088      1618.8912      2381.1088      4.4283e+08     0.1            14962500       1.4090921      1789.8445      17898.449      26.77279     
 145090000   22320.486      34.319091     -61826096       1.5826211      66466.595     -61759630       762.21767      762.21767      762.21767      1618.8912      2381.1088      1618.8912      2381.1088      1618.8912      2381.1088      4.4283e+08     0.1            14963000       1.6890043      1786.2746      17862.743      26.461101    
 145095000   26097.019      45.620259     -61833909       1.5826211      77712.466     -61756197       762.21767      762.21767      762.21767      1618.8912      2381.1088      1618.8912      2381.1088      1618.8912      2381.1088      4.4283e+08     0.1            14963500       1.9693387      1783.5849      17835.852      26.164098    
 145100000   29903.195      58.156751     -61826195       1.5826211      89046.607     -61737148       762.21767      762.21767      762.21767      1618.8912      2381.1088      1618.8912      2381.1088      1618.8912      2381.1088      4.4283e+08     0.1            14964000       2.250946       1775.5211      17755.209      25.885903    
 145105000   33673.884      73.716189     -61773582       1.5826211      100275.08     -61673307       762.21767      762.21767      762.21767      1618.8912      2381.1088      1618.8912      2381.1088      1618.8912      2381.1088      4.4283e+08     0.1            14964500       2.5311376      1784.4934      17844.931      25.592636    
 145110000   37380.164      87.519083     -61764611       1.5826211      111311.75     -61653299       762.21767      762.21767      762.21767      1618.8912      2381.1088      1618.8912      2381.1088      1618.8912      2381.1088      4.4283e+08     0.1            14965000       2.8095955      1795.6039      17956.046      25.286378    
 145115000   41030.269      101.89659     -61755061       1.5826211      122181.14     -61632880       762.21767      762.21767      762.21767      1618.8912      2381.1088      1618.8912      2381.1088      1618.8912      2381.1088      4.4283e+08     0.1            14965500       3.0887377      1791.202       17912.013      24.990713    
 145120000   44667.276      115.0412      -61774596       1.5826211      133011.52     -61641585       762.21767      762.21767      762.21767      1618.8912      2381.1088      1618.8912      2381.1088      1618.8912      2381.1088      4.4283e+08     0.1            14966000       3.367227       1795.4004      17954.014      24.693013    
 145125000   48348.7        132.19679     -61712734       1.5826211      143974.17     -61568760       762.21767      762.21767      762.21767      1618.8912      2381.1088      1618.8912      2381.1088      1618.8912      2381.1088      4.4283e+08     0.1            14966500       3.6460696      1793.1268      17931.265      24.400633    
 145130000   52172.294      146.06319     -61717334       1.5826211      155360.18     -61561974       762.21767      762.21767      762.21767      1618.8912      2381.1088      1618.8912      2381.1088      1618.8912      2381.1088      4.4283e+08     0.1            14967000       3.9239674      1799.2227      17992.227      24.104383    
 145135000   57209.726      163.21131     -61648220       1.5826211      170360.79     -61477859       762.21767      762.21767      762.21767      1618.8912      2381.1088      1618.8912      2381.1088      1618.8912      2381.1088      4.4283e+08     0.1            14967500       4.2028022      1793.1761      17931.761      23.815891    
 145140000   59698.454      176.40228     -61675238       1.5826211      177771.8      -61497467       762.21767      762.21767      762.21767      1618.8912      2381.1088      1618.8912      2381.1088      1618.8912      2381.1088      4.4283e+08     0.1            14968000       4.4821214      1790.0668      17900.67       23.531148    
 145145000   60127.985      192.9103      -61635399       1.5826211      179050.87     -61456348       762.21767      762.21767      762.21767      1618.8912      2381.1088      1618.8912      2381.1088      1618.8912      2381.1088      4.4283e+08     0.1            14968500       4.7624291      1783.7542      17837.532      23.25187     
 145150000   67457.953      212.97573     -61610150       1.5826211      200878.26     -61409272       762.21767      762.21767      762.21767      1618.8912      2381.1088      1618.8912      2381.1088      1618.8912      2381.1088      4.4283e+08     0.1            14969000       5.0454793      1766.4705      17664.71       22.984971    
 145155000   66263.984      230.70522     -61592046       1.5826211      197322.83     -61394723       762.21767      762.21767      762.21767      1618.8912      2381.1088      1618.8912      2381.1088      1618.8912      2381.1088      4.4283e+08     0.1            14969500       5.3246453      1791.0493      17910.491      22.699813    
 145160000   75842.366      251.73883     -61588982       1.5826211      225845.62     -61363136       762.21767      762.21767      762.21767      1618.8912      2381.1088      1618.8912      2381.1088      1618.8912      2381.1088      4.4283e+08     0.1            14970000       5.6040696      1789.3934      17893.936      22.416287    
 145165000   78699.329      271.26515     -61563815       1.5826211      234353.16     -61329462       762.21767      762.21767      762.21767      1618.8912      2381.1088      1618.8912      2381.1088      1618.8912      2381.1088      4.4283e+08     0.1            14970500       5.8835767      1788.8626      17888.63       22.133463    
 145170000   78706.507      291.89903     -61516098       1.5826211      234374.54     -61281724       762.21767      762.21767      762.21767      1618.8912      2381.1088      1618.8912      2381.1088      1618.8912      2381.1088      4.4283e+08     0.1            14971000       6.1631395      1788.5076      17885.077      21.851138    
 145175000   84441.664      315.94702     -61497532       1.5826211      251452.86     -61246080       762.21767      762.21767      762.21767      1618.8912      2381.1088      1618.8912      2381.1088      1618.8912      2381.1088      4.4283e+08     0.1            14971500       6.441875       1793.8156      17938.157      21.566284    
 145180000   91822.38       339.43835     -61471043       1.5826211      273431.37     -61197612       762.21767      762.21767      762.21767      1618.8912      2381.1088      1618.8912      2381.1088      1618.8912      2381.1088      4.4283e+08     0.1            14972000       6.7191718      1803.1223      18031.22       21.277384    
 145185000   91634.771      361.42414     -61429584       1.5826211      272872.7      -61156711       762.21767      762.21767      762.21767      1618.8912      2381.1088      1618.8912      2381.1088      1618.8912      2381.1088      4.4283e+08     0.1            14972500       6.9967224      1801.4732      18014.733      20.990173    
 145190000   94460.983      379.07692     -61454412       1.5826211      281288.68     -61173124       762.21767      762.21767      762.21767      1618.8912      2381.1088      1618.8912      2381.1088      1618.8912      2381.1088      4.4283e+08     0.1            14973000       7.2743161      1801.1937      18011.939      20.703828    
 145195000   101665.55      400.65701     -61464584       1.5826211      302742.64     -61161842       762.21767      762.21767      762.21767      1618.8912      2381.1088      1618.8912      2381.1088      1618.8912      2381.1088      4.4283e+08     0.1            14973500       7.5522317      1799.1076      17991.077      20.419002    
 145200000   103475.28      419.367       -61459992       1.5826211      308131.73     -61151860       762.21767      762.21767      762.21767      1618.8912      2381.1088      1618.8912      2381.1088      1618.8912      2381.1088      4.4283e+08     0.1            14974000       7.8315188      1790.2717      17902.71       20.138197    
 145205000   105459.95      436.71499     -61441081       1.5826211      314041.72     -61127039       762.21767      762.21767      762.21767      1618.8912      2381.1088      1618.8912      2381.1088      1618.8912      2381.1088      4.4283e+08     0.1            14974500       8.1091813      1800.747       18007.472      19.853518    
 145210000   110031.61      456.88272     -61436937       1.5826211      327655.34     -61109282       762.21767      762.21767      762.21767      1618.8912      2381.1088      1618.8912      2381.1088      1618.8912      2381.1088      4.4283e+08     0.1            14975000       8.3872405      1798.1783      17981.782      19.570233    
 145215000   117288.92      474.52111     -61483615       1.5826211      349266.38     -61134349       762.21767      762.21767      762.21767      1618.8912      2381.1088      1618.8912      2381.1088      1618.8912      2381.1088      4.4283e+08     0.1            14975500       8.6657834      1795.056       17950.559      19.288361    
 145220000   117836.68      496.68579     -61381277       1.5826211      350897.51     -61030379       762.21767      762.21767      762.21767      1618.8912      2381.1088      1618.8912      2381.1088      1618.8912      2381.1088      4.4283e+08     0.1            14976000       8.9432848      1801.7929      18017.933      19.004484    
 145225000   121447.93      519.39897     -61351313       1.5826211      361651.2      -60989662       762.21767      762.21767      762.21767      1618.8912      2381.1088      1618.8912      2381.1088      1618.8912      2381.1088      4.4283e+08     0.1            14976500       9.220311       1804.8828      18048.828      18.72003     
 145230000   122812.73      541.58866     -61349761       1.5826211      365715.35     -60984046       762.21767      762.21767      762.21767      1618.8912      2381.1088      1618.8912      2381.1088      1618.8912      2381.1088      4.4283e+08     0.1            14977000       9.49903        1793.9213      17939.21       18.439298    
 145235000   125192.03      568.47612     -61319090       1.5826211      372800.47     -60946289       762.21767      762.21767      762.21767      1618.8912      2381.1088      1618.8912      2381.1088      1618.8912      2381.1088      4.4283e+08     0.1            14977500       9.7771808      1797.5867      17975.871      18.157625    
 145240000   135765.35      593.48118     -61311841       1.5826211      404286.04     -60907555       762.21767      762.21767      762.21767      1618.8912      2381.1088      1618.8912      2381.1088      1618.8912      2381.1088      4.4283e+08     0.1            14978000       10.055773      1794.7372      17947.371      17.876934    
 145245000   140016.59      617.2923      -61290719       1.5826211      416945.48     -60873773       762.21767      762.21767      762.21767      1618.8912      2381.1088      1618.8912      2381.1088      1618.8912      2381.1088      4.4283e+08     0.1            14978500       10.333138      1802.6768      18026.768      17.594266    
 145250000   138389.04      635.60435     -61277423       1.5826211      412098.94     -60865324       762.21767      762.21767      762.21767      1618.8912      2381.1088      1618.8912      2381.1088      1618.8912      2381.1088      4.4283e+08     0.1            14979000       10.614153      1779.2661      17792.659      17.317832    
 145255000   142199.24      659.18711     -61278579       1.5826211      423445.06     -60855134       762.21767      762.21767      762.21767      1618.8912      2381.1088      1618.8912      2381.1088      1618.8912      2381.1088      4.4283e+08     0.1            14979500       10.892274      1797.7766      17977.763      17.036638    
 145260000   141769.04      683.22097     -61235115       1.5826211      422163.98     -60812952       762.21767      762.21767      762.21767      1618.8912      2381.1088      1618.8912      2381.1088      1618.8912      2381.1088      4.4283e+08     0.1            14980000       11.170435      1797.5201      17975.207      16.755656    
 145265000   154550.7       709.59584     -61228066       1.5826211      460225.61     -60767841       762.21767      762.21767      762.21767      1618.8912      2381.1088      1618.8912      2381.1088      1618.8912      2381.1088      4.4283e+08     0.1            14980500       11.447788      1802.7592      18027.589      16.473649    
 145270000   157471.44      737.19197     -61300127       1.5826211      468923.06     -60831204       762.21767      762.21767      762.21767      1618.8912      2381.1088      1618.8912      2381.1088      1618.8912      2381.1088      4.4283e+08     0.1            14981000       11.724243      1808.609       18086.091      16.190625    
 145275000   154310.3       764.39264     -61339667       1.5826211      459509.72     -60880157       762.21767      762.21767      762.21767      1618.8912      2381.1088      1618.8912      2381.1088      1618.8912      2381.1088      4.4283e+08     0.1            14981500       12.002557      1796.5375      17965.376      15.910369    
 145280000   164310.47      801.24979     -61340522       1.5826211      489288.52     -60851233       762.21767      762.21767      762.21767      1618.8912      2381.1088      1618.8912      2381.1088      1618.8912      2381.1088      4.4283e+08     0.1            14982000       12.281301      1793.7575      17937.571      15.63075     
 145285000   160261.81      836.67932     -61310129       1.5826211      477232.29     -60832897       762.21767      762.21767      762.21767      1618.8912      2381.1088      1618.8912      2381.1088      1618.8912      2381.1088      4.4283e+08     0.1            14982500       12.560501      1790.8305      17908.309      15.351726    
 145290000   168816.7       871.17924     -61310244       1.5826211      502707.31     -60807537       762.21767      762.21767      762.21767      1618.8912      2381.1088      1618.8912      2381.1088      1618.8912      2381.1088      4.4283e+08     0.1            14983000       12.839245      1793.7637      17937.638      15.072159    
 145295000   171334.31      905.51138     -61282293       1.5826211      510204.33     -60772088       762.21767      762.21767      762.21767      1618.8912      2381.1088      1618.8912      2381.1088      1618.8912      2381.1088      4.4283e+08     0.1            14983500       13.119195      1786.0311      17860.31       14.793988    
 145300000   177258.81      936.71783     -61256516       1.5826211      527846.47     -60728669       762.21767      762.21767      762.21767      1618.8912      2381.1088      1618.8912      2381.1088      1618.8912      2381.1088      4.4283e+08     0.1            14984000       13.400936      1774.6795      17746.796      14.517683    
 145305000   173674.47      958.56346     -61247010       1.5826211      517172.91     -60729837       762.21767      762.21767      762.21767      1618.8912      2381.1088      1618.8912      2381.1088      1618.8912      2381.1088      4.4283e+08     0.1            14984500       13.680825      1786.424       17864.235      14.239228    
 145310000   190985.01      984.49421     -61284294       1.5826211      568720.76     -60715574       762.21767      762.21767      762.21767      1618.8912      2381.1088      1618.8912      2381.1088      1618.8912      2381.1088      4.4283e+08     0.1            14985000       13.960573      1787.3228      17873.23       13.960575    
 145315000   188585.01      1000.1351     -61287268       1.5826211      561573.95     -60725694       762.21767      762.21767      762.21767      1618.8912      2381.1088      1618.8912      2381.1088      1618.8912      2381.1088      4.4283e+08     0.1            14985500       14.23997       1789.5633      17895.636      13.681543    
 145320000   186495.32      1016.4926     -61268792       1.5826211      555351.21     -60713441       762.21767      762.21767      762.21767      1618.8912      2381.1088      1618.8912      2381.1088      1618.8912      2381.1088      4.4283e+08     0.1            14986000       14.519847      1786.5047      17865.049      13.402938    
 145325000   195308.26      1037.8453     -61226373       1.5826211      581594.66     -60644778       762.21767      762.21767      762.21767      1618.8912      2381.1088      1618.8912      2381.1088      1618.8912      2381.1088      4.4283e+08     0.1            14986500       14.799377      1788.7151      17887.15       13.123978    
 145330000   197790.38      1060.8116     -61217056       1.5826211      588985.99     -60628070       762.21767      762.21767      762.21767      1618.8912      2381.1088      1618.8912      2381.1088      1618.8912      2381.1088      4.4283e+08     0.1            14987000       15.078895      1788.7906      17887.904      12.844987    
 145335000   205090.67      1081.712      -61249127       1.5826211      610725        -60638402       762.21767      762.21767      762.21767      1618.8912      2381.1088      1618.8912      2381.1088      1618.8912      2381.1088      4.4283e+08     0.1            14987500       15.358914      1785.5917      17855.911      12.566387    
 145340000   212769.53      1108.4062     -61258829       1.5826211      633591.33     -60625237       762.21767      762.21767      762.21767      1618.8912      2381.1088      1618.8912      2381.1088      1618.8912      2381.1088      4.4283e+08     0.1            14988000       15.638563      1787.9611      17879.619      12.287444    
 145345000   210531.06      1133.0002     -61279295       1.5826211      626925.54     -60652370       762.21767      762.21767      762.21767      1618.8912      2381.1088      1618.8912      2381.1088      1618.8912      2381.1088      4.4283e+08     0.1            14988500       15.918308      1787.3374      17873.368      12.00855     
 145350000   207361.47      1154.4353     -61281964       1.5826211      617487.04     -60664477       762.21767      762.21767      762.21767      1618.8912      2381.1088      1618.8912      2381.1088      1618.8912      2381.1088      4.4283e+08     0.1            14989000       16.200306      1773.0648      17730.651      11.731258    
 145355000   210950.52      1178.948      -61228055       1.5826211      628174.64     -60599881       762.21767      762.21767      762.21767      1618.8912      2381.1088      1618.8912      2381.1088      1618.8912      2381.1088      4.4283e+08     0.1            14989500       16.480419      1784.9962      17849.962      11.452496    
 145360000   215591.01      1201.3171     -61239541       1.5826211      641993.22     -60597547       762.21767      762.21767      762.21767      1618.8912      2381.1088      1618.8912      2381.1088      1618.8912      2381.1088      4.4283e+08     0.1            14990000       16.76112       1781.2525      17812.524      11.174082    
 145365000   228746.38      1230.4069     -61167434       1.5826211      681167.65     -60486267       762.21767      762.21767      762.21767      1618.8912      2381.1088      1618.8912      2381.1088      1618.8912      2381.1088      4.4283e+08     0.1            14990500       17.043449      1770.9833      17709.821      10.896633    
 145370000   239652.5       1254.4401     -61175047       1.5826211      713644.23     -60461403       762.21767      762.21767      762.21767      1618.8912      2381.1088      1618.8912      2381.1088      1618.8912      2381.1088      4.4283e+08     0.1            14991000       17.324489      1779.1077      17791.092      10.618236    
 145375000   235373.95      1268.865      -61162118       1.5826211      700903.43     -60461214       762.21767      762.21767      762.21767      1618.8912      2381.1088      1618.8912      2381.1088      1618.8912      2381.1088      4.4283e+08     0.1            14991500       17.605509      1779.2311      17792.303      10.339745    
 145380000   238729.23      1279.2901     -61190466       1.5826211      710894.87     -60479571       762.21767      762.21767      762.21767      1618.8912      2381.1088      1618.8912      2381.1088      1618.8912      2381.1088      4.4283e+08     0.1            14992000       17.886683      1778.255       17782.556      10.061261    
 145385000   234076.35      1283.1062     -61228812       1.5826211      697039.41     -60531773       762.21767      762.21767      762.21767      1618.8912      2381.1088      1618.8912      2381.1088      1618.8912      2381.1088      4.4283e+08     0.1            14992500       18.167862      1778.2288      17782.259      9.7826966    
 145390000   242586.55      1291.306      -61244374       1.5826211      722381.32     -60521993       762.21767      762.21767      762.21767      1618.8912      2381.1088      1618.8912      2381.1088      1618.8912      2381.1088      4.4283e+08     0.1            14993000       18.448424      1782.1352      17821.383      9.5037351    
 145395000   243226.63      1299.2983     -61280128       1.5826211      724287.37     -60555841       762.21767      762.21767      762.21767      1618.8912      2381.1088      1618.8912      2381.1088      1618.8912      2381.1088      4.4283e+08     0.1            14993500       18.729886      1776.4418      17764.412      9.2251689    
 145400000   267347.78      1320.0465     -61270420       1.5826211      796116.03     -60474304       762.21767      762.21767      762.21767      1618.8912      2381.1088      1618.8912      2381.1088      1618.8912      2381.1088      4.4283e+08     0.1            14994000       19.013477      1763.1023      17631.03       8.9475198    
 145405000   263772.82      1332.8351     -61317288       1.5826211      785470.41     -60531817       762.21767      762.21767      762.21767      1618.8912      2381.1088      1618.8912      2381.1088      1618.8912      2381.1088      4.4283e+08     0.1            14994500       19.295714      1771.5622      17715.611      8.66909      
 145410000   260538.78      1351.705      -61252328       1.5826211      775839.99     -60476488       762.21767      762.21767      762.21767      1618.8912      2381.1088      1618.8912      2381.1088      1618.8912      2381.1088      4.4283e+08     0.1            14995000       19.577715      1773.0425      17730.428      8.3904504    
 145415000   258253.82      1367.972      -61281774       1.5826211      769035.78     -60512738       762.21767      762.21767      762.21767      1618.8912      2381.1088      1618.8912      2381.1088      1618.8912      2381.1088      4.4283e+08     0.1            14995500       19.85928       1775.7894      17757.898      8.1115378    
 145420000   260361.58      1390.9931     -61243027       1.5826211      775312.32     -60467715       762.21767      762.21767      762.21767      1618.8912      2381.1088      1618.8912      2381.1088      1618.8912      2381.1088      4.4283e+08     0.1            14996000       20.140352      1778.904       17789.039      7.83236      
 145425000   269420.38      1418.8152     -61197603       1.5826211      802287.9      -60395315       762.21767      762.21767      762.21767      1618.8912      2381.1088      1618.8912      2381.1088      1618.8912      2381.1088      4.4283e+08     0.1            14996500       20.420979      1781.7253      17817.25       7.5529656    
 145430000   274107.92      1438.2912     -61110633       1.5826211      816246.57     -60294386       762.21767      762.21767      762.21767      1618.8912      2381.1088      1618.8912      2381.1088      1618.8912      2381.1088      4.4283e+08     0.1            14997000       20.700958      1785.8467      17858.471      7.2733104    
 145435000   287417.09      1456.023      -61063253       1.5826211      855879.02     -60207374       762.21767      762.21767      762.21767      1618.8912      2381.1088      1618.8912      2381.1088      1618.8912      2381.1088      4.4283e+08     0.1            14997500       20.980515      1788.5433      17885.43       6.9935058    
 145440000   281700.55      1471.6665     -61036401       1.5826211      838856.13     -60197545       762.21767      762.21767      762.21767      1618.8912      2381.1088      1618.8912      2381.1088      1618.8912      2381.1088      4.4283e+08     0.1            14998000       21.260015      1788.9092      17889.089      6.7136897    
 145445000   272818.48      1500.1298     -60931092       1.5826211      812406.84     -60118685       762.21767      762.21767      762.21767      1618.8912      2381.1088      1618.8912      2381.1088      1618.8912      2381.1088      4.4283e+08     0.1            14998500       21.540516      1782.528       17825.287      6.4341807    
 145450000   276506.64      1534.5183     -60925247       1.5826211      823389.56     -60101857       762.21767      762.21767      762.21767      1618.8912      2381.1088      1618.8912      2381.1088      1618.8912      2381.1088      4.4283e+08     0.1            14999000       21.823217      1768.6503      17686.502      6.155267     
 145455000   284631.27      1579.5202     -60888866       1.5826211      847583.3      -60041282       762.21767      762.21767      762.21767      1618.8912      2381.1088      1618.8912      2381.1088      1618.8912      2381.1088      4.4283e+08     0.1            14999500       22.103165      1786.0425      17860.422      5.8755257    
 145460000   300669.37      1629.9245     -60835084       1.5826211      895342.05     -59939742       762.21767      762.21767      762.21767      1618.8912      2381.1088      1618.8912      2381.1088      1618.8912      2381.1088      4.4283e+08     0.1            15000000       22.385674      1769.8547      17698.549      5.5964193    
 145465000   309564         1668.5735     -60873666       1.5826211      921828.74     -59951838       762.21767      762.21767      762.21767      1618.8912      2381.1088      1618.8912      2381.1088      1618.8912      2381.1088      4.4283e+08     0.1            15000500       22.66516       1788.9991      17889.988      5.3165197    
 145470000   307153.9       1700.2018     -60838935       1.5826211      914651.86     -59924284       762.21767      762.21767      762.21767      1618.8912      2381.1088      1618.8912      2381.1088      1618.8912      2381.1088      4.4283e+08     0.1            15001000       22.945806      1781.6046      17816.051      5.0368848    
 145475000   315484.1       1722.4304     -60795849       1.5826211      939457.77     -59856392       762.21767      762.21767      762.21767      1618.8912      2381.1088      1618.8912      2381.1088      1618.8912      2381.1088      4.4283e+08     0.1            15001500       23.226554      1780.9587      17809.585      4.7572465    
 145480000   309222.97      1732.2524     -60776146       1.5826211      920813.2      -59855333       762.21767      762.21767      762.21767      1618.8912      2381.1088      1618.8912      2381.1088      1618.8912      2381.1088      4.4283e+08     0.1            15002000       23.506898      1783.5216      17835.214      4.4775049    
 145485000   296871.63      1737.0328     -60798540       1.5826211      884033.01     -59914507       762.21767      762.21767      762.21767      1618.8912      2381.1088      1618.8912      2381.1088      1618.8912      2381.1088      4.4283e+08     0.1            15002500       23.787804      1779.9529      17799.521      4.1978483    
 145490000   307920.31      1750.6696     -60855131       1.5826211      916934.11     -59938197       762.21767      762.21767      762.21767      1618.8912      2381.1088      1618.8912      2381.1088      1618.8912      2381.1088      4.4283e+08     0.1            15003000       24.069561      1774.585       17745.859      3.918301     
 145495000   334099.73      1783.2078     -60825117       1.5826211      994891.94     -59830225       762.21767      762.21767      762.21767      1618.8912      2381.1088      1618.8912      2381.1088      1618.8912      2381.1088      4.4283e+08     0.1            15003500       24.352109      1769.6087      17696.09       3.6388212    
 145500000   334949.45      1821.0816     -60826578       1.5826211      997422.28     -59829156       762.21767      762.21767      762.21767      1618.8912      2381.1088      1618.8912      2381.1088      1618.8912      2381.1088      4.4283e+08     0.1            15004000       24.635583      1763.8319      17638.314      3.359398     
 145505000   344526.34      1866.0205     -60782266       1.5826211      1025940.6     -59756326       762.21767      762.21767      762.21767      1618.8912      2381.1088      1618.8912      2381.1088      1618.8912      2381.1088      4.4283e+08     0.1            15004500       24.91795       1770.7427      17707.43       3.0797469    
 145510000   336192.1       1898.463      -60754906       1.5826211      1001122.7     -59753783       762.21767      762.21767      762.21767      1618.8912      2381.1088      1618.8912      2381.1088      1618.8912      2381.1088      4.4283e+08     0.1            15005000       25.200718      1768.2326      17682.325      2.8000801    
 145515000   329697.01      1923.8139     -60731071       1.5826211      981781.41     -59749289       762.21767      762.21767      762.21767      1618.8912      2381.1088      1618.8912      2381.1088      1618.8912      2381.1088      4.4283e+08     0.1            15005500       25.48394       1765.4021      17654.022      2.5203899    
 145520000   316250.62      1937.51       -60704823       1.5826211      941740.33     -59763083       762.21767      762.21767      762.21767      1618.8912      2381.1088      1618.8912      2381.1088      1618.8912      2381.1088      4.4283e+08     0.1            15006000       25.764222      1783.9136      17839.132      2.2403674    
 145525000   331313.73      1943.3895     -60699941       1.5826211      986595.7      -59713345       762.21767      762.21767      762.21767      1618.8912      2381.1088      1618.8912      2381.1088      1618.8912      2381.1088      4.4283e+08     0.1            15006500       26.044818      1781.9244      17819.25       1.9603628    
 145530000   346011.26      1931.9319     -60722765       1.5826211      1030362.4     -59692403       762.21767      762.21767      762.21767      1618.8912      2381.1088      1618.8912      2381.1088      1618.8912      2381.1088      4.4283e+08     0.1            15007000       26.325328      1782.4657      17824.658      1.6803403    
 145535000   354348.34      1912.9681     -60759082       1.5826211      1055188.8     -59703894       762.21767      762.21767      762.21767      1618.8912      2381.1088      1618.8912      2381.1088      1618.8912      2381.1088      4.4283e+08     0.1            15007500       26.606075      1780.968       17809.677      1.4003198    
 145540000   371006.88      1898.0577     -60737862       1.5826211      1104795.1     -59633067       762.21767      762.21767      762.21767      1618.8912      2381.1088      1618.8912      2381.1088      1618.8912      2381.1088      4.4283e+08     0.1            15008000       26.887559      1776.2945      17762.941      1.1203151    
 145545000   363531.18      1881.9264     -60689716       1.5826211      1082533.8     -59607182       762.21767      762.21767      762.21767      1618.8912      2381.1088      1618.8912      2381.1088      1618.8912      2381.1088      4.4283e+08     0.1            15008500       27.168415      1780.2768      17802.764      0.84026032   
 145550000   361123.94      1877.3258     -60693842       1.5826211      1075365.4     -59618477       762.21767      762.21767      762.21767      1618.8912      2381.1088      1618.8912      2381.1088      1618.8912      2381.1088      4.4283e+08     0.1            15009000       27.452027      1762.968       17629.688      0.5602455    
 145555000   356601.08      1887.5607     -60646862       1.5826211      1061897.1     -59584965       762.21767      762.21767      762.21767      1618.8912      2381.1088      1618.8912      2381.1088      1618.8912      2381.1088      4.4283e+08     0.1            15009500       27.732541      1782.4449      17824.45       0.2801267    
 145560000   355267.29      1906.7175     -60610650       1.5826211      1057925.3     -59552725       762.21767      762.21767      762.21767      1618.8912      2381.1088      1618.8912      2381.1088      1618.8912      2381.1088      4.4283e+08     0.1            15010000       28.012649      1785.0239      17850.234      0            
Loop time of 28.0127 on 4 procs for 500000 steps with 1000 atoms

Performance: 154.216 ns/day, 0.156 hours/ns, 17849.060 timesteps/s
99.7% CPU use with 4 MPI tasks x 1 OpenMP threads

MPI task timing breakdown:
Section |  min time  |  avg time  |  max time  |%varavg| %total
---------------------------------------------------------------
Pair    | 17.555     | 17.795     | 18.11      |   4.8 | 63.52
Neigh   | 0.025509   | 0.025736   | 0.026211   |   0.2 |  0.09
Comm    | 6.1734     | 6.4848     | 6.699      |   7.6 | 23.15
Output  | 0.024772   | 0.025236   | 0.026598   |   0.5 |  0.09
Modify  | 2.5397     | 2.5905     | 2.6255     |   2.0 |  9.25
Other   |            | 1.091      |            |       |  3.90

Nlocal:            250 ave         253 max         247 min
Histogram: 1 1 0 0 0 0 0 0 1 1
Nghost:         598.25 ave         603 max         596 min
Histogram: 2 0 1 0 0 0 0 0 0 1
Neighs:        1723.75 ave        1750 max        1697 min
Histogram: 1 0 1 0 0 0 0 0 1 1

Total # of neighbors = 6895
Ave neighs/atom = 6.895
Neighbor list builds = 139
Dangerous builds = 0

unfix 2

fix 3 all nvt temp 370000 370000 $(100.0*dt) #iso 1.0 1.0 $(1000.0*dt)
fix 3 all nvt temp 370000 370000 10 

run ${long}
run 2500000
Generated 0 of 1 mixed pair_coeff terms from geometric mixing rule
Per MPI rank memory allocation (min/avg/max) = 4.342 | 4.344 | 4.346 Mbytes
   Step          Temp          Press          PotEng        Density         KinEng         TotEng           Lx             Ly             Lz            Xlo            Xhi            Ylo            Yhi            Zlo            Zhi           Volume           Dt            Time           CPU           T/CPU          S/CPU         CPULeft    
 145560000   355267.29      1906.7175     -60610650       1.5826211      1057925.3     -59552725       762.21767      762.21767      762.21767      1618.8912      2381.1088      1618.8912      2381.1088      1618.8912      2381.1088      4.4283e+08     0.1            15010000       0              0              0              0            
 145565000   348448.82      1930.1521     -60574901       1.5826211      1037621.1     -59537280       762.21767      762.21767      762.21767      1618.8912      2381.1088      1618.8912      2381.1088      1618.8912      2381.1088      4.4283e+08     0.1            15010500       0.28014971     1784.7565      17847.514      139.79579    
 145570000   354625.46      1955.9017     -60536108       1.5826211      1056014.1     -59480094       762.21767      762.21767      762.21767      1618.8912      2381.1088      1618.8912      2381.1088      1618.8912      2381.1088      4.4283e+08     0.1            15011000       0.56072433     1782.0548      17820.544      139.62105    
 145575000   367601.11      1968.4402     -60513691       1.5826211      1094653.3     -59419038       762.21767      762.21767      762.21767      1618.8912      2381.1088      1618.8912      2381.1088      1618.8912      2381.1088      4.4283e+08     0.1            15011500       0.84156854     1780.3479      17803.487      139.42024    
 145580000   364945.86      1964.9652     -60556912       1.5826211      1086746.5     -59470166       762.21767      762.21767      762.21767      1618.8912      2381.1088      1618.8912      2381.1088      1618.8912      2381.1088      4.4283e+08     0.1            15012000       1.1251172      1763.3665      17633.66       139.51481    
 145585000   370953.59      1966.4603     -60570644       1.5826211      1104636.5     -59466008       762.21767      762.21767      762.21767      1618.8912      2381.1088      1618.8912      2381.1088      1618.8912      2381.1088      4.4283e+08     0.1            15012500       1.407782       1768.8789      17688.782      139.37067    
 145590000   384435.15      1970.8931     -60544660       1.5826211      1144782.2     -59399877       762.21767      762.21767      762.21767      1618.8912      2381.1088      1618.8912      2381.1088      1618.8912      2381.1088      4.4283e+08     0.1            15013000       1.689418       1775.3421      17753.43       139.09559    
 145595000   374438.44      1969.3108     -60503377       1.5826211      1115013.7     -59388363       762.21767      762.21767      762.21767      1618.8912      2381.1088      1618.8912      2381.1088      1618.8912      2381.1088      4.4283e+08     0.1            15013500       1.9702875      1780.1863      17801.858      138.76469    
 145600000   369402.23      1966.5789     -60465332       1.5826211      1100016.8     -59365315       762.21767      762.21767      762.21767      1618.8912      2381.1088      1618.8912      2381.1088      1618.8912      2381.1088      4.4283e+08     0.1            15014000       2.2532353      1767.1108      17671.112      138.5741     
 145605000   377658.43      1963.0477     -60494979       1.5826211      1124602.3     -59370377       762.21767      762.21767      762.21767      1618.8912      2381.1088      1618.8912      2381.1088      1618.8912      2381.1088      4.4283e+08     0.1            15014500       2.534869       1775.3555      17753.557      138.2913     
 145610000   378322.29      1964.0139     -60547825       1.5826211      1126579.2     -59421246       762.21767      762.21767      762.21767      1618.8912      2381.1088      1618.8912      2381.1088      1618.8912      2381.1088      4.4283e+08     0.1            15015000       2.8157822      1779.9094      17799.093      137.97343    
 145615000   364788.66      1967.9682     -60560892       1.5826211      1086278.4     -59474614       762.21767      762.21767      762.21767      1618.8912      2381.1088      1618.8912      2381.1088      1618.8912      2381.1088      4.4283e+08     0.1            15015500       3.096908       1778.5626      17785.625      137.67173    
 145620000   363250.82      1977.4596     -60525479       1.5826211      1081698.9     -59443780       762.21767      762.21767      762.21767      1618.8912      2381.1088      1618.8912      2381.1088      1618.8912      2381.1088      4.4283e+08     0.1            15016000       3.3771287      1784.3084      17843.083      137.33665    
 145625000   362843.98      1976.7739     -60461453       1.5826211      1080487.4     -59380965       762.21767      762.21767      762.21767      1618.8912      2381.1088      1618.8912      2381.1088      1618.8912      2381.1088      4.4283e+08     0.1            15016500       3.6578268      1781.2735      17812.74       137.02789    
 145630000   359132.35      1953.0304     -60516187       1.5826211      1069434.8     -59446753       762.21767      762.21767      762.21767      1618.8912      2381.1088      1618.8912      2381.1088      1618.8912      2381.1088      4.4283e+08     0.1            15017000       3.9389209      1778.7637      17787.635      136.7369     
 145635000   382138.14      1930.5349     -60516064       1.5826211      1137942.1     -59378122       762.21767      762.21767      762.21767      1618.8912      2381.1088      1618.8912      2381.1088      1618.8912      2381.1088      4.4283e+08     0.1            15017500       4.2192761      1783.4519      17834.522      136.42332    
 145640000   373260.49      1894.7753     -60559941       1.5826211      1111506       -59448435       762.21767      762.21767      762.21767      1618.8912      2381.1088      1618.8912      2381.1088      1618.8912      2381.1088      4.4283e+08     0.1            15018000       4.5000133      1781.0248      17810.243      136.12547    
 145645000   364708.96      1873.0129     -60630995       1.5826211      1086041       -59544954       762.21767      762.21767      762.21767      1618.8912      2381.1088      1618.8912      2381.1088      1618.8912      2381.1088      4.4283e+08     0.1            15018500       4.7820872      1772.585       17725.852      135.8676     
 145650000   365920.89      1870.546      -60623125       1.5826211      1089649.9     -59533475       762.21767      762.21767      762.21767      1618.8912      2381.1088      1618.8912      2381.1088      1618.8912      2381.1088      4.4283e+08     0.1            15019000       5.0657979      1762.3583      17623.581      135.65087    
 145655000   365730.85      1871.5069     -60660354       1.5826211      1089084       -59571270       762.21767      762.21767      762.21767      1618.8912      2381.1088      1618.8912      2381.1088      1618.8912      2381.1088      4.4283e+08     0.1            15019500       5.3489648      1765.7435      17657.437      135.41332    
 145660000   365723.01      1872.7024     -60671432       1.5826211      1089060.7     -59582372       762.21767      762.21767      762.21767      1618.8912      2381.1088      1618.8912      2381.1088      1618.8912      2381.1088      4.4283e+08     0.1            15020000       5.6320873      1766.0199      17660.199      135.17015    
 145665000   366501.22      1872.2776     -60593213       1.5826211      1091378       -59501835       762.21767      762.21767      762.21767      1618.8912      2381.1088      1618.8912      2381.1088      1618.8912      2381.1088      4.4283e+08     0.1            15020500       5.9149949      1767.3619      17673.622      134.91826    
 145670000   371844.03      1860.3961     -60637365       1.5826211      1107288       -59530077       762.21767      762.21767      762.21767      1618.8912      2381.1088      1618.8912      2381.1088      1618.8912      2381.1088      4.4283e+08     0.1            15021000       6.1985845      1763.11        17631.096      134.67838    
 145675000   354177.01      1848.4217     -60627255       1.5826211      1054678.6     -59572576       762.21767      762.21767      762.21767      1618.8912      2381.1088      1618.8912      2381.1088      1618.8912      2381.1088      4.4283e+08     0.1            15021500       6.4817094      1766.006       17660.064      134.42506    
 145680000   367483.25      1855.9513     -60537615       1.5826211      1094302.4     -59443313       762.21767      762.21767      762.21767      1618.8912      2381.1088      1618.8912      2381.1088      1618.8912      2381.1088      4.4283e+08     0.1            15022000       6.7651687      1763.9216      17639.212      134.17589    
 145685000   371081.04      1866.5734     -60495440       1.5826211      1105016       -59390424       762.21767      762.21767      762.21767      1618.8912      2381.1088      1618.8912      2381.1088      1618.8912      2381.1088      4.4283e+08     0.1            15022500       7.0488888      1762.3005      17623.008      133.92892    
 145690000   371228.01      1877.5562     -60484292       1.5826211      1105453.6     -59378838       762.21767      762.21767      762.21767      1618.8912      2381.1088      1618.8912      2381.1088      1618.8912      2381.1088      4.4283e+08     0.1            15023000       7.3315661      1768.8014      17688.016      133.66012    
 145695000   363643.52      1878.5352     -60500184       1.5826211      1082868.3     -59417315       762.21767      762.21767      762.21767      1618.8912      2381.1088      1618.8912      2381.1088      1618.8912      2381.1088      4.4283e+08     0.1            15023500       7.6123992      1780.4169      17804.168      133.35799    
 145700000   365215.08      1872.0063     -60499945       1.5826211      1087548.1     -59412397       762.21767      762.21767      762.21767      1618.8912      2381.1088      1618.8912      2381.1088      1618.8912      2381.1088      4.4283e+08     0.1            15024000       7.8932364      1780.3904      17803.898      133.05745    
 145705000   367079.39      1855.3258     -60495684       1.5826211      1093099.7     -59402584       762.21767      762.21767      762.21767      1618.8912      2381.1088      1618.8912      2381.1088      1618.8912      2381.1088      4.4283e+08     0.1            15024500       8.1730696      1786.7778      17867.772      132.74196    
 145710000   373246.87      1841.7376     -60507275       1.5826211      1111465.5     -59395809       762.21767      762.21767      762.21767      1618.8912      2381.1088      1618.8912      2381.1088      1618.8912      2381.1088      4.4283e+08     0.1            15025000       8.4523538      1790.2922      17902.932      132.42024    
 145715000   381783.34      1832.4473     -60530102       1.5826211      1136885.6     -59393217       762.21767      762.21767      762.21767      1618.8912      2381.1088      1618.8912      2381.1088      1618.8912      2381.1088      4.4283e+08     0.1            15025500       8.7310625      1793.9876      17939.876      132.09256    
 145720000   360469.6       1821.528      -60522589       1.5826211      1073416.9     -59449172       762.21767      762.21767      762.21767      1618.8912      2381.1088      1618.8912      2381.1088      1618.8912      2381.1088      4.4283e+08     0.1            15026000       9.0099534      1792.8156      17928.155      131.7706     
 145725000   378303.58      1821.7331     -60557269       1.5826211      1126523.5     -59430746       762.21767      762.21767      762.21767      1618.8912      2381.1088      1618.8912      2381.1088      1618.8912      2381.1088      4.4283e+08     0.1            15026500       9.2904753      1782.3921      17823.917      131.47433    
 145730000   367645.74      1822.2516     -60608384       1.5826211      1094786.2     -59513598       762.21767      762.21767      762.21767      1618.8912      2381.1088      1618.8912      2381.1088      1618.8912      2381.1088      4.4283e+08     0.1            15027000       9.5722402      1774.5295      17745.3        131.19603    
 145735000   380130.33      1830.4106     -60543660       1.5826211      1131963.2     -59411697       762.21767      762.21767      762.21767      1618.8912      2381.1088      1618.8912      2381.1088      1618.8912      2381.1088      4.4283e+08     0.1            15027500       9.8544656      1771.6336      17716.339      130.92364    
 145740000   367514.77      1818.4085     -60644333       1.5826211      1094396.2     -59549936       762.21767      762.21767      762.21767      1618.8912      2381.1088      1618.8912      2381.1088      1618.8912      2381.1088      4.4283e+08     0.1            15028000       10.138563      1759.9578      17599.572      130.67484    
 145745000   378719.25      1811.496      -60603517       1.5826211      1127761.3     -59475756       762.21767      762.21767      762.21767      1618.8912      2381.1088      1618.8912      2381.1088      1618.8912      2381.1088      4.4283e+08     0.1            15028500       10.423739      1753.3         17533.002      130.43764    
 145750000   372092.98      1800.085      -60593225       1.5826211      1108029.3     -59485196       762.21767      762.21767      762.21767      1618.8912      2381.1088      1618.8912      2381.1088      1618.8912      2381.1088      4.4283e+08     0.1            15029000       10.713532      1725.3734      17253.733      130.25402    
 145755000   358919.46      1780.2785     -60624700       1.5826211      1068800.9     -59555899       762.21767      762.21767      762.21767      1618.8912      2381.1088      1618.8912      2381.1088      1618.8912      2381.1088      4.4283e+08     0.1            15029500       11.000085      1744.8763      17448.765      130.02668    
 145760000   358825.3       1770.6941     -60660461       1.5826211      1068520.5     -59591940       762.21767      762.21767      762.21767      1618.8912      2381.1088      1618.8912      2381.1088      1618.8912      2381.1088      4.4283e+08     0.1            15030000       11.285481      1751.9543      17519.543      129.78305    
 145765000   353572.26      1767.981      -60672812       1.5826211      1052877.8     -59619935       762.21767      762.21767      762.21767      1618.8912      2381.1088      1618.8912      2381.1088      1618.8912      2381.1088      4.4283e+08     0.1            15030500       11.569997      1757.3705      17573.708      129.52755    
 145770000   353517.91      1768.0217     -60698216       1.5826211      1052716       -59645500       762.21767      762.21767      762.21767      1618.8912      2381.1088      1618.8912      2381.1088      1618.8912      2381.1088      4.4283e+08     0.1            15031000       11.852635      1769.0468      17690.466      129.25019    
 145775000   375793.64      1773.0481     -60703873       1.5826211      1119049.3     -59584824       762.21767      762.21767      762.21767      1618.8912      2381.1088      1618.8912      2381.1088      1618.8912      2381.1088      4.4283e+08     0.1            15031500       12.134713      1772.5598      17725.598      128.96662    
 145780000   387326.61      1766.5991     -60793913       1.5826211      1153392.5     -59640520       762.21767      762.21767      762.21767      1618.8912      2381.1088      1618.8912      2381.1088      1618.8912      2381.1088      4.4283e+08     0.1            15032000       12.416031      1777.3431      17773.429      128.67526    
 145785000   361398.65      1746.4462     -60805976       1.5826211      1076183.5     -59729793       762.21767      762.21767      762.21767      1618.8912      2381.1088      1618.8912      2381.1088      1618.8912      2381.1088      4.4283e+08     0.1            15032500       12.697208      1778.2409      17782.413      128.38291    
 145790000   377249.79      1735.8034     -60828461       1.5826211      1123385.5     -59705076       762.21767      762.21767      762.21767      1618.8912      2381.1088      1618.8912      2381.1088      1618.8912      2381.1088      4.4283e+08     0.1            15033000       12.97899       1774.4208      17744.202      128.09702    
 145795000   372901.75      1728.2661     -60820587       1.5826211      1110437.7     -59710149       762.21767      762.21767      762.21767      1618.8912      2381.1088      1618.8912      2381.1088      1618.8912      2381.1088      4.4283e+08     0.1            15033500       13.26038       1776.8933      17768.928      127.80752    
 145800000   366862.56      1727.9003     -60811389       1.5826211      1092454.1     -59718935       762.21767      762.21767      762.21767      1618.8912      2381.1088      1618.8912      2381.1088      1618.8912      2381.1088      4.4283e+08     0.1            15034000       13.545276      1755.0253      17550.261      127.55138    
 145805000   351513.02      1734.6863     -60841763       1.5826211      1046745.8     -59795017       762.21767      762.21767      762.21767      1618.8912      2381.1088      1618.8912      2381.1088      1618.8912      2381.1088      4.4283e+08     0.1            15034500       13.827416      1772.1698      17721.696      127.26869    
 145810000   373482.34      1760.2864     -60778524       1.5826211      1112166.6     -59666358       762.21767      762.21767      762.21767      1618.8912      2381.1088      1618.8912      2381.1088      1618.8912      2381.1088      4.4283e+08     0.1            15035000       14.108874      1776.466       17764.656      126.97989    
 145815000   357238.96      1766.3583     -60816824       1.5826211      1063796.6     -59753028       762.21767      762.21767      762.21767      1618.8912      2381.1088      1618.8912      2381.1088      1618.8912      2381.1088      4.4283e+08     0.1            15035500       14.39          1778.5604      17785.606      126.68846    
 145820000   369027.57      1775.7063     -60720184       1.5826211      1098901.1     -59621283       762.21767      762.21767      762.21767      1618.8912      2381.1088      1618.8912      2381.1088      1618.8912      2381.1088      4.4283e+08     0.1            15036000       14.670389      1783.238       17832.38       126.39107    
 145825000   374303.72      1764.6141     -60731154       1.5826211      1114612.6     -59616541       762.21767      762.21767      762.21767      1618.8912      2381.1088      1618.8912      2381.1088      1618.8912      2381.1088      4.4283e+08     0.1            15036500       14.952231      1774.0425      17740.428      126.10658    
 145830000   381136.62      1755.5844     -60667774       1.5826211      1134959.8     -59532814       762.21767      762.21767      762.21767      1618.8912      2381.1088      1618.8912      2381.1088      1618.8912      2381.1088      4.4283e+08     0.1            15037000       15.233709      1776.3428      17763.426      125.81917    
 145835000   374975.96      1734.3326     -60729293       1.5826211      1116614.4     -59612678       762.21767      762.21767      762.21767      1618.8912      2381.1088      1618.8912      2381.1088      1618.8912      2381.1088      4.4283e+08     0.1            15037500       15.517668      1760.8169      17608.17       125.55206    
 145840000   383322.01      1732.025      -60687781       1.5826211      1141467.5     -59546313       762.21767      762.21767      762.21767      1618.8912      2381.1088      1618.8912      2381.1088      1618.8912      2381.1088      4.4283e+08     0.1            15038000       15.799086      1776.7142      17767.139      125.2642     
 145845000   379647.61      1728.3336     -60673672       1.5826211      1130525.8     -59543147       762.21767      762.21767      762.21767      1618.8912      2381.1088      1618.8912      2381.1088      1618.8912      2381.1088      4.4283e+08     0.1            15038500       16.079326      1784.1828      17841.832      124.96741    
 145850000   388077.79      1732.2559     -60618900       1.5826211      1155629.4     -59463271       762.21767      762.21767      762.21767      1618.8912      2381.1088      1618.8912      2381.1088      1618.8912      2381.1088      4.4283e+08     0.1            15039000       16.36097       1775.2897      17752.897      124.6819     
 145855000   375361.45      1721.0909     -60658413       1.5826211      1117762.3     -59540650       762.21767      762.21767      762.21767      1618.8912      2381.1088      1618.8912      2381.1088      1618.8912      2381.1088      4.4283e+08     0.1            15039500       16.640731      1787.2403      17872.402      124.38244    
 145860000   375671.84      1717.267      -60674465       1.5826211      1118686.6     -59555779       762.21767      762.21767      762.21767      1618.8912      2381.1088      1618.8912      2381.1088      1618.8912      2381.1088      4.4283e+08     0.1            15040000       16.921123      1783.221       17832.201      124.08825    
 145865000   377319.78      1719.1847     -60658002       1.5826211      1123593.9     -59534408       762.21767      762.21767      762.21767      1618.8912      2381.1088      1618.8912      2381.1088      1618.8912      2381.1088      4.4283e+08     0.1            15040500       17.200763      1788.012       17880.124      123.78912    
 145870000   354504.29      1718.403      -60695641       1.5826211      1055653.2     -59639988       762.21767      762.21767      762.21767      1618.8912      2381.1088      1618.8912      2381.1088      1618.8912      2381.1088      4.4283e+08     0.1            15041000       17.481255      1782.5843      17825.848      123.49662    
 145875000   358823.16      1740.8531     -60590330       1.5826211      1068514.1     -59521816       762.21767      762.21767      762.21767      1618.8912      2381.1088      1618.8912      2381.1088      1618.8912      2381.1088      4.4283e+08     0.1            15041500       17.76325       1773.0791      17730.788      123.21494    
 145880000   380619.63      1765.1502     -60588364       1.5826211      1133420.3     -59454944       762.21767      762.21767      762.21767      1618.8912      2381.1088      1618.8912      2381.1088      1618.8912      2381.1088      4.4283e+08     0.1            15042000       18.044649      1776.8355      17768.357      122.92919    
 145885000   379889.81      1777.4641     -60601247       1.5826211      1131247       -59470000       762.21767      762.21767      762.21767      1618.8912      2381.1088      1618.8912      2381.1088      1618.8912      2381.1088      4.4283e+08     0.1            15042500       18.326155      1776.1636      17761.629      122.64429    
 145890000   371120.93      1784.0073     -60570980       1.5826211      1105134.8     -59465846       762.21767      762.21767      762.21767      1618.8912      2381.1088      1618.8912      2381.1088      1618.8912      2381.1088      4.4283e+08     0.1            15043000       18.606329      1784.6042      17846.05       122.35073    
 145895000   388017.41      1786.878      -60580528       1.5826211      1155449.6     -59425078       762.21767      762.21767      762.21767      1618.8912      2381.1088      1618.8912      2381.1088      1618.8912      2381.1088      4.4283e+08     0.1            15043500       18.888668      1770.9209      17709.174      122.07156    
 145900000   363028.12      1777.0916     -60573523       1.5826211      1081035.7     -59492488       762.21767      762.21767      762.21767      1618.8912      2381.1088      1618.8912      2381.1088      1618.8912      2381.1088      4.4283e+08     0.1            15044000       19.171142      1770.0765      17700.801      121.79315    
 145905000   356238.64      1770.2191     -60588196       1.5826211      1060817.8     -59527378       762.21767      762.21767      762.21767      1618.8912      2381.1088      1618.8912      2381.1088      1618.8912      2381.1088      4.4283e+08     0.1            15044500       19.453084      1773.4132      17734.13       121.51131    
 145910000   371454.37      1764.3798     -60548392       1.5826211      1106127.7     -59442264       762.21767      762.21767      762.21767      1618.8912      2381.1088      1618.8912      2381.1088      1618.8912      2381.1088      4.4283e+08     0.1            15045000       19.733147      1785.3128      17853.124      121.21792    
 145915000   383328.09      1740.9106     -60599231       1.5826211      1141485.6     -59457745       762.21767      762.21767      762.21767      1618.8912      2381.1088      1618.8912      2381.1088      1618.8912      2381.1088      4.4283e+08     0.1            15045500       20.012641      1788.9474      17889.48       120.92146    
 145920000   369222.47      1704.3028     -60636413       1.5826211      1099481.5     -59536932       762.21767      762.21767      762.21767      1618.8912      2381.1088      1618.8912      2381.1088      1618.8912      2381.1088      4.4283e+08     0.1            15046000       20.29408       1776.5801      17765.793      120.63705    
 145925000   366569.14      1670.9724     -60690481       1.5826211      1091580.3     -59598901       762.21767      762.21767      762.21767      1618.8912      2381.1088      1618.8912      2381.1088      1618.8912      2381.1088      4.4283e+08     0.1            15046500       20.577352      1765.0919      17650.925      120.36343    
 145930000   377504.48      1655.7123     -60692389       1.5826211      1124143.9     -59568245       762.21767      762.21767      762.21767      1618.8912      2381.1088      1618.8912      2381.1088      1618.8912      2381.1088      4.4283e+08     0.1            15047000       20.858555      1778.0737      17780.739      120.07764    
 145935000   375375.48      1658.4314     -60713473       1.5826211      1117804.1     -59595668       762.21767      762.21767      762.21767      1618.8912      2381.1088      1618.8912      2381.1088      1618.8912      2381.1088      4.4283e+08     0.1            15047500       21.140498      1773.4102      17734.095      119.79617    
 145940000   401100.2       1690.9805     -60721542       1.5826211      1194407.9     -59527134       762.21767      762.21767      762.21767      1618.8912      2381.1088      1618.8912      2381.1088      1618.8912      2381.1088      4.4283e+08     0.1            15048000       21.421389      1780.0498      17800.5        119.50881    
 145945000   370957.3       1715.6545     -60681985       1.5826211      1104647.5     -59577338       762.21767      762.21767      762.21767      1618.8912      2381.1088      1618.8912      2381.1088      1618.8912      2381.1088      4.4283e+08     0.1            15048500       21.703105      1774.8339      17748.341      119.22616    
 145950000   368891.06      1743.5455     -60612536       1.5826211      1098494.6     -59514041       762.21767      762.21767      762.21767      1618.8912      2381.1088      1618.8912      2381.1088      1618.8912      2381.1088      4.4283e+08     0.1            15049000       21.988992      1748.9453      17489.453      118.9661     
 145955000   370283.84      1742.0244     -60615221       1.5826211      1102642       -59512579       762.21767      762.21767      762.21767      1618.8912      2381.1088      1618.8912      2381.1088      1618.8912      2381.1088      4.4283e+08     0.1            15049500       22.270896      1773.649       17736.483      118.68416    
 145960000   359900.37      1716.0355     -60559061       1.5826211      1071721.9     -59487339       762.21767      762.21767      762.21767      1618.8912      2381.1088      1618.8912      2381.1088      1618.8912      2381.1088      4.4283e+08     0.1            15050000       22.551968      1778.9066      17789.073      118.39784    
 145965000   360649.83      1673.903      -60627813       1.5826211      1073953.6     -59553860       762.21767      762.21767      762.21767      1618.8912      2381.1088      1618.8912      2381.1088      1618.8912      2381.1088      4.4283e+08     0.1            15050500       22.832526      1782.161       17821.609      118.10901    
 145970000   346723.06      1633.2727     -60657055       1.5826211      1032482.1     -59624573       762.21767      762.21767      762.21767      1618.8912      2381.1088      1618.8912      2381.1088      1618.8912      2381.1088      4.4283e+08     0.1            15051000       23.112575      1785.4066      17854.069      117.81777    
 145975000   375884.08      1621.9982     -60640853       1.5826211      1119318.6     -59521534       762.21767      762.21767      762.21767      1618.8912      2381.1088      1618.8912      2381.1088      1618.8912      2381.1088      4.4283e+08     0.1            15051500       23.393228      1781.559       17815.584      117.52984    
 145980000   368517.03      1624.5016     -60621310       1.5826211      1097380.8     -59523929       762.21767      762.21767      762.21767      1618.8912      2381.1088      1618.8912      2381.1088      1618.8912      2381.1088      4.4283e+08     0.1            15052000       23.674266      1779.1192      17791.194      117.24399    
 145985000   379285.46      1652.4169     -60617781       1.5826211      1129447.3     -59488334       762.21767      762.21767      762.21767      1618.8912      2381.1088      1618.8912      2381.1088      1618.8912      2381.1088      4.4283e+08     0.1            15052500       23.955413      1778.4257      17784.258      116.95879    
 145990000   370485.56      1688.6687     -60592991       1.5826211      1103242.7     -59489749       762.21767      762.21767      762.21767      1618.8912      2381.1088      1618.8912      2381.1088      1618.8912      2381.1088      4.4283e+08     0.1            15053000       24.235656      1784.1686      17841.685      116.66933    
 145995000   377157.21      1733.0966     -60574733       1.5826211      1123109.8     -59451623       762.21767      762.21767      762.21767      1618.8912      2381.1088      1618.8912      2381.1088      1618.8912      2381.1088      4.4283e+08     0.1            15053500       24.516864      1778.0412      17780.414      116.38466    
 146000000   369001.15      1767.6703     -60581636       1.5826211      1098822.4     -59482814       762.21767      762.21767      762.21767      1618.8912      2381.1088      1618.8912      2381.1088      1618.8912      2381.1088      4.4283e+08     0.1            15054000       24.800233      1764.4852      17644.847      116.11019    
 146005000   367752.88      1800.6279     -60573718       1.5826211      1095105.3     -59478613       762.21767      762.21767      762.21767      1618.8912      2381.1088      1618.8912      2381.1088      1618.8912      2381.1088      4.4283e+08     0.1            15054500       25.082165      1773.4737      17734.741      115.82889    
 146010000   373811.36      1814.893      -60620184       1.5826211      1113146.4     -59507038       762.21767      762.21767      762.21767      1618.8912      2381.1088      1618.8912      2381.1088      1618.8912      2381.1088      4.4283e+08     0.1            15055000       25.36457       1770.5117      17705.118      115.54972    
 146015000   370330.35      1808.0792     -60611802       1.5826211      1102780.6     -59509021       762.21767      762.21767      762.21767      1618.8912      2381.1088      1618.8912      2381.1088      1618.8912      2381.1088      4.4283e+08     0.1            15055500       25.648001      1764.0928      17640.926      115.27509    
 146020000   375728.3       1782.9734     -60622637       1.5826211      1118854.7     -59503783       762.21767      762.21767      762.21767      1618.8912      2381.1088      1618.8912      2381.1088      1618.8912      2381.1088      4.4283e+08     0.1            15056000       25.930741      1768.4113      17684.115      114.99721    
 146025000   359453.71      1750.5101     -60726926       1.5826211      1070391.8     -59656534       762.21767      762.21767      762.21767      1618.8912      2381.1088      1618.8912      2381.1088      1618.8912      2381.1088      4.4283e+08     0.1            15056500       26.214553      1761.7296      17617.295      114.72391    
 146030000   370922.08      1738.6491     -60777855       1.5826211      1104542.6     -59673313       762.21767      762.21767      762.21767      1618.8912      2381.1088      1618.8912      2381.1088      1618.8912      2381.1088      4.4283e+08     0.1            15057000       26.498362      1761.7474      17617.476      114.45038    
 146035000   374771.42      1741.7189     -60756769       1.5826211      1116005.3     -59640764       762.21767      762.21767      762.21767      1618.8912      2381.1088      1618.8912      2381.1088      1618.8912      2381.1088      4.4283e+08     0.1            15057500       26.78116       1768.0449      17680.448      114.17233    
 146040000   360386.76      1752.3067     -60765116       1.5826211      1073170.2     -59691946       762.21767      762.21767      762.21767      1618.8912      2381.1088      1618.8912      2381.1088      1618.8912      2381.1088      4.4283e+08     0.1            15058000       27.062943      1774.4138      17744.137      113.8899     
 146045000   365882.25      1770.2406     -60726861       1.5826211      1089534.9     -59637326       762.21767      762.21767      762.21767      1618.8912      2381.1088      1618.8912      2381.1088      1618.8912      2381.1088      4.4283e+08     0.1            15058500       27.345925      1766.8981      17668.981      113.61246    
 146050000   381492.15      1778.6769     -60713547       1.5826211      1136018.5     -59577528       762.21767      762.21767      762.21767      1618.8912      2381.1088      1618.8912      2381.1088      1618.8912      2381.1088      4.4283e+08     0.1            15059000       27.630688      1755.8496      17558.496      113.34222    
 146055000   371647.89      1760.3215     -60656666       1.5826211      1106704       -59549962       762.21767      762.21767      762.21767      1618.8912      2381.1088      1618.8912      2381.1088      1618.8912      2381.1088      4.4283e+08     0.1            15059500       27.914677      1760.628       17606.28       113.06855    
 146060000   366440.52      1731.1154     -60758484       1.5826211      1091197.3     -59667287       762.21767      762.21767      762.21767      1618.8912      2381.1088      1618.8912      2381.1088      1618.8912      2381.1088      4.4283e+08     0.1            15060000       28.196953      1771.3203      17713.199      112.78782    
 146065000   388923.03      1711.889      -60851105       1.5826211      1158146.4     -59692959       762.21767      762.21767      762.21767      1618.8912      2381.1088      1618.8912      2381.1088      1618.8912      2381.1088      4.4283e+08     0.1            15060500       28.47936       1770.4896      17704.898      112.50758    
 146070000   364521.92      1691.5813     -60859124       1.5826211      1085484       -59773640       762.21767      762.21767      762.21767      1618.8912      2381.1088      1618.8912      2381.1088      1618.8912      2381.1088      4.4283e+08     0.1            15061000       28.76128       1773.5565      17735.563      112.2254     
 146075000   370733.31      1695.6003     -60868828       1.5826211      1103980.5     -59764848       762.21767      762.21767      762.21767      1618.8912      2381.1088      1618.8912      2381.1088      1618.8912      2381.1088      4.4283e+08     0.1            15061500       29.042485      1778.0615      17780.617      111.94046    
 146080000   372792.98      1702.9279     -60848296       1.5826211      1110113.8     -59738182       762.21767      762.21767      762.21767      1618.8912      2381.1088      1618.8912      2381.1088      1618.8912      2381.1088      4.4283e+08     0.1            15062000       29.322365      1786.4762      17864.764      111.65056    
 146085000   362398.57      1710.6318     -60797893       1.5826211      1079161       -59718732       762.21767      762.21767      762.21767      1618.8912      2381.1088      1618.8912      2381.1088      1618.8912      2381.1088      4.4283e+08     0.1            15062500       29.603487      1778.5889      17785.891      111.36551    
 146090000   362716.14      1725.2501     -60789206       1.5826211      1080106.7     -59709100       762.21767      762.21767      762.21767      1618.8912      2381.1088      1618.8912      2381.1088      1618.8912      2381.1088      4.4283e+08     0.1            15063000       29.884323      1780.4013      17804.011      111.07947    
 146095000   363303.3       1740.9694     -60786237       1.5826211      1081855.2     -59704382       762.21767      762.21767      762.21767      1618.8912      2381.1088      1618.8912      2381.1088      1618.8912      2381.1088      4.4283e+08     0.1            15063500       30.1658        1776.3445      17763.445      110.79589    
 146100000   367726.16      1760.1783     -60776544       1.5826211      1095025.7     -59681519       762.21767      762.21767      762.21767      1618.8912      2381.1088      1618.8912      2381.1088      1618.8912      2381.1088      4.4283e+08     0.1            15064000       30.450674      1755.1619      17551.617      110.52468    
 146105000   376109.94      1783.6415     -60684382       1.5826211      1119991.2     -59564391       762.21767      762.21767      762.21767      1618.8912      2381.1088      1618.8912      2381.1088      1618.8912      2381.1088      4.4283e+08     0.1            15064500       30.733078      1770.5118      17705.12       110.24435    
 146110000   386991.18      1799.9173     -60713198       1.5826211      1152393.7     -59560804       762.21767      762.21767      762.21767      1618.8912      2381.1088      1618.8912      2381.1088      1618.8912      2381.1088      4.4283e+08     0.1            15065000       31.016775      1762.4449      17624.449      109.96857    
 146115000   373144.51      1807.6132     -60683574       1.5826211      1111160.6     -59572413       762.21767      762.21767      762.21767      1618.8912      2381.1088      1618.8912      2381.1088      1618.8912      2381.1088      4.4283e+08     0.1            15065500       31.299767      1766.8307      17668.308      109.69018    
 146120000   365087.23      1803.8227     -60710574       1.5826211      1087167.4     -59623407       762.21767      762.21767      762.21767      1618.8912      2381.1088      1618.8912      2381.1088      1618.8912      2381.1088      4.4283e+08     0.1            15066000       31.581595      1774.1327      17741.328      109.40768    
 146125000   380002.1       1786.5726     -60800477       1.5826211      1131581.4     -59668895       762.21767      762.21767      762.21767      1618.8912      2381.1088      1618.8912      2381.1088      1618.8912      2381.1088      4.4283e+08     0.1            15066500       31.862605      1779.2959      17792.954      109.12238    
 146130000   389962.67      1759.4391     -60848243       1.5826211      1161242.2     -59687001       762.21767      762.21767      762.21767      1618.8912      2381.1088      1618.8912      2381.1088      1618.8912      2381.1088      4.4283e+08     0.1            15067000       32.142751      1784.7862      17847.865      108.83424    
 146135000   372061.24      1734.98       -60819404       1.5826211      1107934.8     -59711470       762.21767      762.21767      762.21767      1618.8912      2381.1088      1618.8912      2381.1088      1618.8912      2381.1088      4.4283e+08     0.1            15067500       32.424444      1774.9822      17749.824      108.55141    
 146140000   374126.56      1722.2691     -60861807       1.5826211      1114085       -59747722       762.21767      762.21767      762.21767      1618.8912      2381.1088      1618.8912      2381.1088      1618.8912      2381.1088      4.4283e+08     0.1            15068000       32.707746      1764.9016      17649.019      108.27392    
 146145000   367849.67      1709.2776     -60836233       1.5826211      1095393.5     -59740839       762.21767      762.21767      762.21767      1618.8912      2381.1088      1618.8912      2381.1088      1618.8912      2381.1088      4.4283e+08     0.1            15068500       32.990964      1765.4216      17654.213      107.99607    
[...]
 149795000   301.63592      0.98709863    -61980830       1.5828996      898.22026     -61979931       762.17297      762.17297      762.17297      1618.9135      2381.0865      1618.9135      2381.0865      1618.9135      2381.0865      4.427521e+08   0.1            15433500       83.169143      1498.0992      14980.989      17.846011    
 149800000   304.57437     -3.6716563     -61980832       1.5827851      906.97045     -61979925       762.19135      762.19135      762.19135      1618.9043      2381.0957      1618.9043      2381.0957      1618.9043      2381.0957      4.4278412e+08  0.1            15434000       83.510136      1466.3048      14663.053      17.51019     
 149805000   298.21389     -0.98434837    -61980832       1.5828437      888.03003     -61979944       762.18194      762.18194      762.18194      1618.909       2381.091       1618.909       2381.091       1618.909       2381.091       4.4276774e+08  0.1            15434500       83.848834      1476.2441      14762.435      17.173858    
 149810000   296.71814     -3.1429202     -61988207       1.5827946      883.57594     -61987323       762.18981      762.18981      762.18981      1618.9051      2381.0949      1618.9051      2381.0949      1618.9051      2381.0949      4.4278145e+08  0.1            15435000       84.190166      1464.8497      14648.491      16.838034    
 149815000   305.2335      -2.5138682     -61995589       1.582814       908.93323     -61994681       762.18671      762.18671      762.18671      1618.9066      2381.0934      1618.9066      2381.0934      1618.9066      2381.0934      4.4277604e+08  0.1            15435500       84.528817      1476.447       14764.478      16.501642    
 149820000   302.68154      0.24422204    -61995597       1.5828734      901.33395     -61994696       762.17717      762.17717      762.17717      1618.9114      2381.0886      1618.9114      2381.0886      1618.9114      2381.0886      4.4275942e+08  0.1            15436000       84.862474      1498.541       14985.408      16.164281    
 149825000   297.64181     -2.6969413     -61988230       1.5827972      886.32648     -61987344       762.18941      762.18941      762.18941      1618.9053      2381.0947      1618.9053      2381.0947      1618.9053      2381.0947      4.4278075e+08  0.1            15436500       85.195074      1503.3096      15033.099      15.826753    
 149830000   294.40463      3.3116802     -61988246       1.5829509      876.68672     -61987369       762.16473      762.16473      762.16473      1618.9176      2381.0824      1618.9176      2381.0824      1618.9176      2381.0824      4.4273774e+08  0.1            15437000       85.533378      1477.9604      14779.601      15.490297    
 149835000   297.79871      0.21015446    -61988260       1.5828787      886.7937      -61987373       762.17633      762.17633      762.17633      1618.9118      2381.0882      1618.9118      2381.0882      1618.9118      2381.0882      4.4275795e+08  0.1            15437500       85.872552      1474.1693      14741.695      15.15398     
 149840000   296.20675     -2.6104065     -61995651       1.5828174      882.05313     -61994769       762.18616      762.18616      762.18616      1618.9069      2381.0931      1618.9069      2381.0931      1618.9069      2381.0931      4.4277508e+08  0.1            15438000       86.210825      1478.0968      14780.969      14.817486    
 149845000   310.15737      4.3379924     -61988289       1.5829877      923.59568     -61987366       762.15883      762.15883      762.15883      1618.9206      2381.0794      1618.9206      2381.0794      1618.9206      2381.0794      4.4272746e+08  0.1            15438500       86.553535      1458.9574      14589.575      14.48172     
 149850000   308.29131      3.0147712     -61980928       1.5829567      918.03887     -61980010       762.1638       762.1638       762.1638       1618.9181      2381.0819      1618.9181      2381.0819      1618.9181      2381.0819      4.4273611e+08  0.1            15439000       86.88853       1492.5624      14925.625      14.144645    
 149855000   295.04885      4.4981805     -61980941       1.5829925      878.60508     -61980062       762.15806      762.15806      762.15806      1618.921       2381.079       1618.921       2381.079       1618.921       2381.079       4.4272611e+08  0.1            15439500       87.221126      1503.3243      15033.243      13.807206    
 149860000   298.45059     -0.69807489    -61980952       1.5828694      888.73489     -61980064       762.17781      762.17781      762.17781      1618.9111      2381.0889      1618.9111      2381.0889      1618.9111      2381.0889      4.4276054e+08  0.1            15440000       87.558407      1482.4415      14824.413      13.470525    
 149865000   298.07898      0.52159395    -61973583       1.5828936      887.6283      -61972696       762.17393      762.17393      762.17393      1618.913       2381.087       1618.913       2381.087       1618.913       2381.087       4.4275377e+08  0.1            15440500       87.897915      1472.7205      14727.204      13.134172    
 149870000   297.96062     -0.76649085    -61980973       1.5828669      887.27583     -61980086       762.17821      762.17821      762.17821      1618.9109      2381.0891      1618.9109      2381.0891      1618.9109      2381.0891      4.4276123e+08  0.1            15441000       88.238751      1466.9825      14669.828      12.797987    
 149875000   290.83201     -0.15061405    -61980989       1.5828836      866.04806     -61980123       762.17554      762.17554      762.17554      1618.9122      2381.0878      1618.9122      2381.0878      1618.9122      2381.0878      4.4275658e+08  0.1            15441500       88.577447      1476.2485      14762.487      12.461466    
 149880000   300.80374      3.5724499     -61981004       1.582974       895.74219     -61980108       762.16103      762.16103      762.16103      1618.9195      2381.0805      1618.9195      2381.0805      1618.9195      2381.0805      4.427313e+08   0.1            15442000       88.913468      1488.005       14880.05       12.124564    
 149885000   291.55635      2.8077588     -61981016       1.5829561      868.20501     -61980148       762.1639       762.1639       762.1639       1618.918       2381.082       1618.918       2381.082       1618.918       2381.082       4.427363e+08   0.1            15442500       89.245749      1504.7485      15047.484      11.787175    
 149890000   299.95543     -1.7687134     -61981024       1.5828511      893.21605     -61980130       762.18075      762.18075      762.18075      1618.9096      2381.0904      1618.9096      2381.0904      1618.9096      2381.0904      4.4276565e+08  0.1            15443000       89.580746      1492.5491      14925.492      11.450171    
 149895000   303.14506     -1.4744098     -61981029       1.5828691      902.71423     -61980126       762.17787      762.17787      762.17787      1618.9111      2381.0889      1618.9111      2381.0889      1618.9111      2381.0889      4.4276063e+08  0.1            15443500       89.919363      1476.5981      14765.976      11.113629    
 149900000   287.57305     -2.4893498     -61981038       1.582849       856.34343     -61980182       762.18108      762.18108      762.18108      1618.9095      2381.0905      1618.9095      2381.0905      1618.9095      2381.0905      4.4276624e+08  0.1            15444000       90.259566      1469.7084      14697.092      10.777262    
 149905000   285.09479      5.0559393     -61988425       1.5830419      848.96361     -61987576       762.15014      762.15014      762.15014      1618.9249      2381.0751      1618.9249      2381.0751      1618.9249      2381.0751      4.427123e+08   0.1            15444500       90.598195      1476.542       14765.413      10.440684    
 149910000   292.4145       3.1241085     -61995812       1.5830029      870.76043     -61994941       762.15638      762.15638      762.15638      1618.9218      2381.0782      1618.9218      2381.0782      1618.9218      2381.0782      4.4272319e+08  0.1            15445000       90.936445      1478.1957      14781.96       10.10405     
 149915000   297.42847      1.4567671     -61995832       1.5829594      885.69121     -61994947       762.16338      762.16338      762.16338      1618.9183      2381.0817      1618.9183      2381.0817      1618.9183      2381.0817      4.4273538e+08  0.1            15445500       91.268861      1504.1427      15041.431      9.7667787    
 149920000   299.96023      5.2502816     -61995855       1.5830481      893.23035     -61994962       762.14914      762.14914      762.14914      1618.9254      2381.0746      1618.9254      2381.0746      1618.9254      2381.0746      4.4271056e+08  0.1            15446000       91.605077      1487.138       14871.379      9.4299347    
 149925000   303.64048     -3.9770836     -61995879       1.5828221      904.1895      -61994975       762.1854       762.1854       762.1854       1618.9073      2381.0927      1618.9073      2381.0927      1618.9073      2381.0927      4.4277377e+08  0.1            15446500       91.942947      1479.8582      14798.576      9.0932588    
 149930000   299.30502      3.3500057     -61995908       1.5830064      891.27925     -61995016       762.15582      762.15582      762.15582      1618.9221      2381.0779      1618.9221      2381.0779      1618.9221      2381.0779      4.4272222e+08  0.1            15447000       92.281249      1477.971       14779.708      8.7566151    
 149935000   291.82945     -1.9954865     -61995939       1.5828772      869.01827     -61995070       762.17656      762.17656      762.17656      1618.9117      2381.0883      1618.9117      2381.0883      1618.9117      2381.0883      4.4275836e+08  0.1            15447500       92.620681      1473.0464      14730.472      8.4200622    
 149940000   310.8898       4.0715237     -61995973       1.5830323      925.77674     -61995048       762.15168      762.15168      762.15168      1618.9242      2381.0758      1618.9242      2381.0758      1618.9242      2381.0758      4.4271499e+08  0.1            15448000       92.951281      1512.4053      15124.052      8.0827203    
 149945000   313.97759      3.320738      -61988636       1.5830102      934.97165     -61987701       762.15522      762.15522      762.15522      1618.9224      2381.0776      1618.9224      2381.0776      1618.9224      2381.0776      4.4272117e+08  0.1            15448500       93.288228      1483.9128      14839.131      7.7459541    
 149950000   289.32009      0.90879307    -61988679       1.5829506      861.54583     -61987817       762.16479      762.16479      762.16479      1618.9176      2381.0824      1618.9176      2381.0824      1618.9176      2381.0824      4.4273784e+08  0.1            15449000       93.620529      1504.6596      15046.596      7.408819     
 149955000   292.83632     -3.2484264     -61981347       1.5828326      872.01656     -61980475       762.18372      762.18372      762.18372      1618.9081      2381.0919      1618.9081      2381.0919      1618.9081      2381.0919      4.4277083e+08  0.1            15449500       93.95252       1506.062       15060.615      7.0716953    
 149960000   288.78659      3.8711321     -61981397       1.5830028      859.95714     -61980537       762.15641      762.15641      762.15641      1618.9218      2381.0782      1618.9218      2381.0782      1618.9218      2381.0782      4.4272324e+08  0.1            15450000       94.288731      1487.1621      14871.611      6.7349096    
 149965000   297.9355       3.25          -61981445       1.5829796      887.20106     -61980558       762.16013      762.16013      762.16013      1618.9199      2381.0801      1618.9199      2381.0801      1618.9199      2381.0801      4.4272972e+08  0.1            15450500       94.62777       1474.7555      14747.562      6.3983192    
 149970000   303.44634     -3.36992       -61981494       1.5828029      903.61137     -61980590       762.18848      762.18848      762.18848      1618.9058      2381.0942      1618.9058      2381.0942      1618.9058      2381.0942      4.4277913e+08  0.1            15451000       94.966954      1474.1281      14741.28       6.0617206    
 149975000   298.82907      3.7732745     -61981543       1.5829686      889.86196     -61980653       762.1619       762.1619       762.1619       1618.9191      2381.0809      1618.9191      2381.0809      1618.9191      2381.0809      4.427328e+08   0.1            15451500       95.305355      1477.5341      14775.342      5.7250569    
 149980000   293.9954       1.4002718     -61981587       1.5829009      875.46809     -61980712       762.17277      762.17277      762.17277      1618.9136      2381.0864      1618.9136      2381.0864      1618.9136      2381.0864      4.4275174e+08  0.1            15452000       95.644157      1475.7903      14757.909      5.3884034    
 149985000   300.84705      0.89743131    -61989008       1.5828953      895.87116     -61988112       762.17366      762.17366      762.17366      1618.9132      2381.0868      1618.9132      2381.0868      1618.9132      2381.0868      4.4275331e+08  0.1            15452500       95.977997      1497.7235      14977.232      5.0514737    
 149990000   300.25401     -0.32243987    -61974297       1.5828443      894.10516     -61973402       762.18185      762.18185      762.18185      1618.9091      2381.0909      1618.9091      2381.0909      1618.9091      2381.0909      4.4276758e+08  0.1            15453000       96.314202      1487.1893      14871.892      4.7146813    
 149995000   305.47341      0.15399709    -61974339       1.5828547      909.64764     -61973430       762.18017      762.18017      762.18017      1618.9099      2381.0901      1618.9099      2381.0901      1618.9099      2381.0901      4.4276464e+08  0.1            15453500       96.65384       1472.155       14721.551      4.3780486    
 150000000   293.69307      6.3519253     -61974373       1.5830096      874.56781     -61973499       762.15531      762.15531      762.15531      1618.9223      2381.0777      1618.9223      2381.0777      1618.9223      2381.0777      4.4272133e+08  0.1            15454000       96.997045      1456.8566      14568.569      4.0415436    
 150005000   296.48844      2.1789661     -61974403       1.5829187      882.89193     -61973520       762.1699       762.1699       762.1699       1618.9151      2381.0849      1618.9151      2381.0849      1618.9151      2381.0849      4.4274674e+08  0.1            15454500       97.33659       1472.5572      14725.569      3.704853     
 150010000   295.46139      3.5852469     -61974430       1.582956       879.83357     -61973550       762.16392      762.16392      762.16392      1618.918       2381.082       1618.918       2381.082       1618.918       2381.082       4.4273632e+08  0.1            15455000       97.676801      1469.6757      14696.759      3.3681656    
 150015000   304.02165      0.63401299    -61974453       1.5828728      905.32455     -61973548       762.17727      762.17727      762.17727      1618.9114      2381.0886      1618.9114      2381.0886      1618.9114      2381.0886      4.427596e+08   0.1            15455500       98.011519      1493.7962      14937.961      3.0312842    
 150020000   300.22444      4.706753      -61974471       1.5829594      894.01713     -61973577       762.16337      762.16337      762.16337      1618.9183      2381.0817      1618.9183      2381.0817      1618.9183      2381.0817      4.4273536e+08  0.1            15456000       98.344219      1502.8559      15028.561      2.6943622    
 150025000   301.84527     -1.3066806     -61974487       1.5828039      898.84366     -61973589       762.18833      762.18833      762.18833      1618.9058      2381.0942      1618.9058      2381.0942      1618.9058      2381.0942      4.4277887e+08  0.1            15456500       98.682079      1479.9024      14799.018      2.3575924    
 150030000   292.7149       2.7132116     -61974504       1.5828987      871.65498     -61973632       762.17311      762.17311      762.17311      1618.9134      2381.0866      1618.9134      2381.0866      1618.9134      2381.0866      4.4275234e+08  0.1            15457000       99.022136      1470.3406      14703.413      2.02086      
 150035000   290.88621      6.1627665     -61974520       1.5829785      866.20947     -61973654       762.1603       762.1603       762.1603       1618.9198      2381.0802      1618.9198      2381.0802      1618.9198      2381.0802      4.4273002e+08  0.1            15457500       99.361513      1473.2867      14732.867      1.6840935    
 150040000   287.7134       2.5882454     -61974539       1.5828908      856.76137     -61973683       762.17437      762.17437      762.17437      1618.9128      2381.0872      1618.9128      2381.0872      1618.9128      2381.0872      4.4275454e+08  0.1            15458000       99.698852      1482.188       14821.875      1.3472818    
 150045000   289.51184      3.5045489     -61974561       1.5829184      862.11681     -61973698       762.16995      762.16995      762.16995      1618.915       2381.085       1618.915       2381.085       1618.915       2381.085       4.4274683e+08  0.1            15458500       100.03693      1478.9452      14789.456      1.0104741    
 150050000   294.44205     -0.52520358    -61974585       1.5828184      876.79816     -61973708       762.186        762.186        762.186        1618.907       2381.093       1618.907       2381.093       1618.907       2381.093       4.427748e+08   0.1            15459000       100.36974      1502.3602      15023.606      0.67362244   
 150055000   296.5725       3.0809982     -61974610       1.5829059      883.14226     -61973727       762.17196      762.17196      762.17196      1618.914       2381.086       1618.914       2381.086       1618.914       2381.086       4.4275033e+08  0.1            15459500       100.70623      1485.9447      14859.441      0.33681013   
 150060000   289.12739      3.1302504     -61974640       1.5829082      860.97199     -61973779       762.17158      762.17158      762.17158      1618.9142      2381.0858      1618.9142      2381.0858      1618.9142      2381.0858      4.4274968e+08  0.1            15460000       101.04575      1472.6698      14726.699      0            
Loop time of 101.046 on 4 procs for 1500000 steps with 1000 atoms

Performance: 128.259 ns/day, 0.187 hours/ns, 14844.751 timesteps/s
99.6% CPU use with 4 MPI tasks x 1 OpenMP threads

MPI task timing breakdown:
Section |  min time  |  avg time  |  max time  |%varavg| %total
---------------------------------------------------------------
Pair    | 56.372     | 57.604     | 58.449     |  10.5 | 57.01
Neigh   | 0.0075852  | 0.0078422  | 0.0081041  |   0.2 |  0.01
Comm    | 19.276     | 20.05      | 21.31      |  17.5 | 19.84
Output  | 0.061459   | 0.063267   | 0.068588   |   1.2 |  0.06
Modify  | 19.676     | 19.846     | 19.97      |   2.4 | 19.64
Other   |            | 3.475      |            |       |  3.44

Nlocal:            250 ave         254 max         241 min
Histogram: 1 0 0 0 0 0 0 0 1 2
Nghost:         607.75 ave         617 max         599 min
Histogram: 1 0 0 1 0 1 0 0 0 1
Neighs:         1714.5 ave        1751 max        1655 min
Histogram: 1 0 0 0 0 0 0 2 0 1

Total # of neighbors = 6858
Ave neighs/atom = 6.858
Neighbor list builds = 41
Dangerous builds = 0

# run_style
run_style verlet

# write restart
write_restart ${write_res}
write_restart ./pgnpmf/0100/equpmf84.res
System init for write_restart ...
Generated 0 of 1 mixed pair_coeff terms from geometric mixing rule

Total wall time: 0:04:58
