LAMMPS data file, Author: Jerry Qin

996 atoms
0 bonds
0 angles

2 atom types

-100 5100 xlo xhi
-100 5100 ylo yhi
-100 5100 zlo zhi

Masses

1 221851
2 422051

Atoms

1 1  149.965 527.757 840.273
2 1  0.244 0.084 0.041
3 1  793.610 507.128 166.225
4 1  695.612 708.941 590.783
5 1  286.513 301.416 109.085
6 1  462.102 538.654 116.143
7 1  481.664 217.196 176.721
8 1  69.786 834.087 463.238
9 1  27.597 354.497 426.314
10 1  185.507 628.829 82.662
11 1  730.614 475.348 432.761
12 1  161.811 416.999 487.480
13 1  382.468 627.051 775.771
14 1  87.643 854.779 837.807
15 1  833.206 74.211 452.854
16 1  927.193 499.218 131.476
17 1  887.826 604.978 725.804
18 1  758.662 856.050 167.786
19 1  885.417 363.026 849.587
20 1  606.302 660.093 681.052
21 1  113.075 952.365 279.735
22 1  646.455 594.322 61.654
23 1  30.694 936.833 399.354
24 1  522.276 199.609 914.335
25 1  293.390 181.064 5.811
26 1  280.305 511.166 478.799
27 1  624.830 395.259 469.065
28 1  977.742 700.242 293.391
29 1  298.835 761.920 789.718
30 1  254.060 620.504 851.595
31 1  866.917 828.670 928.601
32 1  183.494 489.706 123.983
33 1  550.046 341.116 210.765
34 1  647.246 984.266 847.404
35 1  842.989 718.582 703.905
36 1  262.153 427.128 979.081
37 1  156.414 545.806 549.410
38 1  68.576 36.817 196.937
39 1  779.407 720.000 992.077
40 1  731.311 674.707 466.145
41 1  659.713 812.757 446.987
42 1  836.009 733.527 14.933
43 1  836.746 485.560 360.276
44 1  29.628 703.505 883.711
45 1  756.205 649.255 255.277
46 1  144.307 447.331 705.709
47 1  190.409 341.396 602.733
48 1  688.023 907.759 377.394
49 1  134.193 614.349 267.396
50 1  509.421 643.277 838.375
51 1  307.301 969.791 724.971
52 1  571.784 528.744 205.158
53 1  647.233 534.944 784.207
54 1  49.534 697.499 161.005
55 1  682.801 93.953 624.065
56 1  495.100 530.786 319.327
57 1  887.702 986.178 878.186
58 1  343.024 701.373 356.542
59 1  0.000 486.872 546.257
60 1  43.945 264.309 789.545
61 1  379.918 209.650 448.585
62 1  898.944 855.732 21.260
63 1  871.165 593.009 294.874
64 1  412.157 147.478 617.245
65 1  618.333 854.960 229.440
66 1  678.132 452.760 319.727
67 1  136.927 95.305 997.803
68 1  211.814 419.753 375.325
69 1  701.721 464.236 695.601
70 1  8.389 853.156 253.723
71 1  617.741 709.847 875.604
72 1  489.459 248.608 303.754
73 1  289.913 657.153 28.457
74 1  708.560 282.498 460.887
75 1  448.100 745.253 743.625
76 1  772.369 915.565 821.123
77 1  465.344 850.641 100.901
78 1  216.891 865.521 783.658
79 1  237.550 21.327 808.473
80 1  783.060 67.159 708.466
81 1  769.816 200.776 142.628
82 1  203.180 308.907 733.827
83 1  545.255 666.226 302.469
84 1  951.091 63.971 381.678
85 1  908.530 924.659 196.638
86 1  496.120 229.485 563.286
87 1  2499.950 1258.424 2388.261
88 1  307.002 99.243 529.059
89 1  2500.223 518.844 371.274
90 1  2500.308 2499.699 2387.041
91 1  2720.645 311.414 51.522
92 1  2508.380 66.671 2359.156
93 1  2650.359 557.314 1153.547
94 1  2691.471 777.797 823.950
95 1  2691.957 1295.318 297.176
96 1  2578.166 2478.332 0.001
97 1  2501.234 0.935 1951.759
98 1  2714.774 103.413 202.497
99 1  2759.971 801.693 942.672
100 1  4974.651 449.436 0.235
101 1  2501.664 2.032 583.355
102 1  2612.376 59.658 2.728
103 1  2594.577 302.991 68.814
104 1  2600.814 880.757 589.618
105 1  2951.788 274.652 347.305
106 1  2627.671 21.294 2394.444
107 1  4999.944 0.214 0.092
108 1  2500.029 667.280 802.759
109 1  2834.299 645.556 663.190
110 1  2761.026 527.210 927.970
111 1  2500.182 1547.864 789.763
112 1  2907.604 0.244 1095.072
113 1  2704.168 820.934 673.401
114 1  2826.829 81.379 1010.869
115 1  2570.490 975.184 1005.196
116 1  2500.065 2146.048 1796.325
117 1  4998.951 1.153 2443.115
118 1  2500.018 1133.233 102.888
119 1  2500.012 307.661 1168.767
120 1  2500.205 43.943 343.814
121 1  2500.020 1280.720 1413.485
122 1  3088.539 987.322 968.508
123 1  2539.018 0.310 753.224
124 1  3403.120 0.262 0.018
125 1  2643.885 532.801 375.808
126 1  4386.539 1.905 2499.203
127 1  2500.172 536.886 78.295
128 1  2566.017 71.458 659.120
129 1  2500.669 0.186 1087.385
130 1  2518.291 223.879 9.861
131 1  2502.630 3.294 123.561
132 1  2691.615 969.378 226.438
133 1  2607.545 943.188 112.548
134 1  2606.340 88.595 901.359
135 1  2752.774 261.637 385.631
136 1  2777.815 403.422 364.332
137 1  2500.208 714.168 188.330
138 1  2649.849 0.260 519.646
139 1  2998.204 645.878 453.743
140 1  2564.936 2455.514 141.941
141 1  2787.913 2.852 1112.642
142 1  2675.808 667.826 256.041
143 1  2811.401 0.178 0.681
144 1  4993.436 1663.393 0.913
145 1  2572.844 717.808 614.578
146 1  2500.195 1217.203 190.009
147 1  4999.924 2499.477 763.320
148 1  2696.061 601.117 74.380
149 1  2733.398 253.098 215.652
150 1  2744.383 940.372 353.481
151 1  2782.901 736.376 159.053
152 1  2581.824 645.060 118.927
153 1  3395.016 121.275 520.590
154 1  2500.266 745.026 978.387
155 1  2750.781 416.949 0.570
156 1  4998.714 1784.575 1.692
157 1  2823.561 108.879 338.459
158 1  3193.677 337.834 1134.105
159 1  2694.582 164.211 1071.938
160 1  2867.624 652.580 7.106
161 1  2821.711 175.155 1161.153
162 1  2694.503 2481.859 11.034
163 1  2500.129 916.758 532.983
164 1  2695.885 57.974 615.517
165 1  4999.451 1905.581 1.737
166 1  2725.233 683.213 724.691
167 1  2690.956 773.935 381.302
168 1  2716.174 683.773 947.480
169 1  2500.070 340.537 228.280
170 1  2560.039 1242.938 0.244
171 1  2595.612 674.572 954.017
172 1  2897.059 13.827 173.009
173 1  2675.952 1477.310 1593.255
174 1  2829.447 767.199 0.295
175 1  2500.169 960.276 0.005
176 1  689.526 2860.314 594.133
177 1  249.838 2675.504 416.826
178 1  762.580 2841.619 256.062
179 1  953.006 2688.622 148.683
180 1  400.972 2731.370 1061.328
181 1  196.448 2649.700 535.673
182 1  301.555 2910.983 13.819
183 1  807.188 2637.135 564.932
184 1  554.329 2845.490 431.594
185 1  0.254 2800.820 792.108
186 1  119.559 2833.283 182.926
187 1  968.497 2792.303 341.431
188 1  386.110 2661.536 419.941
189 1  753.351 2726.918 143.355
190 1  790.507 2613.394 344.373
191 1  799.009 2701.945 258.861
192 1  934.354 2643.558 955.702
193 1  377.546 2642.338 542.964
194 1  86.406 2622.214 97.141
195 1  410.221 2638.664 303.375
196 1  171.449 2646.333 957.199
197 1  97.932 2861.286 1.362
198 1  565.254 2698.123 981.046
199 1  748.829 2772.733 813.462
200 1  677.391 2710.622 252.604
201 1  572.015 2699.468 817.249
202 1  239.995 2808.304 517.968
203 1  978.978 2734.044 780.662
204 1  0.455 2798.990 510.756
205 1  921.609 2610.731 828.308
206 1  432.249 2820.002 797.941
207 1  982.868 2780.082 499.066
208 1  946.605 2826.733 223.410
209 1  768.541 2821.878 489.817
210 1  213.909 2850.576 103.485
211 1  251.078 2763.424 278.186
212 1  780.857 2713.419 993.385
213 1  822.585 2777.853 390.236
214 1  123.898 2656.523 426.985
215 1  30.225 2675.417 299.444
216 1  0.379 2791.702 19.479
217 1  469.202 2839.828 119.453
218 1  258.810 2683.195 3.084
219 1  186.452 2872.734 930.785
220 1  105.588 2732.570 50.646
221 1  977.119 2799.762 664.832
222 1  520.965 2643.351 472.735
223 1  522.929 2819.470 245.536
224 1  598.314 2885.530 850.837
225 1  223.698 2649.672 712.764
226 1  487.138 2790.021 531.070
227 1  631.933 2809.263 972.533
228 1  412.768 2718.546 47.250
229 1  573.781 2707.796 174.188
230 1  335.178 2685.359 148.445
231 1  248.474 2625.523 836.006
232 1  926.324 2698.760 578.244
233 1  334.386 2622.120 951.524
234 1  630.960 2817.551 305.412
235 1  533.532 2672.135 324.589
236 1  302.198 2844.790 765.440
237 1  241.791 2761.178 885.879
238 1  946.254 2750.042 33.320
239 1  435.060 2695.755 784.352
240 1  950.496 2659.808 380.631
241 1  427.082 2750.298 218.943
242 1  645.511 2821.385 160.330
243 1  892.089 2641.850 704.971
244 1  597.537 2771.258 11.237
245 1  317.386 2815.306 382.485
246 1  780.797 2632.798 875.470
247 1  695.921 2643.563 479.579
248 1  304.784 2778.459 624.981
249 1  269.619 2571.929 49.792
250 1  164.267 2685.515 203.588
251 1  255.382 2867.571 216.208
252 1  538.095 2757.330 654.751
253 1  384.408 2863.264 519.734
254 1  78.152 2701.842 533.874
255 1  407.328 2646.758 676.787
256 1  116.672 2807.577 406.120
257 1  512.338 2622.653 893.763
258 1  610.619 2717.541 538.897
259 1  282.248 2629.738 264.864
260 1  25.506 2747.348 186.931
261 1  841.746 2800.944 686.186
262 1  63.224 2678.676 913.635
263 1  644.674 2738.861 421.876
264 1  313.308 694.415 2501.733
265 1  354.224 444.928 2742.731
266 1  585.072 919.045 2631.963
267 1  484.033 151.361 2611.375
268 1  917.854 301.794 2601.930
269 1  736.254 757.017 2599.708
270 1  913.244 738.612 2692.613
271 1  229.912 671.000 2782.564
272 1  543.094 239.009 2695.439
273 1  450.893 361.485 2731.773
274 1  274.660 310.359 2742.186
275 1  157.643 551.864 2736.009
276 1  363.804 144.887 2717.632
277 1  437.851 939.912 2604.226
278 1  690.874 0.000 2569.972
279 1  524.996 548.293 2562.072
280 1  428.485 622.749 2612.095
281 1  96.977 48.265 2590.073
282 1  527.596 0.000 2586.780
283 1  938.839 151.009 2618.128
284 1  680.515 134.854 2667.909
285 1  767.973 97.280 2549.826
286 1  762.008 20.886 2700.492
287 1  232.039 223.895 2540.484
288 1  479.789 848.305 2700.563
289 1  952.404 513.648 2615.427
290 1  759.970 883.804 2533.249
291 1  570.042 440.703 2514.234
292 1  350.141 744.371 2762.773
293 1  932.555 887.464 2672.416
294 1  224.053 948.389 2644.338
295 1  825.664 392.282 2628.919
296 1  251.096 105.185 2737.130
297 1  179.653 669.389 2662.092
298 1  507.084 723.057 2699.619
299 1  363.574 194.584 2564.047
300 1  684.216 214.755 2549.255
301 1  27.378 1013.650 2625.985
302 1  58.976 904.180 2677.650
303 1  452.617 530.629 2740.633
304 1  91.418 893.043 2555.740
305 1  344.380 610.380 2771.852
306 1  466.217 720.577 2548.137
307 1  349.656 499.518 2565.781
308 1  816.588 950.154 2677.731
309 1  823.554 233.686 2541.701
310 1  597.382 614.502 2632.910
311 1  351.772 867.910 2682.189
312 1  215.010 755.178 2544.843
313 1  366.804 310.584 2512.111
314 1  62.699 384.028 2593.873
315 1  253.172 781.604 2691.721
316 1  616.882 31.195 2693.148
317 1  583.167 339.670 2607.350
318 1  814.682 488.076 2724.110
319 1  97.131 282.526 2692.871
320 1  262.937 579.829 2659.229
321 1  245.484 77.287 2598.591
322 1  704.668 595.015 2701.804
323 1  186.239 884.067 2755.999
324 1  298.319 853.155 2570.573
325 1  425.749 260.116 2667.012
326 1  801.359 161.679 2684.509
327 1  812.529 656.173 2709.435
328 1  670.888 522.815 2552.704
329 1  23.131 539.290 2712.200
330 1  597.547 108.390 2581.351
331 1  593.237 498.284 2710.739
332 1  179.542 389.413 2552.701
333 1  446.082 416.835 2516.537
334 1  926.131 241.301 2743.016
335 1  589.218 769.693 2608.943
336 1  110.501 572.320 2582.615
337 1  29.597 786.918 2682.969
338 1  478.259 300.122 2561.238
339 1  903.540 38.840 2736.697
340 1  658.921 716.113 2711.178
341 1  131.327 443.389 2684.672
342 1  703.358 886.062 2687.820
343 1  680.922 352.117 2678.388
344 1  82.929 694.787 2740.507
345 1  229.205 214.534 2667.075
346 1  578.293 371.555 2744.113
347 1  368.581 751.628 2612.889
348 1  218.783 595.213 2521.707
349 1  500.549 452.194 2640.771
350 1  24.632 189.759 2663.545
351 1  2909.862 2530.016 904.539
352 1  4841.811 4878.299 2499.950
353 1  2500.115 3371.251 2499.904
354 1  2500.000 2676.779 411.667
355 1  4969.203 2583.028 2309.108
356 1  2810.857 3160.481 0.000
357 1  2854.122 4999.984 0.109
358 1  4480.907 2708.135 2368.098
359 1  2847.818 2899.785 1629.472
360 1  2654.555 2506.106 213.618
361 1  4999.844 2500.067 1158.804
362 1  2735.593 2508.044 123.390
363 1  3230.608 2551.169 644.048
364 1  2637.027 2890.227 1233.979
365 1  2667.439 2603.217 1033.138
366 1  2721.616 2748.142 471.517
367 1  2784.297 3080.238 1688.877
368 1  2556.104 2715.521 0.000
369 1  2676.558 2622.363 470.645
370 1  2872.684 2757.970 50.826
371 1  3888.337 2500.000 0.000
372 1  2834.669 3389.686 0.000
373 1  2500.000 3655.595 223.013
374 1  2594.149 2600.708 379.829
375 1  2611.489 2827.880 938.662
376 1  3095.450 2500.000 252.146
377 1  3210.770 2805.328 1008.343
378 1  2888.361 2753.278 559.204
379 1  2548.050 3319.701 461.066
380 1  3061.158 2500.000 539.298
381 1  3111.549 2500.000 663.543
382 1  2684.480 2502.836 580.671
383 1  3095.907 4999.998 0.074
384 1  2799.011 2500.000 499.722
385 1  2993.397 3752.197 0.538
386 1  2624.415 3310.161 0.000
387 1  2585.819 3219.485 635.756
388 1  3144.952 3154.185 530.613
389 1  2500.000 3052.143 121.712
390 1  2500.000 3165.741 550.084
391 1  2830.775 3063.034 847.159
392 1  2568.220 2620.166 805.734
393 1  4999.663 4461.307 3.868
394 1  3326.158 2500.000 0.000
395 1  2500.000 2857.680 0.000
396 1  3660.991 2500.000 617.257
397 1  2684.066 3165.485 0.000
398 1  2637.886 3023.076 1157.846
399 1  2500.000 2500.000 561.342
400 1  2897.360 2749.574 299.947
401 1  2886.361 2500.000 181.403
402 1  3342.645 2570.529 97.950
403 1  3133.693 2750.163 2499.999
404 1  2873.659 2831.169 658.133
405 1  3055.794 2707.654 1324.292
406 1  2501.784 2637.082 163.031
407 1  2763.459 2773.860 0.000
408 1  2500.000 2525.705 1294.593
409 1  2545.037 2596.093 954.401
410 1  2659.682 3028.288 871.665
411 1  3330.508 2966.583 457.386
412 1  2500.000 2500.000 1035.343
413 1  2539.535 2500.000 758.820
414 1  2775.634 2887.738 703.035
415 1  3091.621 2853.036 0.000
416 1  2966.055 3141.319 967.411
417 1  2539.847 3103.534 659.430
418 1  2871.502 2635.165 78.258
419 1  2708.359 2612.178 0.000
420 1  3364.677 2743.358 653.226
421 1  2883.297 3444.928 988.911
422 1  3126.360 3028.993 322.796
423 1  2761.590 2563.672 833.640
424 1  2654.798 2548.009 746.460
425 1  2500.000 2992.136 633.007
426 1  3075.470 2500.000 948.617
427 1  2846.933 2500.000 320.304
428 1  2805.743 2500.219 0.071
429 1  2500.000 3338.496 625.406
430 1  2500.000 2500.000 330.590
431 1  2667.200 2731.788 59.556
432 1  2591.305 2602.241 48.534
433 1  2532.499 2762.258 155.566
434 1  2561.252 2500.000 447.131
435 1  2845.494 2878.941 801.706
436 1  3563.006 3267.097 0.348
437 1  2661.272 3205.245 296.261
438 1  2500.000 3398.660 733.723
439 1  2933.101 1041.807 3503.107
440 1  2500.102 2482.356 2902.912
441 1  2615.240 1596.039 2500.231
442 1  2530.477 1205.362 2500.058
443 1  2500.142 0.030 4999.901
444 1  2500.119 422.219 4999.714
445 1  2940.236 0.000 2542.633
446 1  3495.136 2474.244 2500.000
447 1  2521.614 80.278 2672.335
448 1  2500.000 217.015 2586.642
449 1  3205.997 953.707 4937.328
450 1  2500.214 0.069 3580.508
451 1  4492.507 1999.912 3089.189
452 1  2500.184 0.162 4504.872
453 1  2500.311 906.178 3236.889
454 1  4823.507 1628.414 4996.506
455 1  2500.072 621.034 3268.103
456 1  3574.832 2493.816 2964.491
457 1  4112.949 0.059 2846.154
458 1  2500.161 423.445 2913.347
459 1  2857.320 699.335 2500.106
460 1  2500.009 623.942 2672.861
461 1  3719.754 40.516 2500.406
462 1  2500.281 0.135 4190.471
463 1  2732.470 890.670 2732.723
464 1  4004.717 0.139 4999.934
465 1  3078.732 659.439 2500.050
466 1  4999.989 0.075 2720.111
467 1  3766.893 2234.841 3839.748
468 1  2841.488 1360.377 2869.117
469 1  2768.117 1167.331 2500.294
470 1  2500.075 429.216 3085.687
471 1  4188.832 190.940 2591.387
472 1  3593.887 0.000 2500.859
473 1  2851.088 1030.802 2801.768
474 1  5000.000 2206.681 2584.211
475 1  2572.824 643.513 2841.390
476 1  2500.000 311.653 2500.000
477 1  2800.672 0.004 2683.434
478 1  2753.424 0.548 2500.000
479 1  2550.296 441.189 2741.908
480 1  4795.016 592.233 2500.039
481 1  2500.180 718.256 3181.210
482 1  3814.692 1305.867 2500.116
483 1  2500.122 90.015 3238.374
484 1  2866.712 1198.415 2755.567
485 1  3008.677 266.483 2500.074
486 1  2500.312 638.679 3049.682
487 1  2629.760 45.440 2627.150
488 1  2500.164 725.166 2766.804
489 1  3190.580 1522.225 3473.729
490 1  2582.976 1012.378 2667.787
491 1  2516.260 43.187 2568.109
492 1  4196.577 1750.245 3786.670
493 1  3717.430 426.811 2500.050
494 1  3141.237 477.630 4582.799
495 1  3374.379 1005.100 2500.111
496 1  2500.268 0.247 3459.302
497 1  3240.288 1001.360 2502.255
498 1  2500.051 1603.797 2876.029
499 1  2500.921 0.000 2929.860
500 1  3615.711 2498.899 2837.850
501 1  2953.769 1368.465 3045.773
502 1  4333.607 2173.516 2500.102
503 1  2517.580 748.494 2502.707
504 1  3177.482 323.168 2755.646
505 1  3139.702 1113.320 2650.775
506 1  2714.045 339.436 2884.742
507 1  2871.518 94.065 2500.000
508 1  2500.197 496.896 3669.708
509 1  3064.873 0.067 2500.016
510 1  4106.278 608.484 2500.130
511 1  2727.051 0.160 2786.990
512 1  2500.011 1003.933 3449.426
513 1  2514.037 441.301 2516.534
514 1  4189.366 743.138 2500.177
515 1  4261.384 553.328 3350.298
516 1  3546.670 230.908 2500.197
517 1  3308.891 1925.411 3535.829
518 1  2500.140 1047.527 3313.947
519 1  3352.829 1289.644 3028.647
520 1  2552.762 1507.122 2561.558
521 1  3302.826 1277.075 2500.239
522 1  2500.197 890.065 3502.520
523 1  4999.814 1264.598 4999.954
524 1  2512.140 132.490 2500.000
525 1  4866.243 534.412 3385.148
526 1  89.118 2984.294 3701.858
527 1  0.127 4999.934 3209.683
528 1  84.141 2536.703 4940.179
529 1  926.956 2500.251 4215.703
530 1  2452.775 4363.703 2535.865
531 1  2487.364 2598.207 4946.596
532 1  542.822 2973.206 3451.959
533 1  1759.870 3358.072 2500.866
534 1  608.624 2500.901 3206.509
535 1  168.576 2584.743 4888.124
536 1  99.715 4643.938 2500.557
537 1  306.362 2940.335 3356.516
538 1  606.352 2946.331 2500.501
539 1  634.472 2500.000 2865.918
540 1  177.006 2606.117 2912.988
541 1  867.161 2931.616 2500.160
542 1  1107.685 2660.342 2666.169
543 1  301.325 2968.183 2904.565
544 1  1725.078 2500.241 2500.043
545 1  744.645 2500.016 2925.196
546 1  1298.332 4980.109 3199.930
547 1  565.813 2807.640 2937.035
548 1  1413.787 2500.527 3381.289
549 1  429.636 2871.802 2642.736
550 1  61.569 2577.573 2778.713
551 1  422.898 2783.223 2875.939
552 1  617.385 2500.023 2702.502
553 1  0.379 3251.618 3378.547
554 1  550.272 2971.755 3023.310
555 1  44.369 4975.973 2615.404
556 1  2320.205 2631.929 2567.796
557 1  111.854 2893.090 2580.253
558 1  937.872 2725.622 2594.720
559 1  326.719 2798.682 2500.660
560 1  2499.819 2500.513 2500.107
561 1  748.489 2596.893 2500.000
562 1  2.594 2588.159 2974.056
563 1  0.000 2815.053 2622.048
564 1  511.331 2617.730 2853.283
565 1  395.441 2500.120 2996.262
566 1  0.135 2501.715 2887.905
567 1  302.154 2931.957 3141.740
568 1  546.239 3779.545 2500.062
569 1  400.212 3036.152 2702.137
570 1  786.831 2500.000 2564.764
571 1  0.068 4999.847 4999.968
572 1  1399.484 3077.855 4042.278
573 1  1851.614 2500.326 2500.798
574 1  108.261 4942.187 2521.404
575 1  1424.028 2930.050 4225.095
576 1  758.492 2500.119 3181.394
577 1  845.786 2729.531 2917.067
578 1  107.861 2526.829 3009.853
579 1  630.436 2573.305 2970.692
580 1  311.483 3803.227 3341.277
581 1  842.370 3112.321 2500.260
582 1  36.147 2521.025 2504.768
583 1  1379.873 2500.015 3796.324
584 1  0.468 3606.523 3611.780
585 1  2140.910 2500.172 2500.849
586 1  96.109 2771.130 2556.474
587 1  997.052 2860.674 2853.332
588 1  1045.302 2725.104 2753.083
589 1  0.122 3223.216 2763.793
590 1  375.913 2500.110 2500.208
591 1  784.070 3321.598 2500.438
592 1  103.872 2734.286 2697.578
593 1  46.597 4343.417 3619.463
594 1  1888.834 2948.585 4092.374
595 1  847.248 2669.992 2529.718
596 1  984.548 2664.046 2872.259
597 1  781.432 2596.279 3037.400
598 1  0.685 2992.071 2601.118
599 1  160.714 2508.292 2512.822
600 1  0.124 3376.537 2500.067
601 1  375.336 2561.217 2724.858
602 1  1019.144 2855.312 2670.603
603 1  1662.117 2694.990 3001.216
604 1  1064.096 2754.732 2898.456
605 1  0.579 2500.298 3939.362
606 1  1071.943 4544.244 2500.010
607 1  231.580 2884.289 2535.890
608 1  2125.386 2500.175 3054.637
609 1  807.737 2936.560 2826.096
610 1  470.202 2500.000 2892.014
611 1  804.990 3807.891 3728.313
612 1  2176.326 2513.840 2927.093
613 1  1390.174 2500.069 2500.018
614 1  3472.020 2586.360 2537.063
615 1  3699.540 3496.204 2500.000
616 1  2797.454 2500.003 2924.822
617 1  4999.767 2500.529 4999.108
618 1  2500.083 4877.819 4999.950
619 1  2795.425 4999.879 2500.112
620 1  3751.783 3845.484 3497.815
621 1  3746.254 2500.000 2763.487
622 1  3543.947 2500.000 3630.317
623 1  4765.356 4946.950 2720.166
624 1  3604.775 2551.048 4072.544
625 1  2500.000 4632.136 4383.636
626 1  2805.939 2555.854 2500.000
627 1  2500.000 2595.470 2844.788
628 1  2500.000 3304.512 4634.458
629 1  4170.220 4121.812 2500.000
630 1  2500.000 2500.000 3842.480
631 1  2553.855 4810.922 2535.466
632 1  3641.842 2500.000 2500.000
633 1  5000.000 3170.434 4079.488
634 1  2607.690 2500.000 4074.834
635 1  4338.680 2500.000 4718.239
636 1  4431.044 2500.000 2500.000
637 1  4199.515 2500.000 3884.798
638 1  4825.165 3144.498 2947.116
639 1  2912.864 3213.382 2500.000
640 1  2704.562 2500.000 2845.093
641 1  2800.815 2500.000 2608.097
642 1  4226.848 2500.000 2500.000
643 1  2653.481 2500.413 2728.017
644 1  4089.311 5000.000 3283.618
645 1  2500.000 3090.642 2576.807
646 1  3599.270 2500.000 4198.270
647 1  3244.433 2500.000 2772.043
648 1  3714.889 3369.764 3147.026
649 1  2515.655 2607.303 2580.815
650 1  4621.296 2825.628 4999.998
651 1  2500.023 3440.765 4749.348
652 1  2500.000 2527.440 4328.791
653 1  2500.000 2735.117 2968.914
654 1  3006.070 3476.665 2732.492
655 1  4130.408 2500.000 2572.209
656 1  2809.918 4290.608 2595.520
657 1  2749.322 3834.551 3599.761
658 1  3426.216 2848.604 2500.000
659 1  2529.033 4917.800 2523.316
660 1  2500.000 2500.000 3720.818
661 1  4971.706 4086.228 2525.652
662 1  2839.225 4376.507 2500.000
663 1  4358.751 4796.593 2544.378
664 1  2504.661 2505.609 3378.581
665 1  4844.500 4964.853 2645.894
666 1  2500.000 3008.863 4580.064
667 1  2680.226 2767.659 3551.231
668 1  4167.878 2639.062 2500.000
669 1  2678.899 5000.000 2797.151
670 1  2944.989 2500.000 3018.167
671 1  2562.724 2515.798 2646.517
672 1  2500.898 2986.451 2500.000
673 1  3205.613 2500.000 3463.956
674 1  4426.875 2501.323 2621.739
675 1  5000.000 2500.000 4112.514
676 1  2590.957 2546.087 2914.916
677 1  2500.000 4425.564 2999.014
678 1  2500.012 3232.337 2635.127
679 1  3296.849 2500.000 2500.000
680 1  2506.988 2703.929 2500.000
681 1  2594.928 3126.331 2500.000
682 1  4397.093 2661.735 4148.130
683 1  2550.539 4989.197 4979.461
684 1  3894.422 2595.568 2500.000
685 1  2500.000 3215.221 2500.123
686 1  2500.000 2508.492 3104.237
687 1  2557.474 2950.144 3053.011
688 1  2500.000 2638.323 3075.465
689 1  2603.419 2500.000 3449.833
690 1  2644.425 5000.000 2500.000
691 1  5000.000 5000.000 3395.249
692 1  5000.000 3655.881 3946.805
693 1  2500.000 3065.781 3682.106
694 1  2500.000 3187.436 2956.627
695 1  2500.000 2500.000 3516.758
696 1  3029.969 4825.804 2924.913
697 1  5000.000 2500.000 2904.045
698 1  2614.532 2724.755 2697.394
699 1  3479.322 2500.000 2766.837
700 1  2500.000 3709.552 2500.000
701 2  310.594 419.795 746.502
702 2  0.234 2499.964 1051.390
703 2  40.705 593.641 780.063
704 2  863.702 406.223 478.786
705 2  217.915 685.748 204.114
706 2  384.083 454.066 21.724
707 2  481.860 345.673 510.525
708 2  583.761 2.218 385.103
709 2  323.445 527.234 241.367
710 2  419.349 329.979 769.434
711 2  531.624 614.900 29.047
712 2  559.727 958.353 359.436
713 2  73.673 493.905 216.385
714 2  527.236 137.311 41.647
715 2  716.676 98.359 91.886
716 2  936.263 667.495 434.182
717 2  514.427 821.290 601.950
718 2  2482.877 113.298 4.825
719 2  314.830 41.551 209.424
720 2  940.374 637.795 927.418
721 2  378.235 231.905 253.595
722 2  27.007 553.115 398.783
723 2  898.905 808.510 580.956
724 2  33.722 198.573 442.924
725 2  827.313 24.588 325.451
726 2  657.817 296.636 332.144
727 2  100.582 160.580 708.454
728 2  579.447 459.782 67.611
729 2  965.719 203.839 786.700
730 2  92.777 565.568 656.985
731 2  696.546 188.260 542.362
732 2  439.514 741.108 264.112
733 2  827.651 709.056 396.585
734 2  897.081 181.254 71.452
735 2  857.681 809.316 255.123
736 2  590.878 0.000 157.086
737 2  936.335 695.956 74.510
738 2  3312.341 67.167 289.399
739 2  4191.344 218.070 598.750
740 2  3256.804 813.245 734.521
741 2  3524.424 938.268 459.905
742 2  3874.024 67.193 603.962
743 2  3750.646 441.361 375.629
744 2  3286.496 708.867 800.612
745 2  3404.795 561.740 184.855
746 2  3960.815 440.327 203.554
747 2  4162.128 355.181 486.202
748 2  3488.913 835.780 834.232
749 2  3734.954 441.858 757.214
750 2  4211.523 316.777 357.608
751 2  4029.260 543.735 758.236
752 2  3949.462 926.512 404.983
753 2  3621.117 295.854 672.837
754 2  3758.769 603.208 689.155
755 2  3660.145 809.426 896.262
756 2  3363.821 818.971 862.728
757 2  3725.632 625.171 16.410
758 2  3977.362 288.666 114.384
759 2  3919.041 369.526 627.186
760 2  3267.298 881.747 924.482
761 2  3603.684 376.280 17.636
762 2  3716.460 950.824 558.736
763 2  4008.664 684.860 674.546
764 2  4041.742 87.770 247.429
765 2  3341.400 364.200 12.165
766 2  4057.468 623.134 270.966
767 2  4178.109 441.205 188.479
768 2  4223.150 214.180 796.285
769 2  3828.446 75.859 88.043
770 2  3393.038 419.608 512.502
771 2  3709.070 307.437 68.386
772 2  3605.815 890.358 566.763
773 2  3972.409 903.911 898.084
774 2  4202.276 32.181 813.886
775 2  537.194 3429.867 198.937
776 2  907.493 3238.788 440.479
777 2  888.313 3272.095 313.816
778 2  74.533 3430.568 176.122
779 2  577.596 3071.587 312.694
780 2  727.738 3535.436 731.687
781 2  779.723 3463.951 642.484
782 2  725.992 3616.501 301.610
783 2  120.794 3496.797 904.182
784 2  14.950 3358.193 907.544
785 2  215.510 3169.698 348.762
786 2  14.988 3519.438 642.687
787 2  476.728 3303.007 488.341
788 2  446.728 3072.833 458.901
789 2  695.143 3163.654 934.254
790 2  388.901 3358.447 294.254
791 2  970.308 3506.865 295.506
792 2  559.390 3162.357 940.209
793 2  155.432 3084.702 269.904
794 2  227.165 3387.277 68.100
795 2  828.107 3363.000 376.682
796 2  561.137 3462.126 54.915
797 2  160.778 3283.958 611.556
798 2  217.170 3087.327 522.899
799 2  538.356 3310.356 919.685
800 2  242.081 3562.756 435.332
801 2  16.308 3250.026 409.996
802 2  429.068 3154.869 646.912
803 2  785.082 3243.095 211.598
804 2  894.739 3221.903 815.240
805 2  229.469 3123.056 37.845
806 2  436.902 3703.162 966.943
807 2  311.832 3262.642 544.823
808 2  935.140 3671.407 285.510
809 2  460.981 3639.935 514.879
810 2  79.274 3559.155 169.739
811 2  944.359 3631.939 935.051
812 2  23.124 81.963 3765.455
813 2  627.320 556.204 3491.304
814 2  805.808 808.936 3610.292
815 2  684.823 866.881 3807.399
816 2  818.406 860.662 3756.284
817 2  808.735 371.017 3789.074
818 2  615.828 221.501 3873.438
819 2  24.322 275.713 3869.881
820 2  19.038 355.909 3753.690
821 2  911.249 124.604 3636.632
822 2  261.238 800.976 3657.838
823 2  851.320 399.191 3235.170
824 2  878.574 112.374 3767.309
825 2  746.448 570.956 3514.647
826 2  120.956 323.023 3278.420
827 2  160.232 629.723 3713.548
828 2  36.924 191.902 3697.406
829 2  864.279 13.631 3527.202
830 2  681.988 85.832 3303.170
831 2  474.569 305.788 3607.482
832 2  366.423 317.264 3530.375
833 2  441.053 144.967 3180.129
834 2  802.493 58.598 3666.114
835 2  562.963 123.253 3773.017
836 2  209.626 310.803 3375.951
837 2  742.414 375.199 3158.470
838 2  610.864 186.374 3299.274
839 2  230.630 341.206 3846.632
840 2  686.366 91.192 3743.265
841 2  855.739 616.566 3435.744
842 2  921.055 812.286 3650.510
843 2  98.596 826.112 3751.271
844 2  430.248 293.933 3766.679
845 2  362.762 495.892 3438.498
846 2  225.122 729.560 3750.148
847 2  111.969 758.409 3145.440
848 2  60.770 885.765 3850.838
849 2  3224.497 3576.805 670.582
850 2  3232.704 3056.927 503.325
851 2  3414.530 3130.401 46.610
852 2  3587.945 3503.724 200.879
853 2  3235.993 3383.559 0.000
854 2  3555.947 3602.910 840.895
855 2  3227.509 3274.900 314.658
856 2  3307.336 3130.418 367.525
857 2  3543.653 3460.823 557.057
858 2  3426.372 3269.138 399.457
859 2  3093.625 3536.737 404.255
860 2  3267.867 3218.872 523.210
861 2  3347.701 3465.438 897.616
862 2  3466.460 3577.586 79.871
863 2  3118.945 3234.081 959.064
864 2  3382.037 3197.572 726.336
865 2  3278.574 3432.064 782.508
866 2  3467.962 3036.065 280.875
867 2  3178.071 3563.482 549.923
868 2  2970.866 3690.992 503.961
869 2  3042.609 3485.992 185.160
870 2  3354.405 3298.765 247.832
871 2  3351.461 3540.769 505.645
872 2  3065.461 3425.595 911.631
873 2  3108.794 3134.956 782.016
874 2  3602.804 3229.008 647.892
875 2  3279.175 3542.540 167.354
876 2  3541.344 3153.932 427.242
877 2  3459.221 3328.254 844.981
878 2  3528.756 3371.275 662.653
879 2  3388.387 3412.770 74.582
880 2  3433.785 3552.082 389.696
881 2  3341.950 3123.020 168.767
882 2  3133.646 3381.944 787.024
883 2  3097.629 3036.880 113.223
884 2  3128.311 3470.082 42.999
885 2  3570.663 3308.462 931.854
886 2  3508.691 336.835 3561.853
887 2  3211.670 776.607 3485.108
888 2  3567.715 756.578 3591.071
889 2  3563.202 801.808 3804.795
890 2  3687.016 221.280 3210.145
891 2  3403.064 295.686 3201.077
892 2  3528.941 355.604 3117.068
893 2  3769.901 285.392 3652.974
894 2  3381.889 753.740 3317.081
895 2  3251.526 467.177 3517.156
896 2  3557.544 60.823 3240.505
897 2  3486.586 674.303 3505.381
898 2  3337.936 461.475 3326.631
899 2  3342.216 838.898 3646.468
900 2  3825.406 276.051 3491.516
901 2  3166.464 89.916 3152.675
902 2  3720.414 840.646 3202.667
903 2  3369.532 897.550 3369.751
904 2  3654.645 582.957 3167.645
905 2  3363.152 684.644 3521.731
906 2  3216.324 901.192 3212.921
907 2  3342.720 555.907 3575.983
908 2  3335.510 384.582 3445.139
909 2  3451.784 759.509 3104.915
910 2  3162.602 517.273 3261.582
911 2  3630.528 28.534 3566.742
912 2  3497.518 591.383 3222.789
913 2  3566.321 622.420 3587.466
914 2  3835.305 391.534 3717.971
915 2  3574.203 306.734 3405.982
916 2  3721.696 509.886 3819.471
917 2  3156.296 100.078 3747.815
918 2  3616.937 450.367 3147.577
919 2  3743.560 39.829 3449.131
920 2  3469.845 467.598 3138.434
921 2  3708.194 755.430 3693.044
922 2  3666.569 728.826 3203.405
923 2  916.578 3777.947 3122.929
924 2  893.454 3595.026 3366.027
925 2  693.660 3501.921 3314.646
926 2  326.940 3465.952 3625.220
927 2  974.672 3238.416 3455.538
928 2  277.210 3491.448 3438.447
929 2  711.575 3338.846 3261.330