LAMMPS (23 Jun 2022 - Update 1)
# Read restart
read_restart ${read_res}
read_restart ./pgnpmf/73/equpmf30.res
Reading restart file ...
  restart file = 23 Jun 2022, LAMMPS = 23 Jun 2022
  restoring atom style atomic from restart
  orthogonal box = (2201.9474 2201.9474 2201.9474) to (2798.0526 2798.0526 2798.0526)
  1 by 2 by 2 MPI processor grid
  restoring pair style table from restart
  996 atoms
  read_restart CPU = 0.004 seconds

# Settings

pair_style table spline 9941

pair_coeff 1 1 ./pgnpmf/N20.txt DE_GNP 75.6
pair_coeff 2 2 ./pgnpmf/N100.txt DE_GNP 115.92
WARNING: 3 of 9941 force values in table DE_GNP are inconsistent with -dE/dr.
WARNING:  Should only be flagged at inflection points (../pair_table.cpp:463)
pair_coeff 1 2 ./pgnpmf/mixed_potential.txt DE_GNP 95.66
WARNING: 1562 of 9941 force values in table DE_GNP are inconsistent with -dE/dr.
WARNING:  Should only be flagged at inflection points (../pair_table.cpp:463)

#Neigh_list Calc Frequency

neigh_modify delay 0 every 1 check yes

# Saving Frequency (50 frames)

variable ts_save equal ${steps_equ}
variable ts_save equal 5000

# Dump
#dump 1 all custom ${ts_save} ./pgnpmf/${folder}/equilibration/trajectory/trajectory_${usic}_${trial}.equ.custom type x y z ix iy iz
#dump_modify 1 first no sort id
#dump 2 all cfg 50000 ./equilibration/trajectory/ovito/dumpgen.tens_*.cfg mass type xs ys zs fx fy fz

# thermo_style
thermo_style custom step temp press pe density ke etotal lx ly lz xlo xhi ylo yhi zlo zhi vol dt time cpu tpcpu spcpu cpuremain

# run info
timestep ${ts}
timestep 0.5
thermo 200

# fix

fix 1 all momentum 1000 linear 1 1 1 angular
variable T equal ${temp}
variable T equal 300
fix 2 all nvt temp ${T} 370000 100.0
fix 2 all nvt temp 300 370000 100.0

run 100000
Generated 0 of 1 mixed pair_coeff terms from geometric mixing rule
Unused restart file global fix info:
  fix style: npt, fix ID: 5
Neighbor list info ...
  update every 1 steps, delay 0 steps, check yes
  max neighbors/atom: 2000, page size: 100000
  master list distance cutoff = 117.92
  ghost atom cutoff = 117.92
  binsize = 58.96, bins = 11 11 11
  1 neighbor lists, perpetual/occasional/extra = 1 0 0
  (1) pair table, perpetual
      attributes: half, newton on
      pair build: half/bin/atomonly/newton
      stencil: half/bin/3d
      bin: standard
Per MPI rank memory allocation (min/avg/max) = 3.086 | 3.089 | 3.092 Mbytes
   Step          Temp          Press          PotEng        Density         KinEng         TotEng           Lx             Ly             Lz            Xlo            Xhi            Ylo            Yhi            Zlo            Zhi           Volume           Dt            Time           CPU           T/CPU          S/CPU         CPULeft    
  21005000   306.20305     -3.3695879     -21531553       2.1967652      908.16945     -21530645       596.10527      596.10527      596.10527      2201.9474      2798.0526      2201.9474      2798.0526      2201.9474      2798.0526      2.1182094e+08  0.5            10505000       0              0              0              0            
  21005200   365.20169     -3.0145466     -21531565       2.1967652      1083.1539     -21530482       596.10527      596.10527      596.10527      2201.9474      2798.0526      2201.9474      2798.0526      2201.9474      2798.0526      2.1182094e+08  0.5            10505100       0.018774243    5326.2181      10651.916      9.3696496    
  21005400   512.9521      -2.2389871     -21531578       2.1967652      1521.3677     -21530057       596.10527      596.10527      596.10527      2201.9474      2798.0526      2201.9474      2798.0526      2201.9474      2798.0526      2.1182094e+08  0.5            10505200       0.037461008    5351.4412      10702.92       9.3283418    
  21005600   766.01236     -1.6889932     -21531588       2.1967652      2271.9206     -21529316       596.10527      596.10527      596.10527      2201.9474      2798.0526      2201.9474      2798.0526      2201.9474      2798.0526      2.1182094e+08  0.5            10505300       0.056010518    5390.9693      10781.941      9.2794491    
  21005800   1174.8185     -1.8056095     -21531593       2.1967652      3484.4012     -21528108       596.10527      596.10527      596.10527      2201.9474      2798.0526      2201.9474      2798.0526      2201.9474      2798.0526      2.1182094e+08  0.5            10505400       0.074576995    5386.0596      10772.117      9.2478198    
  21006000   1810.6137     -1.8272823     -21531589       2.1967652      5370.1099     -21526219       596.10527      596.10527      596.10527      2201.9474      2798.0526      2201.9474      2798.0526      2201.9474      2798.0526      2.1182094e+08  0.5            10505500       0.093389533    5315.5951      10631.176      9.245797     
  21006200   2750.8651     -1.2020598     -21531557       2.1967652      8158.8072     -21523398       596.10527      596.10527      596.10527      2201.9474      2798.0526      2201.9474      2798.0526      2201.9474      2798.0526      2.1182094e+08  0.5            10505600       0.11221888     5310.8575      10621.753      9.2395404    
  21006400   4031.4347     -0.61290139    -21531117       2.1967652      11956.856     -21519160       596.10527      596.10527      596.10527      2201.9474      2798.0526      2201.9474      2798.0526      2201.9474      2798.0526      2.1182094e+08  0.5            10505700       0.13103799     5313.7752      10627.537      9.2289698    
  21006600   5562.2917      2.4168317     -21523618       2.1967652      16497.234     -21507121       596.10527      596.10527      596.10527      2201.9474      2798.0526      2201.9474      2798.0526      2201.9474      2798.0526      2.1182094e+08  0.5            10505800       0.15021901     5213.4808      10426.926      9.2386069    
  21006800   7031.291       5.1053909     -21522692       2.1967652      20854.148     -21501838       596.10527      596.10527      596.10527      2201.9474      2798.0526      2201.9474      2798.0526      2201.9474      2798.0526      2.1182094e+08  0.5            10505900       0.16910246     5295.647       10591.259      9.2256049    
  21007000   7996.5259      7.2546571     -21521700       2.1967652      23716.944     -21497983       596.10527      596.10527      596.10527      2201.9474      2798.0526      2201.9474      2798.0526      2201.9474      2798.0526      2.1182094e+08  0.5            10506000       0.18798583     5295.6773      10591.366      9.2114153    
  21007200   8387.3733      9.6138867     -21521004       2.1967652      24876.161     -21496128       596.10527      596.10527      596.10527      2201.9474      2798.0526      2201.9474      2798.0526      2201.9474      2798.0526      2.1182094e+08  0.5            10506100       0.20681572     5310.6866      10621.432      9.193996     
  21007400   8838.4097      12.107403     -21520974       2.1967652      26213.892     -21494760       596.10527      596.10527      596.10527      2201.9474      2798.0526      2201.9474      2798.0526      2201.9474      2798.0526      2.1182094e+08  0.5            10506200       0.22593149     5231.284       10462.527      9.1879736    
  21007600   9797.5709      14.479903     -21520138       2.1967652      29058.674     -21491079       596.10527      596.10527      596.10527      2201.9474      2798.0526      2201.9474      2798.0526      2201.9474      2798.0526      2.1182094e+08  0.5            10506300       0.24484698     5286.6862      10573.379      9.1724261    
  21007800   10839.449      14.773174     -21519206       2.1967652      32148.788     -21487057       596.10527      596.10527      596.10527      2201.9474      2798.0526      2201.9474      2798.0526      2201.9474      2798.0526      2.1182094e+08  0.5            10506400       0.26372128     5298.2123      10596.463      9.1549696    
  21008000   11500.445      17.864248     -21520454       2.1967652      34109.24      -21486345       596.10527      596.10527      596.10527      2201.9474      2798.0526      2201.9474      2798.0526      2201.9474      2798.0526      2.1182094e+08  0.5            10506500       0.28295375     5199.5256      10398.998      9.1489134    
  21008200   11958.558      23.086053     -21519737       2.1967652      35467.96      -21484269       596.10527      596.10527      596.10527      2201.9474      2798.0526      2201.9474      2798.0526      2201.9474      2798.0526      2.1182094e+08  0.5            10506600       0.3019925      5252.4476      10504.9        9.1353414    
  21008400   12684.583      29.812223     -21509675       2.1967652      37621.28      -21472053       596.10527      596.10527      596.10527      2201.9474      2798.0526      2201.9474      2798.0526      2201.9474      2798.0526      2.1182094e+08  0.5            10506700       0.32085602     5301.2384      10602.519      9.1161464    
  21008600   13672.647      36.577691     -21508812       2.1967652      40551.786     -21468260       596.10527      596.10527      596.10527      2201.9474      2798.0526      2201.9474      2798.0526      2201.9474      2798.0526      2.1182094e+08  0.5            10506800       0.33994449     5238.778       10477.507      9.1030175    
  21008800   14498.226      38.941097     -21507865       2.1967652      43000.375     -21464865       596.10527      596.10527      596.10527      2201.9474      2798.0526      2201.9474      2798.0526      2201.9474      2798.0526      2.1182094e+08  0.5            10506900       0.35875641     5315.7709      10631.586      9.0822563    
  21009000   15045.502      41.492103     -21509115       2.1967652      44623.545     -21464491       596.10527      596.10527      596.10527      2201.9474      2798.0526      2201.9474      2798.0526      2201.9474      2798.0526      2.1182094e+08  0.5            10507000       0.37767931     5284.6025      10569.207      9.0643553    
  21009200   15651.961      47.418952     -21508040       2.1967652      46422.244     -21461617       596.10527      596.10527      596.10527      2201.9474      2798.0526      2201.9474      2798.0526      2201.9474      2798.0526      2.1182094e+08  0.5            10507100       0.39694227     5191.3023      10382.575      9.0541158    
  21009400   16533.109      52.087139     -21506918       2.1967652      49035.648     -21457882       596.10527      596.10527      596.10527      2201.9474      2798.0526      2201.9474      2798.0526      2201.9474      2798.0526      2.1182094e+08  0.5            10507200       0.41580586     5301.2167      10602.468      9.0343746    
  21009600   17438.83       57.410472     -21505015       2.1967652      51721.93      -21453293       596.10527      596.10527      596.10527      2201.9474      2798.0526      2201.9474      2798.0526      2201.9474      2798.0526      2.1182094e+08  0.5            10507300       0.43475689     5276.7711      10553.511      9.016524     
  21009800   18097.937      62.948223     -21503794       2.1967652      53676.781     -21450117       596.10527      596.10527      596.10527      2201.9474      2798.0526      2201.9474      2798.0526      2201.9474      2798.0526      2.1182094e+08  0.5            10507400       0.45395487     5208.8735      10417.769      9.0034824    
  21010000   18665.05       67.695973     -21504073       2.1967652      55358.783     -21448714       596.10527      596.10527      596.10527      2201.9474      2798.0526      2201.9474      2798.0526      2201.9474      2798.0526      2.1182094e+08  0.5            10507500       0.47259484     5364.8198      10729.595      8.9793442    
  21010200   19432.035      71.200743     -21503173       2.1967652      57633.588     -21445539       596.10527      596.10527      596.10527      2201.9474      2798.0526      2201.9474      2798.0526      2201.9474      2798.0526      2.1182094e+08  0.5            10507600       0.49159482     5263.1596      10526.329      8.9621927    
  21010400   20342.81       77.819277     -21499984       2.1967652      60334.862     -21439649       596.10527      596.10527      596.10527      2201.9474      2798.0526      2201.9474      2798.0526      2201.9474      2798.0526      2.1182094e+08  0.5            10507700       0.5101954      5376.179       10752.374      8.9379058    
  21010600   21109.459      83.122939     -21504937       2.1967652      62608.672     -21442329       596.10527      596.10527      596.10527      2201.9474      2798.0526      2201.9474      2798.0526      2201.9474      2798.0526      2.1182094e+08  0.5            10507800       0.52894755     5332.725       10665.441      8.9165807    
  21010800   21699.589      88.751754     -21505498       2.1967652      64358.942     -21441139       596.10527      596.10527      596.10527      2201.9474      2798.0526      2201.9474      2798.0526      2201.9474      2798.0526      2.1182094e+08  0.5            10507900       0.54792074     5270.5825      10541.184      8.8990248    
  21011000   22367.599      95.032554     -21506406       2.1967652      66340.197     -21440066       596.10527      596.10527      596.10527      2201.9474      2798.0526      2201.9474      2798.0526      2201.9474      2798.0526      2.1182094e+08  0.5            10508000       0.56649619     5383.4555      10766.887      8.8751424    
  21011200   23227.32       103.83343     -21505022       2.1967652      68890.048     -21436132       596.10527      596.10527      596.10527      2201.9474      2798.0526      2201.9474      2798.0526      2201.9474      2798.0526      2.1182094e+08  0.5            10508100       0.5851239      5368.353       10736.745      8.8523902    
  21011400   24076.318      110.53538     -21503627       2.1967652      71408.097     -21432219       596.10527      596.10527      596.10527      2201.9474      2798.0526      2201.9474      2798.0526      2201.9474      2798.0526      2.1182094e+08  0.5            10508200       0.60392198     5319.6953      10639.387      8.8323899    
  21011600   24734.698      115.99869     -21504480       2.1967652      73360.79      -21431119       596.10527      596.10527      596.10527      2201.9474      2798.0526      2201.9474      2798.0526      2201.9474      2798.0526      2.1182094e+08  0.5            10508300       0.62252631     5375.096       10750.222      8.8097194    
  21011800   25345.227      121.32086     -21501894       2.1967652      75171.561     -21426722       596.10527      596.10527      596.10527      2201.9474      2798.0526      2201.9474      2798.0526      2201.9474      2798.0526      2.1182094e+08  0.5            10508400       0.64117055     5363.5917      10727.147      8.7878365    
  21012000   26116.09       127.54458     -21492676       2.1967652      77457.867     -21415218       596.10527      596.10527      596.10527      2201.9474      2798.0526      2201.9474      2798.0526      2201.9474      2798.0526      2.1182094e+08  0.5            10508500       0.66002604     5303.4727      10606.972      8.7689458    
  21012200   26997.29       133.33008     -21491189       2.1967652      80071.424     -21411117       596.10527      596.10527      596.10527      2201.9474      2798.0526      2201.9474      2798.0526      2201.9474      2798.0526      2.1182094e+08  0.5            10508600       0.67861829     5378.6048      10757.213      8.7466619    
  21012400   27745.27       140.57549     -21488507       2.1967652      82289.864     -21406218       596.10527      596.10527      596.10527      2201.9474      2798.0526      2201.9474      2798.0526      2201.9474      2798.0526      2.1182094e+08  0.5            10508700       0.69729461     5354.3636      10708.715      8.7256315    
  21012600   28353.909      146.16868     -21487697       2.1967652      84095.027     -21403602       596.10527      596.10527      596.10527      2201.9474      2798.0526      2201.9474      2798.0526      2201.9474      2798.0526      2.1182094e+08  0.5            10508800       0.71606911     5326.3673      10652.723      8.705919     
  21012800   29045.271      151.74836     -21486123       2.1967652      86145.543     -21399977       596.10527      596.10527      596.10527      2201.9474      2798.0526      2201.9474      2798.0526      2201.9474      2798.0526      2.1182094e+08  0.5            10508900       0.73474696     5353.9442      10707.913      8.68511      
  21013000   29894.286      157.45057     -21484150       2.1967652      88663.643     -21395487       596.10527      596.10527      596.10527      2201.9474      2798.0526      2201.9474      2798.0526      2201.9474      2798.0526      2.1182094e+08  0.5            10509000       0.75343863     5349.969       10699.899      8.66457      
  21013200   30720.813      165.88332     -21475155       2.1967652      91115.043     -21384040       596.10527      596.10527      596.10527      2201.9474      2798.0526      2201.9474      2798.0526      2201.9474      2798.0526      2.1182094e+08  0.5            10509100       0.7723879      5277.2618      10554.54       8.6470004    
  21013400   31390.119      173.19607     -21470919       2.1967652      93100.141     -21377819       596.10527      596.10527      596.10527      2201.9474      2798.0526      2201.9474      2798.0526      2201.9474      2798.0526      2.1182094e+08  0.5            10509200       0.79106901     5352.9955      10705.975      8.6264424    
  21013600   32024.524      176.70637     -21474271       2.1967652      94981.727     -21379289       596.10527      596.10527      596.10527      2201.9474      2798.0526      2201.9474      2798.0526      2201.9474      2798.0526      2.1182094e+08  0.5            10509300       0.80990741     5308.2983      10616.63       8.6076435    
  21013800   32808.913      181.33108     -21470447       2.1967652      97308.153     -21373139       596.10527      596.10527      596.10527      2201.9474      2798.0526      2201.9474      2798.0526      2201.9474      2798.0526      2.1182094e+08  0.5            10509400       0.82883223     5284.0739      10568.165      8.5897374    
  21014000   33664.411      183.29201     -21471558       2.1967652      99845.479     -21371712       596.10527      596.10527      596.10527      2201.9474      2798.0526      2201.9474      2798.0526      2201.9474      2798.0526      2.1182094e+08  0.5            10509500       0.84831933     5131.5883      10263.13       8.5774741    
  21014200   34395.986      187.37253     -21471958       2.1967652      102015.26     -21369943       596.10527      596.10527      596.10527      2201.9474      2798.0526      2201.9474      2798.0526      2201.9474      2798.0526      2.1182094e+08  0.5            10509600       0.86719273     5298.4745      10596.937      8.5588369    
  21014400   35026.834      195.87597     -21480519       2.1967652      103886.3      -21376633       596.10527      596.10527      596.10527      2201.9474      2798.0526      2201.9474      2798.0526      2201.9474      2798.0526      2.1182094e+08  0.5            10509700       0.88580415     5373.0454      10746.17       8.537664     
  21014600   35741.898      199.86419     -21477223       2.1967652      106007.11     -21371215       596.10527      596.10527      596.10527      2201.9474      2798.0526      2201.9474      2798.0526      2201.9474      2798.0526      2.1182094e+08  0.5            10509800       0.90447011     5357.3503      10714.656      8.517113     
  21014800   36583.446      206.81515     -21472499       2.1967652      108503.06     -21363996       596.10527      596.10527      596.10527      2201.9474      2798.0526      2201.9474      2798.0526      2201.9474      2798.0526      2.1182094e+08  0.5            10509900       0.9230822      5372.848       10745.685      8.4961434    
  21015000   37374.724      208.7008      -21472704       2.1967652      110849.92     -21361854       596.10527      596.10527      596.10527      2201.9474      2798.0526      2201.9474      2798.0526      2201.9474      2798.0526      2.1182094e+08  0.5            10510000       0.94210586     5256.5988      10513.178      8.4789725    
  21015200   38031.594      214.03475     -21477458       2.1967652      112798.13     -21364660       596.10527      596.10527      596.10527      2201.9474      2798.0526      2201.9474      2798.0526      2201.9474      2798.0526      2.1182094e+08  0.5            10510100       0.96076805     5358.4417      10716.905      8.458545     
  21015400   38694.356      221.35675     -21475816       2.1967652      114763.82     -21361052       596.10527      596.10527      596.10527      2201.9474      2798.0526      2201.9474      2798.0526      2201.9474      2798.0526      2.1182094e+08  0.5            10510200       0.97948156     5343.7412      10687.501      8.4386282    
  21015600   39480.355      226.72202     -21482260       2.1967652      117095.02     -21365165       596.10527      596.10527      596.10527      2201.9474      2798.0526      2201.9474      2798.0526      2201.9474      2798.0526      2.1182094e+08  0.5            10510300       0.99839895     5286.1367      10572.26       8.4204769    
  21015800   40306.574      234.28591     -21475427       2.1967652      119545.51     -21355881       596.10527      596.10527      596.10527      2201.9474      2798.0526      2201.9474      2798.0526      2201.9474      2798.0526      2.1182094e+08  0.5            10510400       1.0170814      5352.6408      10705.318      8.4003549    
  21016000   41019.81       238.23591     -21474389       2.1967652      121660.9      -21352728       596.10527      596.10527      596.10527      2201.9474      2798.0526      2201.9474      2798.0526      2201.9474      2798.0526      2.1182094e+08  0.5            10510500       1.0358641      5324.036       10648.071      8.3810985    
  21016200   41664.561      242.67091     -21472532       2.1967652      123573.17     -21348959       596.10527      596.10527      596.10527      2201.9474      2798.0526      2201.9474      2798.0526      2201.9474      2798.0526      2.1182094e+08  0.5            10510600       1.054772       5288.7798      10577.499      8.3628524    
  21016400   42387.803      250.98289     -21470905       2.1967652      125718.24     -21345187       596.10527      596.10527      596.10527      2201.9474      2798.0526      2201.9474      2798.0526      2201.9474      2798.0526      2.1182094e+08  0.5            10510700       1.0732647      5407.574       10815.163      8.3413536    
  21016600   43219.181      259.11885     -21468794       2.1967652      128184.03     -21340610       596.10527      596.10527      596.10527      2201.9474      2798.0526      2201.9474      2798.0526      2201.9474      2798.0526      2.1182094e+08  0.5            10510800       1.0918819      5371.3747      10742.762      8.3209081    
  21016800   43995.585      262.66031     -21477703       2.1967652      130486.77     -21347217       596.10527      596.10527      596.10527      2201.9474      2798.0526      2201.9474      2798.0526      2201.9474      2798.0526      2.1182094e+08  0.5            10510900       1.110649       5328.4635      10656.904      8.3016462    
  21017000   44657.941      267.6543      -21470368       2.1967652      132451.26     -21337917       596.10527      596.10527      596.10527      2201.9474      2798.0526      2201.9474      2798.0526      2201.9474      2798.0526      2.1182094e+08  0.5            10511000       1.1292232      5383.814       10767.626      8.2809857    
  21017200   45349.173      275.52768     -21468594       2.1967652      134501.38     -21334093       596.10527      596.10527      596.10527      2201.9474      2798.0526      2201.9474      2798.0526      2201.9474      2798.0526      2.1182094e+08  0.5            10511100       1.1481949      5271.0206      10542.067      8.2632527    
  21017400   46144.349      282.26386     -21464057       2.1967652      136859.8      -21327197       596.10527      596.10527      596.10527      2201.9474      2798.0526      2201.9474      2798.0526      2201.9474      2798.0526      2.1182094e+08  0.5            10511200       1.1667691      5383.8059      10767.615      8.2426733    
  21017600   46944.16       289.71295     -21450847       2.1967652      139231.96     -21311616       596.10527      596.10527      596.10527      2201.9474      2798.0526      2201.9474      2798.0526      2201.9474      2798.0526      2.1182094e+08  0.5            10511300       1.1853856      5371.5862      10743.18       8.2224503    
  21017800   47669.754      300.28406     -21448746       2.1967652      141384.01     -21307362       596.10527      596.10527      596.10527      2201.9474      2798.0526      2201.9474      2798.0526      2201.9474      2798.0526      2.1182094e+08  0.5            10511400       1.2042441      5302.6211      10605.259      8.2039264    
  21018000   48350.729      309.33704     -21444309       2.1967652      143403.72     -21300906       596.10527      596.10527      596.10527      2201.9474      2798.0526      2201.9474      2798.0526      2201.9474      2798.0526      2.1182094e+08  0.5            10511500       1.2228589      5372.071       10744.107      8.1837619    
  21018200   49117.229      316.32719     -21436278       2.1967652      145677.08     -21290601       596.10527      596.10527      596.10527      2201.9474      2798.0526      2201.9474      2798.0526      2201.9474      2798.0526      2.1182094e+08  0.5            10511600       1.2415856      5339.9999      10679.995      8.1643789    
  21018400   49919.307      322.99108     -21425588       2.1967652      148055.97     -21277532       596.10527      596.10527      596.10527      2201.9474      2798.0526      2201.9474      2798.0526      2201.9474      2798.0526      2.1182094e+08  0.5            10511700       1.2604626      5297.4497      10594.889      8.1459878    
  21018600   50683.751      333.26757     -21420417       2.1967652      150323.24     -21270094       596.10527      596.10527      596.10527      2201.9474      2798.0526      2201.9474      2798.0526      2201.9474      2798.0526      2.1182094e+08  0.5            10511800       1.2789903      5397.3237      10794.664      8.1253629    
  21018800   51424.843      345.56075     -21420206       2.1967652      152521.25     -21267685       596.10527      596.10527      596.10527      2201.9474      2798.0526      2201.9474      2798.0526      2201.9474      2798.0526      2.1182094e+08  0.5            10511900       1.2977082      5342.4537      10684.911      8.1059873    
  21019000   52227.495      355.10437     -21412179       2.1967652      154901.84     -21257277       596.10527      596.10527      596.10527      2201.9474      2798.0526      2201.9474      2798.0526      2201.9474      2798.0526      2.1182094e+08  0.5            10512000       1.3167491      5251.8584      10503.694      8.0886147    
  21019200   53119.744      361.26062     -21405786       2.1967652      157548.17     -21248238       596.10527      596.10527      596.10527      2201.9474      2798.0526      2201.9474      2798.0526      2201.9474      2798.0526      2.1182094e+08  0.5            10512100       1.3356312      5296.048       10592.14       8.0702343    
  21019400   54202.422      365.48932     -21408815       2.1967652      160759.29     -21248055       596.10527      596.10527      596.10527      2201.9474      2798.0526      2201.9474      2798.0526      2201.9474      2798.0526      2.1182094e+08  0.5            10512200       1.3544601      5310.976       10621.92       8.051525     
  21019600   55916.841      375.98849     -21402737       2.1967652      165844.09     -21236893       596.10527      596.10527      596.10527      2201.9474      2798.0526      2201.9474      2798.0526      2201.9474      2798.0526      2.1182094e+08  0.5            10512300       1.3732972      5308.6626      10617.376      8.0328594    
  21019800   57285.733      382.89489     -21406063       2.1967652      169904.1      -21236159       596.10527      596.10527      596.10527      2201.9474      2798.0526      2201.9474      2798.0526      2201.9474      2798.0526      2.1182094e+08  0.5            10512400       1.3920121      5343.3463      10686.625      8.0134868    
  21020000   54999.307      385.15704     -21408954       2.1967652      163122.77     -21245831       596.10527      596.10527      596.10527      2201.9474      2798.0526      2201.9474      2798.0526      2201.9474      2798.0526      2.1182094e+08  0.5            10512500       1.4112106      5208.7335      10417.522      7.9968715    
  21020200   52936.265      388.77854     -21413557       2.1967652      157003.98     -21256553       596.10527      596.10527      596.10527      2201.9474      2798.0526      2201.9474      2798.0526      2201.9474      2798.0526      2.1182094e+08  0.5            10512600       1.4299916      5324.5488      10649.054      7.9778587    
  21020400   56062.077      393.48309     -21406730       2.1967652      166274.85     -21240455       596.10527      596.10527      596.10527      2201.9474      2798.0526      2201.9474      2798.0526      2201.9474      2798.0526      2.1182094e+08  0.5            10512700       1.4486545      5358.1934      10716.363      7.9582045    
  21020600   57558.683      399.82061     -21414337       2.1967652      170713.64     -21243623       596.10527      596.10527      596.10527      2201.9474      2798.0526      2201.9474      2798.0526      2201.9474      2798.0526      2.1182094e+08  0.5            10512800       1.4675592      5289.6798      10579.391      7.939883     
  21020800   58908.32       407.97493     -21403786       2.1967652      174716.54     -21229070       596.10527      596.10527      596.10527      2201.9474      2798.0526      2201.9474      2798.0526      2201.9474      2798.0526      2.1182094e+08  0.5            10512900       1.4860526      5407.3614      10814.762      7.9193538    
  21021000   60050.868      413.31652     -21414392       2.1967652      178105.23     -21236287       596.10527      596.10527      596.10527      2201.9474      2798.0526      2201.9474      2798.0526      2201.9474      2798.0526      2.1182094e+08  0.5            10513000       1.5048791      5311.6333      10623.197      7.9006269    
  21021200   60805.256      420.02227     -21404469       2.1967652      180342.67     -21224126       596.10527      596.10527      596.10527      2201.9474      2798.0526      2201.9474      2798.0526      2201.9474      2798.0526      2.1182094e+08  0.5            10513100       1.5235062      5368.5571      10737.173      7.8808631    
  21021400   62267.467      428.09972     -21398788       2.1967652      184679.45     -21214108       596.10527      596.10527      596.10527      2201.9474      2798.0526      2201.9474      2798.0526      2201.9474      2798.0526      2.1182094e+08  0.5            10513200       1.5422077      5347.1452      10694.282      7.8615082    
  21021600   63211.048      438.03722     -21394085       2.1967652      187478.03     -21206607       596.10527      596.10527      596.10527      2201.9474      2798.0526      2201.9474      2798.0526      2201.9474      2798.0526      2.1182094e+08  0.5            10513300       1.5610633      5303.48        10606.934      7.8429428    
  21021800   61490.358      444.12018     -21387734       2.1967652      182374.62     -21205359       596.10527      596.10527      596.10527      2201.9474      2798.0526      2201.9474      2798.0526      2201.9474      2798.0526      2.1182094e+08  0.5            10513400       1.5796104      5391.6544      10783.313      7.8228427    
  21022000   60147.286      450.65796     -21391450       2.1967652      178391.2      -21213059       596.10527      596.10527      596.10527      2201.9474      2798.0526      2201.9474      2798.0526      2201.9474      2798.0526      2.1182094e+08  0.5            10513500       1.5985176      5289.012       10578.025      7.804537     
  21022200   63837.297      460.95195     -21388219       2.1967652      189335.42     -21198883       596.10527      596.10527      596.10527      2201.9474      2798.0526      2201.9474      2798.0526      2201.9474      2798.0526      2.1182094e+08  0.5            10513600       1.6172926      5326.2229      10652.447      7.7855813    
  21022400   64812.088      469.52557     -21381161       2.1967652      192226.56     -21188935       596.10527      596.10527      596.10527      2201.9474      2798.0526      2201.9474      2798.0526      2201.9474      2798.0526      2.1182094e+08  0.5            10513700       1.6359488      5360.1693      10720.365      7.7660649    
  21022600   64913.25       480.86839     -21370519       2.1967652      192526.6      -21177993       596.10527      596.10527      596.10527      2201.9474      2798.0526      2201.9474      2798.0526      2201.9474      2798.0526      2.1182094e+08  0.5            10513800       1.6549068      5274.7888      10549.551      7.7479824    
  21022800   66498.882      491.21394     -21365957       2.1967652      197229.43     -21168728       596.10527      596.10527      596.10527      2201.9474      2798.0526      2201.9474      2798.0526      2201.9474      2798.0526      2.1182094e+08  0.5            10513900       1.6736092      5346.9073      10693.812      7.7286993    
  21023000   68489.215      501.41916     -21356874       2.1967652      203132.57     -21153742       596.10527      596.10527      596.10527      2201.9474      2798.0526      2201.9474      2798.0526      2201.9474      2798.0526      2.1182094e+08  0.5            10514000       1.6926463      5252.9001      10505.808      7.7109538    
  21023200   67800.832      510.71344     -21353065       2.1967652      201090.89     -21151974       596.10527      596.10527      596.10527      2201.9474      2798.0526      2201.9474      2798.0526      2201.9474      2798.0526      2.1182094e+08  0.5            10514100       1.7114927      5306.0731      10612.175      7.6923222    
  21023400   65113.044      525.0972      -21347364       2.1967652      193119.17     -21154245       596.10527      596.10527      596.10527      2201.9474      2798.0526      2201.9474      2798.0526      2201.9474      2798.0526      2.1182094e+08  0.5            10514200       1.730237       5334.9395      10669.859      7.673234     
  21023600   66634.909      539.50741     -21343571       2.1967652      197632.88     -21145938       596.10527      596.10527      596.10527      2201.9474      2798.0526      2201.9474      2798.0526      2201.9474      2798.0526      2.1182094e+08  0.5            10514300       1.749345       5233.3926      10466.779      7.655745     
  21023800   69802.426      550.94467     -21330815       2.1967652      207027.43     -21123787       596.10527      596.10527      596.10527      2201.9474      2798.0526      2201.9474      2798.0526      2201.9474      2798.0526      2.1182094e+08  0.5            10514400       1.7680044      5359.2418      10718.469      7.6362834    
  21024000   70835.807      562.62354     -21328011       2.1967652      210092.34     -21117919       596.10527      596.10527      596.10527      2201.9474      2798.0526      2201.9474      2798.0526      2201.9474      2798.0526      2.1182094e+08  0.5            10514500       1.7869869      5268.0031      10536.024      7.6182163    
  21024200   71412.379      574.80058     -21329823       2.1967652      211802.4      -21118021       596.10527      596.10527      596.10527      2201.9474      2798.0526      2201.9474      2798.0526      2201.9474      2798.0526      2.1182094e+08  0.5            10514600       1.8057644      5325.5291      10651.063      7.5992671    
  21024400   72693.009      586.35672     -21324873       2.1967652      215600.63     -21109273       596.10527      596.10527      596.10527      2201.9474      2798.0526      2201.9474      2798.0526      2201.9474      2798.0526      2.1182094e+08  0.5            10514700       1.8245026      5336.7161      10673.433      7.5801583    
  21024600   74828.426      598.93512     -21315582       2.1967652      221934.08     -21093648       596.10527      596.10527      596.10527      2201.9474      2798.0526      2201.9474      2798.0526      2201.9474      2798.0526      2.1182094e+08  0.5            10514800       1.8436086      5233.9371      10467.864      7.5625663    
  21024800   75534.873      616.39571     -21310338       2.1967652      224029.33     -21086309       596.10527      596.10527      596.10527      2201.9474      2798.0526      2201.9474      2798.0526      2201.9474      2798.0526      2.1182094e+08  0.5            10514900       1.8623363      5339.7168      10679.422      7.5434105    
  21025000   72896.089      626.6626      -21307794       2.1967652      216202.95     -21091591       596.10527      596.10527      596.10527      2201.9474      2798.0526      2201.9474      2798.0526      2201.9474      2798.0526      2.1182094e+08  0.5            10515000       1.8810921      5331.6699      10663.336      7.5243767    
  21025200   71154.364      635.3716      -21308990       2.1967652      211037.16     -21097953       596.10527      596.10527      596.10527      2201.9474      2798.0526      2201.9474      2798.0526      2201.9474      2798.0526      2.1182094e+08  0.5            10515100       1.9000199      5283.2049      10566.439      7.5060274    
  21025400   75206.673      648.64767     -21307821       2.1967652      223055.92     -21084766       596.10527      596.10527      596.10527      2201.9474      2798.0526      2201.9474      2798.0526      2201.9474      2798.0526      2.1182094e+08  0.5            10515200       1.9187478      5339.6563      10679.28       7.4868868    
  21025600   76619.587      661.37516     -21310632       2.1967652      227246.49     -21083385       596.10527      596.10527      596.10527      2201.9474      2798.0526      2201.9474      2798.0526      2201.9474      2798.0526      2.1182094e+08  0.5            10515300       1.9375956      5305.6613      10611.384      7.4682157    
  21025800   77086.597      673.68619     -21307992       2.1967652      228631.6      -21079361       596.10527      596.10527      596.10527      2201.9474      2798.0526      2201.9474      2798.0526      2201.9474      2798.0526      2.1182094e+08  0.5            10515400       1.9565146      5285.6735      10571.299      7.4498136    
  21026000   78517.776      685.27649     -21299463       2.1967652      232876.34     -21066586       596.10527      596.10527      596.10527      2201.9474      2798.0526      2201.9474      2798.0526      2201.9474      2798.0526      2.1182094e+08  0.5            10515500       1.9752528      5336.7158      10673.4        7.4307209    
  21026200   81244.474      696.75578     -21290956       2.1967652      240963.47     -21049992       596.10527      596.10527      596.10527      2201.9474      2798.0526      2201.9474      2798.0526      2201.9474      2798.0526      2.1182094e+08  0.5            10515600       1.9940407      5322.5506      10645.148      7.4118191    
  21026400   81492.71       711.54129     -21286166       2.1967652      241699.72     -21044466       596.10527      596.10527      596.10527      2201.9474      2798.0526      2201.9474      2798.0526      2201.9474      2798.0526      2.1182094e+08  0.5            10515700       2.0130589      5258.122       10516.201      7.393766     
  21026600   76547.255      719.86462     -21279655       2.1967652      227031.96     -21052623       596.10527      596.10527      596.10527      2201.9474      2798.0526      2201.9474      2798.0526      2201.9474      2798.0526      2.1182094e+08  0.5            10515800       2.0317518      5349.6279      10699.27       7.3745141    
  21026800   76494.356      733.97682     -21273196       2.1967652      226875.07     -21046321       596.10527      596.10527      596.10527      2201.9474      2798.0526      2201.9474      2798.0526      2201.9474      2798.0526      2.1182094e+08  0.5            10515900       2.0507365      5267.3934      10534.801      7.356319     
  21027000   80645.16       747.17403     -21269407       2.1967652      239185.96     -21030221       596.10527      596.10527      596.10527      2201.9474      2798.0526      2201.9474      2798.0526      2201.9474      2798.0526      2.1182094e+08  0.5            10516000       2.0699496      5204.7868      10409.585      7.3389196    
  21027200   82243.776      761.84584     -21265092       2.1967652      243927.31     -21021164       596.10527      596.10527      596.10527      2201.9474      2798.0526      2201.9474      2798.0526      2201.9474      2798.0526      2.1182094e+08  0.5            10516100       2.088712       5329.8097      10659.621      7.3199078    
  21027400   83662.978      775.35265     -21261927       2.1967652      248136.53     -21013791       596.10527      596.10527      596.10527      2201.9474      2798.0526      2201.9474      2798.0526      2201.9474      2798.0526      2.1182094e+08  0.5            10516200       2.1074508      5336.515       10673.038      7.3008187    
  21027600   84651.544      788.03374     -21265742       2.1967652      251068.52     -21014674       596.10527      596.10527      596.10527      2201.9474      2798.0526      2201.9474      2798.0526      2201.9474      2798.0526      2.1182094e+08  0.5            10516300       2.126343       5293.1839      10586.373      7.2822616    
  21027800   85956.969      795.42296     -21261968       2.1967652      254940.29     -21007028       596.10527      596.10527      596.10527      2201.9474      2798.0526      2201.9474      2798.0526      2201.9474      2798.0526      2.1182094e+08  0.5            10516400       2.1451934      5304.9531      10609.917      7.263556     
  21028000   88020.549      803.83187     -21245896       2.1967652      261060.68     -20984836       596.10527      596.10527      596.10527      2201.9474      2798.0526      2201.9474      2798.0526      2201.9474      2798.0526      2.1182094e+08  0.5            10516500       2.163977       5323.7741      10647.507      7.2446257    
  21028200   86734.727      811.65681     -21250551       2.1967652      257247.05     -20993304       596.10527      596.10527      596.10527      2201.9474      2798.0526      2201.9474      2798.0526      2201.9474      2798.0526      2.1182094e+08  0.5            10516600       2.1829866      5260.5177      10521.054      7.226445     
  21028400   82797.519      825.11659     -21249757       2.1967652      245569.66     -21004187       596.10527      596.10527      596.10527      2201.9474      2798.0526      2201.9474      2798.0526      2201.9474      2798.0526      2.1182094e+08  0.5            10516700       2.2017293      5335.4092      10670.784      7.207377     
  21028600   85223.905      839.07692     -21246078       2.1967652      252766.09     -20993312       596.10527      596.10527      596.10527      2201.9474      2798.0526      2201.9474      2798.0526      2201.9474      2798.0526      2.1182094e+08  0.5            10516800       2.2204893      5330.487       10660.982      7.1883703    
  21028800   88924.692      851.50761     -21245421       2.1967652      263742.28     -20981678       596.10527      596.10527      596.10527      2201.9474      2798.0526      2201.9474      2798.0526      2201.9474      2798.0526      2.1182094e+08  0.5            10516900       2.2394564      5272.2728      10544.563      7.170031     
  21029000   88911.452      860.47222     -21234435       2.1967652      263703.01     -20970732       596.10527      596.10527      596.10527      2201.9474      2798.0526      2201.9474      2798.0526      2201.9474      2798.0526      2.1182094e+08  0.5            10517000       2.258191       5337.7088      10675.42       7.1509449    
  21029200   89325.063      869.63783     -21230409       2.1967652      264929.74     -20965480       596.10527      596.10527      596.10527      2201.9474      2798.0526      2201.9474      2798.0526      2201.9474      2798.0526      2.1182094e+08  0.5            10517100       2.2775159      5174.697       10349.335      7.1337136    
  21029400   92358.117      885.57566     -21228323       2.1967652      273925.49     -20954397       596.10527      596.10527      596.10527      2201.9474      2798.0526      2201.9474      2798.0526      2201.9474      2798.0526      2.1182094e+08  0.5            10517200       2.2964952      5268.9054      10537.848      7.1153766    
  21029600   94205.371      893.27285     -21226992       2.1967652      279404.27     -20947588       596.10527      596.10527      596.10527      2201.9474      2798.0526      2201.9474      2798.0526      2201.9474      2798.0526      2.1182094e+08  0.5            10517300       2.3156427      5222.5891      10445.216      7.0975454    
  21029800   89688.455      900.91156     -21219153       2.1967652      266007.53     -20953146       596.10527      596.10527      596.10527      2201.9474      2798.0526      2201.9474      2798.0526      2201.9474      2798.0526      2.1182094e+08  0.5            10517400       2.334997       5166.7881      10333.555      7.0803201    
  21030000   86191.61       903.51798     -21202359       2.1967652      255636.21     -20946722       596.10527      596.10527      596.10527      2201.9474      2798.0526      2201.9474      2798.0526      2201.9474      2798.0526      2.1182094e+08  0.5            10517500       2.3540632      5244.8946      10489.768      7.0621961    
  21030200   91139.373      919.03806     -21208486       2.1967652      270310.81     -20938176       596.10527      596.10527      596.10527      2201.9474      2798.0526      2201.9474      2798.0526      2201.9474      2798.0526      2.1182094e+08  0.5            10517600       2.373173       5232.941       10465.88       7.0441865    
  21030400   93632.446      928.59307     -21206157       2.1967652      277705.03     -20928452       596.10527      596.10527      596.10527      2201.9474      2798.0526      2201.9474      2798.0526      2201.9474      2798.0526      2.1182094e+08  0.5            10517700       2.3924843      5178.3003      10356.594      7.0267518    
  21030600   95871.011      938.81995     -21189023       2.1967652      284344.41     -20904679       596.10527      596.10527      596.10527      2201.9474      2798.0526      2201.9474      2798.0526      2201.9474      2798.0526      2.1182094e+08  0.5            10517800       2.4116179      5226.4367      10452.895      7.0087704    
  21030800   96691.668      946.07893     -21194783       2.1967652      286778.4      -20908005       596.10527      596.10527      596.10527      2201.9474      2798.0526      2201.9474      2798.0526      2201.9474      2798.0526      2.1182094e+08  0.5            10517900       2.4307308      5232.0462      10464.124      6.9907122    
  21031000   96201.716      956.57087     -21191640       2.1967652      285325.25     -20906314       596.10527      596.10527      596.10527      2201.9474      2798.0526      2201.9474      2798.0526      2201.9474      2798.0526      2.1182094e+08  0.5            10518000       2.4501499      5149.5592      10299.096      6.9735097    
  21031200   96745.794      964.92613     -21187339       2.1967652      286938.93     -20900400       596.10527      596.10527      596.10527      2201.9474      2798.0526      2201.9474      2798.0526      2201.9474      2798.0526      2.1182094e+08  0.5            10518100       2.4693512      5207.9875      10415.99       6.9556593    
  21031400   99802.585      977.03407     -21187172       2.1967652      296005.09     -20891167       596.10527      596.10527      596.10527      2201.9474      2798.0526      2201.9474      2798.0526      2201.9474      2798.0526      2.1182094e+08  0.5            10518200       2.4885145      5218.3166      10436.609      6.9376825    
  21031600   100500.64      984.35788     -21186259       2.1967652      298075.44     -20888183       596.10527      596.10527      596.10527      2201.9474      2798.0526      2201.9474      2798.0526      2201.9474      2798.0526      2.1182094e+08  0.5            10518300       2.5078535      5170.8816      10341.767      6.9201731    
  21031800   97079.99       992.84121     -21186063       2.1967652      287930.13     -20898133       596.10527      596.10527      596.10527      2201.9474      2798.0526      2201.9474      2798.0526      2201.9474      2798.0526      2.1182094e+08  0.5            10518400       2.5270301      5214.6841      10429.374      6.9021926    
  21032000   94599.067      1000.8552     -21179474       2.1967652      280571.94     -20898902       596.10527      596.10527      596.10527      2201.9474      2798.0526      2201.9474      2798.0526      2201.9474      2798.0526      2.1182094e+08  0.5            10518500       2.5463839      5166.9586      10333.909      6.8846733    
  21032200   100962.24      1016.9007     -21176678       2.1967652      299444.5      -20877234       596.10527      596.10527      596.10527      2201.9474      2798.0526      2201.9474      2798.0526      2201.9474      2798.0526      2.1182094e+08  0.5            10518600       2.5654142      5254.792       10509.567      6.8662612    
  21032400   102504.62      1029.3364     -21170687       2.1967652      304019.06     -20866668       596.10527      596.10527      596.10527      2201.9474      2798.0526      2201.9474      2798.0526      2201.9474      2798.0526      2.1182094e+08  0.5            10518700       2.5844707      5247.5415      10495.116      6.8479094    
  21032600   101841.02      1037.4184     -21168436       2.1967652      302050.9      -20866385       596.10527      596.10527      596.10527      2201.9474      2798.0526      2201.9474      2798.0526      2201.9474      2798.0526      2.1182094e+08  0.5            10518800       2.603939       5136.549       10273.052      6.8306284    
  21032800   102467.24      1047.2953     -21166440       2.1967652      303908.21     -20862532       596.10527      596.10527      596.10527      2201.9474      2798.0526      2201.9474      2798.0526      2201.9474      2798.0526      2.1182094e+08  0.5            10518900       2.6230901      5221.6322      10443.31       6.8124912    
  21033000   106740.82      1063.4844     -21165093       2.1967652      316583.25     -20848510       596.10527      596.10527      596.10527      2201.9474      2798.0526      2201.9474      2798.0526      2201.9474      2798.0526      2.1182094e+08  0.5            10519000       2.6422036      5231.9203      10463.834      6.7942431    
  21033200   106993.55      1073.427      -21181129       2.1967652      317332.82     -20863796       596.10527      596.10527      596.10527      2201.9474      2798.0526      2201.9474      2798.0526      2201.9474      2798.0526      2.1182094e+08  0.5            10519100       2.6615422      5170.9862      10341.958      6.7765562    
  21033400   100709.7       1083.9901     -21178373       2.1967652      298695.5      -20879677       596.10527      596.10527      596.10527      2201.9474      2798.0526      2201.9474      2798.0526      2201.9474      2798.0526      2.1182094e+08  0.5            10519200       2.6810627      5122.8217      10245.674      6.7593041    
  21033600   98807.683      1095.0183     -21176884       2.1967652      293054.3      -20883829       596.10527      596.10527      596.10527      2201.9474      2798.0526      2201.9474      2798.0526      2201.9474      2798.0526      2.1182094e+08  0.5            10519300       2.7008435      5055.4011      10110.793      6.7426705    
  21033800   105819.95      1114.8847     -21170350       2.1967652      313852.04     -20856498       596.10527      596.10527      596.10527      2201.9474      2798.0526      2201.9474      2798.0526      2201.9474      2798.0526      2.1182094e+08  0.5            10519400       2.7203154      5135.6154      10271.227      6.7252295    
  21034000   107568.67      1126.8772     -21165291       2.1967652      319038.56     -20846253       596.10527      596.10527      596.10527      2201.9474      2798.0526      2201.9474      2798.0526      2201.9474      2798.0526      2.1182094e+08  0.5            10519500       2.7399755      5086.4715      10172.94       6.7082208    
  21034200   109187.01      1139.2377     -21150612       2.1967652      323838.41     -20826774       596.10527      596.10527      596.10527      2201.9474      2798.0526      2201.9474      2798.0526      2201.9474      2798.0526      2.1182094e+08  0.5            10519600       2.7597745      5050.7476      10101.501      6.6915129    
  21034400   109791.59      1151.0769     -21145205       2.1967652      325631.54     -20819574       596.10527      596.10527      596.10527      2201.9474      2798.0526      2201.9474      2798.0526      2201.9474      2798.0526      2.1182094e+08  0.5            10519700       2.7792809      5126.5121      10253.038      6.6740603    
  21034600   109772.62      1161.6252     -21143254       2.1967652      325575.26     -20817679       596.10527      596.10527      596.10527      2201.9474      2798.0526      2201.9474      2798.0526      2201.9474      2798.0526      2.1182094e+08  0.5            10519800       2.7988026      5122.4968      10244.971      6.6566166    
  21034800   111237.11      1173.5555     -21142994       2.1967652      329918.82     -20813076       596.10527      596.10527      596.10527      2201.9474      2798.0526      2201.9474      2798.0526      2201.9474      2798.0526      2.1182094e+08  0.5            10519900       2.8185814      5055.9192      10111.854      6.6397503    
  21035000   113991.77      1189.4587     -21140153       2.1967652      338088.88     -20802064       596.10527      596.10527      596.10527      2201.9474      2798.0526      2201.9474      2798.0526      2201.9474      2798.0526      2.1182094e+08  0.5            10520000       2.8387494      4958.3622      9916.6968      6.6237537    
  21035200   113279.38      1199.1079     -21135532       2.1967652      335975.99     -20799556       596.10527      596.10527      596.10527      2201.9474      2798.0526      2201.9474      2798.0526      2201.9474      2798.0526      2.1182094e+08  0.5            10520100       2.8587617      4996.9224      9993.8623      6.6073416    
  21035400   108207.81      1206.2491     -21144518       2.1967652      320934.2      -20823584       596.10527      596.10527      596.10527      2201.9474      2798.0526      2201.9474      2798.0526      2201.9474      2798.0526      2.1182094e+08  0.5            10520200       2.8785614      5050.5846      10101.194      6.5903952    
  21035600   108950.94      1217.7613     -21142992       2.1967652      323138.23     -20819854       596.10527      596.10527      596.10527      2201.9474      2798.0526      2201.9474      2798.0526      2201.9474      2798.0526      2.1182094e+08  0.5            10520300       2.8981832      5096.3737      10192.722      6.5730084    
  21035800   115566.53      1232.7568     -21138985       2.1967652      342759.47     -20796226       596.10527      596.10527      596.10527      2201.9474      2798.0526      2201.9474      2798.0526      2201.9474      2798.0526      2.1182094e+08  0.5            10520400       2.9178921      5073.846       10147.691      6.5557882    
  21036000   115568.24      1240.7785     -21144767       2.1967652      342764.55     -20802002       596.10527      596.10527      596.10527      2201.9474      2798.0526      2201.9474      2798.0526      2201.9474      2798.0526      2.1182094e+08  0.5            10520500       2.9376676      5056.7665      10113.548      6.538684     
  21036200   114217.29      1247.1829     -21157667       2.1967652      338757.74     -20818910       596.10527      596.10527      596.10527      2201.9474      2798.0526      2201.9474      2798.0526      2201.9474      2798.0526      2.1182094e+08  0.5            10520600       2.9571683      5128.0079      10256.028      6.5209398    
  21036400   115941.1       1250.8112     -21168855       2.1967652      343870.4      -20824985       596.10527      596.10527      596.10527      2201.9474      2798.0526      2201.9474      2798.0526      2201.9474      2798.0526      2.1182094e+08  0.5            10520700       2.9768258      5087.134       10174.215      6.5035158    
  21036600   121573.26      1262.0498     -21165719       2.1967652      360574.87     -20805144       596.10527      596.10527      596.10527      2201.9474      2798.0526      2201.9474      2798.0526      2201.9474      2798.0526      2.1182094e+08  0.5            10520800       2.9966978      5032.1879      10064.418      6.4865276    
  21036800   119624.43      1266.3264     -21169244       2.1967652      354794.8      -20814449       596.10527      596.10527      596.10527      2201.9474      2798.0526      2201.9474      2798.0526      2201.9474      2798.0526      2.1182094e+08  0.5            10520900       3.0162179      5122.9319      10245.838      6.4687486    
  21037000   113336.13      1265.6936     -21176989       2.1967652      336144.32     -20840845       596.10527      596.10527      596.10527      2201.9474      2798.0526      2201.9474      2798.0526      2201.9474      2798.0526      2.1182094e+08  0.5            10521000       3.0362776      4985.1249      9970.2652      6.4520944    
  21037200   116011.63      1274.8965     -21180030       2.1967652      344079.59     -20835951       596.10527      596.10527      596.10527      2201.9474      2798.0526      2201.9474      2798.0526      2201.9474      2798.0526      2.1182094e+08  0.5            10521100       3.0560289      5062.9494      10125.919      6.4347485    
  21037400   121478.27      1287.3048     -21176663       2.1967652      360293.12     -20816370       596.10527      596.10527      596.10527      2201.9474      2798.0526      2201.9474      2798.0526      2201.9474      2798.0526      2.1182094e+08  0.5            10521200       3.0756845      5087.6128      10175.219      6.4171732    
  21037600   120501.34      1293.641      -21166554       2.1967652      357395.66     -20809158       596.10527      596.10527      596.10527      2201.9474      2798.0526      2201.9474      2798.0526      2201.9474      2798.0526      2.1182094e+08  0.5            10521300       3.0956284      5014.0652      10028.102      6.4001685    
  21037800   120009.36      1304.0135     -21168113       2.1967652      355936.47     -20812177       596.10527      596.10527      596.10527      2201.9474      2798.0526      2201.9474      2798.0526      2201.9474      2798.0526      2.1182094e+08  0.5            10521400       3.1152347      5100.4207      10200.855      6.3824361    
  21038000   122828.99      1311.1098     -21167477       2.1967652      364299.23     -20803178       596.10527      596.10527      596.10527      2201.9474      2798.0526      2201.9474      2798.0526      2201.9474      2798.0526      2.1182094e+08  0.5            10521500       3.1351682      5016.6588      10033.298      6.3653459    
  21038200   126088.24      1315.7937     -21173925       2.1967652      373965.86     -20799959       596.10527      596.10527      596.10527      2201.9474      2798.0526      2201.9474      2798.0526      2201.9474      2798.0526      2.1182094e+08  0.5            10521600       3.1547464      5107.7208      10215.462      6.347506     
  21038400   124358.73      1328.4492     -21173526       2.1967652      368836.32     -20804690       596.10527      596.10527      596.10527      2201.9474      2798.0526      2201.9474      2798.0526      2201.9474      2798.0526      2.1182094e+08  0.5            10521700       3.174528       5055.1928      10110.38       6.3300511    
  21038600   117580.93      1333.0721     -21161372       2.1967652      348733.99     -20812638       596.10527      596.10527      596.10527      2201.9474      2798.0526      2201.9474      2798.0526      2201.9474      2798.0526      2.1182094e+08  0.5            10521800       3.1939777      5141.4825      10282.96       6.3119126    
  21038800   120792.02      1343.9188     -21167846       2.1967652      358257.79     -20809588       596.10527      596.10527      596.10527      2201.9474      2798.0526      2201.9474      2798.0526      2201.9474      2798.0526      2.1182094e+08  0.5            10521900       3.2131334      5220.3668      10440.731      6.2931826    
  21039000   126408.22      1357.9699     -21164225       2.1967652      374914.88     -20789310       596.10527      596.10527      596.10527      2201.9474      2798.0526      2201.9474      2798.0526      2201.9474      2798.0526      2.1182094e+08  0.5            10522000       3.2323067      5215.5988      10431.198      6.2744819    
  21039200   126966.22      1372.5507     -21164135       2.1967652      376569.87     -20787565       596.10527      596.10527      596.10527      2201.9474      2798.0526      2201.9474      2798.0526      2201.9474      2798.0526      2.1182094e+08  0.5            10522100       3.2517922      5132.0313      10264.079      6.256376     
  21039400   127309.71      1387.679      -21162631       2.1967652      377588.63     -20785042       596.10527      596.10527      596.10527      2201.9474      2798.0526      2201.9474      2798.0526      2201.9474      2798.0526      2.1182094e+08  0.5            10522200       3.2710017      5205.731       10411.472      6.2377282    
  21039600   129653.96      1401.6057     -21158231       2.1967652      384541.46     -20773689       596.10527      596.10527      596.10527      2201.9474      2798.0526      2201.9474      2798.0526      2201.9474      2798.0526      2.1182094e+08  0.5            10522300       3.2902095      5206.237       10412.463      6.2190704    
  21039800   132961.45      1417.9252     -21149811       2.1967652      394351.16     -20755460       596.10527      596.10527      596.10527      2201.9474      2798.0526      2201.9474      2798.0526      2201.9474      2798.0526      2.1182094e+08  0.5            10522400       3.3096815      5135.5548      10271.102      6.2009015    
  21040000   130856.14      1432.8969     -21143759       2.1967652      388107.02     -20755652       596.10527      596.10527      596.10527      2201.9474      2798.0526      2201.9474      2798.0526      2201.9474      2798.0526      2.1182094e+08  0.5            10522500       3.3288586      5214.5892      10429.156      6.1821699    
  21040200   123443.65      1447.8289     -21131797       2.1967652      366122.25     -20765675       596.10527      596.10527      596.10527      2201.9474      2798.0526      2201.9474      2798.0526      2201.9474      2798.0526      2.1182094e+08  0.5            10522600       3.3483351      5134.365       10268.741      6.1639845    
  21040400   126811.47      1467.1358     -21113227       2.1967652      376110.89     -20737116       596.10527      596.10527      596.10527      2201.9474      2798.0526      2201.9474      2798.0526      2201.9474      2798.0526      2.1182094e+08  0.5            10522700       3.3676136      5187.1468      10374.289      6.1454231    
  21040600   131924.34      1483.0313     -21120540       2.1967652      391275.19     -20729264       596.10527      596.10527      596.10527      2201.9474      2798.0526      2201.9474      2798.0526      2201.9474      2798.0526      2.1182094e+08  0.5            10522800       3.3868389      5201.4858      10403.009      6.126757     
  21040800   132645.67      1502.2166     -21116044       2.1967652      393414.58     -20722629       596.10527      596.10527      596.10527      2201.9474      2798.0526      2201.9474      2798.0526      2201.9474      2798.0526      2.1182094e+08  0.5            10522900       3.406304       5137.3694      10274.68       6.1085158    
  21041000   133745.94      1520.5471     -21122134       2.1967652      396677.88     -20725456       596.10527      596.10527      596.10527      2201.9474      2798.0526      2201.9474      2798.0526      2201.9474      2798.0526      2.1182094e+08  0.5            10523000       3.4255235      5203.0636      10406.186      6.0898232    
  21041200   136332.6       1533.4455     -21119293       2.1967652      404349.69     -20714943       596.10527      596.10527      596.10527      2201.9474      2798.0526      2201.9474      2798.0526      2201.9474      2798.0526      2.1182094e+08  0.5            10523100       3.4447416      5203.4489      10406.914      6.0711225    
  21041400   138886.44      1555.8675     -21114547       2.1967652      411924.14     -20702623       596.10527      596.10527      596.10527      2201.9474      2798.0526      2201.9474      2798.0526      2201.9474      2798.0526      2.1182094e+08  0.5            10523200       3.4641798      5144.4862      10288.931      6.0528014    
  21041600   136349.38      1571.3299     -21112765       2.1967652      404399.44     -20708365       596.10527      596.10527      596.10527      2201.9474      2798.0526      2201.9474      2798.0526      2201.9474      2798.0526      2.1182094e+08  0.5            10523300       3.4833392      5219.3742      10438.747      6.0339846    
  21041800   129830.18      1582.6658     -21108426       2.1967652      385064.11     -20723362       596.10527      596.10527      596.10527      2201.9474      2798.0526      2201.9474      2798.0526      2201.9474      2798.0526      2.1182094e+08  0.5            10523400       3.5025786      5197.6776      10395.323      6.0153017    
  21042000   133819.76      1600.4797     -21115120       2.1967652      396896.81     -20718223       596.10527      596.10527      596.10527      2201.9474      2798.0526      2201.9474      2798.0526      2201.9474      2798.0526      2.1182094e+08  0.5            10523500       3.522126       5115.7429      10231.479      5.9971372    
  21042200   138941.77      1618.7203     -21134292       2.1967652      412088.21     -20722203       596.10527      596.10527      596.10527      2201.9474      2798.0526      2201.9474      2798.0526      2201.9474      2798.0526      2.1182094e+08  0.5            10523600       3.5414363      5178.6003      10357.255      5.9785572    
  21042400   138525.78      1633.6903     -21144613       2.1967652      410854.43     -20733759       596.10527      596.10527      596.10527      2201.9474      2798.0526      2201.9474      2798.0526      2201.9474      2798.0526      2.1182094e+08  0.5            10523700       3.5606477      5205.2424      10410.5        5.9598041    
  21042600   138405.39      1645.9699     -21138434       2.1967652      410497.38     -20727936       596.10527      596.10527      596.10527      2201.9474      2798.0526      2201.9474      2798.0526      2201.9474      2798.0526      2.1182094e+08  0.5            10523800       3.5800632      5150.5278      10301.05       5.9413849    
  21042800   142913.34      1668.1155     -21133852       2.1967652      423867.52     -20709985       596.10527      596.10527      596.10527      2201.9474      2798.0526      2201.9474      2798.0526      2201.9474      2798.0526      2.1182094e+08  0.5            10523900       3.5992238      5219.0367      10438.07       5.9225358    
  21043000   146155.81      1682.7915     -21129322       2.1967652      433484.41     -20695837       596.10527      596.10527      596.10527      2201.9474      2798.0526      2201.9474      2798.0526      2201.9474      2798.0526      2.1182094e+08  0.5            10524000       3.6183966      5215.728       10431.416      5.9037033    
  21043200   138443.17      1692.5908     -21119149       2.1967652      410609.43     -20708539       596.10527      596.10527      596.10527      2201.9474      2798.0526      2201.9474      2798.0526      2201.9474      2798.0526      2.1182094e+08  0.5            10524100       3.6379372      5117.5606      10235.161      5.8854619    
  21043400   133526.22      1702.6717     -21109513       2.1967652      396026.21     -20713487       596.10527      596.10527      596.10527      2201.9474      2798.0526      2201.9474      2798.0526      2201.9474      2798.0526      2.1182094e+08  0.5            10524200       3.6571868      5194.9086      10389.771      5.8667406    
  21043600   139141.43      1718.38       -21099876       2.1967652      412680.41     -20687196       596.10527      596.10527      596.10527      2201.9474      2798.0526      2201.9474      2798.0526      2201.9474      2798.0526      2.1182094e+08  0.5            10524300       3.6764288      5196.9563      10393.928      5.8480015    
  21043800   142838.62      1733.5477     -21093658       2.1967652      423645.92     -20670012       596.10527      596.10527      596.10527      2201.9474      2798.0526      2201.9474      2798.0526      2201.9474      2798.0526      2.1182094e+08  0.5            10524400       3.6958052      5160.9102      10321.839      5.8294692    
  21044000   146341.09      1738.7321     -21093260       2.1967652      434033.91     -20659226       596.10527      596.10527      596.10527      2201.9474      2798.0526      2201.9474      2798.0526      2201.9474      2798.0526      2.1182094e+08  0.5            10524500       3.7149346      5227.5795      10455.154      5.8105419    
  21044200   146902.35      1750.971      -21090685       2.1967652      435698.57     -20654986       596.10527      596.10527      596.10527      2201.9474      2798.0526      2201.9474      2798.0526      2201.9474      2798.0526      2.1182094e+08  0.5            10524600       3.7343684      5145.6521      10291.304      5.7920849    
  21044400   143778.77      1755.5513     -21100719       2.1967652      426434.32     -20674284       596.10527      596.10527      596.10527      2201.9474      2798.0526      2201.9474      2798.0526      2201.9474      2798.0526      2.1182094e+08  0.5            10524700       3.7535786      5205.5879      10411.199      5.7732737    
  21044600   141259.35      1767.5833     -21100015       2.1967652      418961.95     -20681053       596.10527      596.10527      596.10527      2201.9474      2798.0526      2201.9474      2798.0526      2201.9474      2798.0526      2.1182094e+08  0.5            10524800       3.7728091      5200.0479      10400.122      5.7544896    
  21044800   148618.72      1777.6794     -21091791       2.1967652      440789.15     -20651002       596.10527      596.10527      596.10527      2201.9474      2798.0526      2201.9474      2798.0526      2201.9474      2798.0526      2.1182094e+08  0.5            10524900       3.7922558      5142.2908      10284.517      5.7360282    
  21045000   151678.44      1787.7082     -21092144       2.1967652      449864        -20642280       596.10527      596.10527      596.10527      2201.9474      2798.0526      2201.9474      2798.0526      2201.9474      2798.0526      2.1182094e+08  0.5            10525000       3.8115074      5194.3478      10388.709      5.7172642    
  21045200   147783.89      1791.2381     -21089728       2.1967652      438313.14     -20651415       596.10527      596.10527      596.10527      2201.9474      2798.0526      2201.9474      2798.0526      2201.9474      2798.0526      2.1182094e+08  0.5            10525100       3.8306712      5218.1818      10436.366      5.6983648    
  21045400   144315.28      1797.7738     -21086880       2.1967652      428025.55     -20658855       596.10527      596.10527      596.10527      2201.9474      2798.0526      2201.9474      2798.0526      2201.9474      2798.0526      2.1182094e+08  0.5            10525200       3.8504731      5050.0097      10100.044      5.6804038    
  21045600   152258.64      1813.622      -21087793       2.1967652      451584.83     -20636208       596.10527      596.10527      596.10527      2201.9474      2798.0526      2201.9474      2798.0526      2201.9474      2798.0526      2.1182094e+08  0.5            10525300       3.8696951      5202.3888      10404.779      5.6615765    
  21045800   155828.44      1817.5537     -21091475       2.1967652      462172.52     -20629302       596.10527      596.10527      596.10527      2201.9474      2798.0526      2201.9474      2798.0526      2201.9474      2798.0526      2.1182094e+08  0.5            10525400       3.8888796      5212.5378      10425.054      5.642691     
  21046000   150100.34      1823.3851     -21082786       2.1967652      445183.51     -20637602       596.10527      596.10527      596.10527      2201.9474      2798.0526      2201.9474      2798.0526      2201.9474      2798.0526      2.1182094e+08  0.5            10525500       3.908327       5142.0451      10284.078      5.624181     
  21046200   147056.79      1832.7837     -21064035       2.1967652      436156.62     -20627878       596.10527      596.10527      596.10527      2201.9474      2798.0526      2201.9474      2798.0526      2201.9474      2798.0526      2.1182094e+08  0.5            10525600       3.9276076      5186.588       10373.16       5.6054236    
  21046400   156206.21      1844.0996     -21052017       2.1967652      463292.94     -20588724       596.10527      596.10527      596.10527      2201.9474      2798.0526      2201.9474      2798.0526      2201.9474      2798.0526      2.1182094e+08  0.5            10525700       3.9467451      5225.3388      10450.696      5.5864586    
  21046600   157525.65      1852.108      -21048643       2.1967652      467206.26     -20581437       596.10527      596.10527      596.10527      2201.9474      2798.0526      2201.9474      2798.0526      2201.9474      2798.0526      2.1182094e+08  0.5            10525800       3.9661591      5150.9191      10301.821      5.5678802    
  21046800   152955.21      1860.9593     -21046558       2.1967652      453650.76     -20592907       596.10527      596.10527      596.10527      2201.9474      2798.0526      2201.9474      2798.0526      2201.9474      2798.0526      2.1182094e+08  0.5            10525900       3.9853532      5209.9666      10419.983      5.5489874    
  21047000   151956.64      1868.4905     -21046157       2.1967652      450689.11     -20595468       596.10527      596.10527      596.10527      2201.9474      2798.0526      2201.9474      2798.0526      2201.9474      2798.0526      2.1182094e+08  0.5            10526000       4.0048428      5130.9053      10261.768      5.5305002    
  21047200   160705.65      1881.2485     -21043091       2.1967652      476637.86     -20566453       596.10527      596.10527      596.10527      2201.9474      2798.0526      2201.9474      2798.0526      2201.9474      2798.0526      2.1182094e+08  0.5            10526100       4.0239887      5223.0757      10446.202      5.5115323    
  21047400   161379.77      1890.1047     -21037315       2.1967652      478637.21     -20558678       596.10527      596.10527      596.10527      2201.9474      2798.0526      2201.9474      2798.0526      2201.9474      2798.0526      2.1182094e+08  0.5            10526200       4.0432105      5202.4031      10404.807      5.4926661    
  21047600   156524.3       1895.2215     -21042492       2.1967652      464236.35     -20578256       596.10527      596.10527      596.10527      2201.9474      2798.0526      2201.9474      2798.0526      2201.9474      2798.0526      2.1182094e+08  0.5            10526300       4.0625993      5157.6184      10315.176      5.4740217    
  21047800   155660.25      1901.4193     -21042724       2.1967652      461673.66     -20581050       596.10527      596.10527      596.10527      2201.9474      2798.0526      2201.9474      2798.0526      2201.9474      2798.0526      2.1182094e+08  0.5            10526400       4.0817787      5213.9312      10427.878      5.4550903    
  21048000   159418.43      1908.5084     -21047956       2.1967652      472820.08     -20575136       596.10527      596.10527      596.10527      2201.9474      2798.0526      2201.9474      2798.0526      2201.9474      2798.0526      2.1182094e+08  0.5            10526500       4.1010477      5189.681       10379.349      5.4362754    
  21048200   162928.97      1916.3313     -21047176       2.1967652      483232.02     -20563944       596.10527      596.10527      596.10527      2201.9474      2798.0526      2201.9474      2798.0526      2201.9474      2798.0526      2.1182094e+08  0.5            10526600       4.1205955      5115.6678      10231.345      5.4178229    
  21048400   161867.08      1925.5327     -21057923       2.1967652      480082.55     -20577840       596.10527      596.10527      596.10527      2201.9474      2798.0526      2201.9474      2798.0526      2201.9474      2798.0526      2.1182094e+08  0.5            10526700       4.1398817      5185.0514      10370.132      5.3990189    
  21048600   155815.52      1930.9351     -21063250       2.1967652      462134.2      -20601116       596.10527      596.10527      596.10527      2201.9474      2798.0526      2201.9474      2798.0526      2201.9474      2798.0526      2.1182094e+08  0.5            10526800       4.1591395      5192.7127      10385.407      5.380174     
  21048800   158672.76      1936.1938     -21055016       2.1967652      470608.5      -20584408       596.10527      596.10527      596.10527      2201.9474      2798.0526      2201.9474      2798.0526      2201.9474      2798.0526      2.1182094e+08  0.5            10526900       4.1786889      5115.2389      10230.476      5.3616994    
  21049000   166398.37      1947.8239     -21048669       2.1967652      493521.92     -20555147       596.10527      596.10527      596.10527      2201.9474      2798.0526      2201.9474      2798.0526      2201.9474      2798.0526      2.1182094e+08  0.5            10527000       4.1979872      5181.8194      10363.624      5.3428955    
  21049200   166421.91      1950.8788     -21043827       2.1967652      493591.73     -20550235       596.10527      596.10527      596.10527      2201.9474      2798.0526      2201.9474      2798.0526      2201.9474      2798.0526      2.1182094e+08  0.5            10527100       4.2173465      5165.4771      10330.961      5.3241641    
  21049400   160390.53      1959.8576     -21034197       2.1967652      475703.24     -20558494       596.10527      596.10527      596.10527      2201.9474      2798.0526      2201.9474      2798.0526      2201.9474      2798.0526      2.1182094e+08  0.5            10527200       4.2367696      5148.5111      10297.022      5.3055068    
  21049600   158780.36      1966.1831     -21038622       2.1967652      470927.63     -20567695       596.10527      596.10527      596.10527      2201.9474      2798.0526      2201.9474      2798.0526      2201.9474      2798.0526      2.1182094e+08  0.5            10527300       4.2558912      5229.6685      10459.351      5.2864684    
  21049800   170473.88      1980.521      -21028587       2.1967652      505609.51     -20522977       596.10527      596.10527      596.10527      2201.9474      2798.0526      2201.9474      2798.0526      2201.9474      2798.0526      2.1182094e+08  0.5            10527400       4.2752128      5175.5754      10351.124      5.2676754    
[...]
  21694400   285.18897      2.2945688     -21638637       2.1985368      845.84368     -21637791       595.94511      595.94511      595.94511      2202.0274      2797.9726      2202.0274      2797.9726      2202.0274      2797.9726      2.1165025e+08  0.5            10849700       31.767798      4584.0502      9168.1209      1.1635753    
  21694600   304.47843      1.7726248     -21638641       2.1985355      903.05439     -21637738       595.94522      595.94522      595.94522      2202.0274      2797.9726      2202.0274      2797.9726      2202.0274      2797.9726      2.1165037e+08  0.5            10849800       31.789566      4593.9263      9187.8438      1.1416143    
  21694800   297.34918     -0.88968338    -21638644       2.1984807      881.90972     -21637762       595.95018      595.95018      595.95018      2202.0249      2797.9751      2202.0249      2797.9751      2202.0249      2797.9751      2.1165565e+08  0.5            10849900       31.811336      4593.4973      9186.9933      1.1196537    
  21695000   300.73053      1.2567557     -21638647       2.1985395      891.93849     -21637755       595.94486      595.94486      595.94486      2202.0276      2797.9724      2202.0276      2797.9724      2202.0276      2797.9724      2.1164999e+08  0.5            10850000       31.833169      4580.0898      9160.1805      1.0976956    
  21695200   301.76673      3.3735979     -21638649       2.1985912      895.01176     -21637754       595.9402       595.9402       595.9402       2202.0299      2797.9701      2202.0299      2797.9701      2202.0299      2797.9701      2.1164501e+08  0.5            10850100       31.855067      4566.7007      9133.4277      1.0757398    
  21695400   297.14336     -0.33485862    -21638651       2.1984959      881.29926     -21637769       595.94881      595.94881      595.94881      2202.0256      2797.9744      2202.0256      2797.9744      2202.0256      2797.9744      2.1165419e+08  0.5            10850200       31.876832      4594.466       9188.9054      1.0537797    
  21695600   304.47988     -2.0838938     -21638652       2.1984477      903.05869     -21637749       595.95316      595.95316      595.95316      2202.0234      2797.9766      2202.0234      2797.9766      2202.0234      2797.9766      2.1165883e+08  0.5            10850300       31.898608      4592.2886      9184.5843      1.0318202    
  21695800   299.50872      1.6163491     -21638654       2.1985362      888.31472     -21637766       595.94516      595.94516      595.94516      2202.0274      2797.9726      2202.0274      2797.9726      2202.0274      2797.9726      2.116503e+08   0.5            10850400       31.9204        4588.7766      9177.5561      1.0098614    
  21696000   301.00006      5.0544616     -21638655       2.198622       892.73789     -21637762       595.93741      595.93741      595.93741      2202.0313      2797.9687      2202.0313      2797.9687      2202.0313      2797.9687      2.1164204e+08  0.5            10850500       31.942227      4581.4554      9162.8978      0.98790401   
  21696200   295.02931      5.2994682     -21638655       2.1986314      875.02919     -21637780       595.93656      595.93656      595.93656      2202.0317      2797.9683      2202.0317      2797.9683      2202.0317      2797.9683      2.1164114e+08  0.5            10850600       31.96414       4563.6486      9127.308       0.96594935   
  21696400   311.41134      4.2836413     -21638655       2.1986081      923.61675     -21637731       595.93867      595.93867      595.93867      2202.0307      2797.9693      2202.0307      2797.9693      2202.0307      2797.9693      2.1164338e+08  0.5            10850700       31.986287      4515.0987      9030.1705      0.94400169   
  21696600   288.11792      7.8131149     -21640549       2.1987011      854.53066     -21639694       595.93027      595.93027      595.93027      2202.0349      2797.9651      2202.0349      2797.9651      2202.0349      2797.9651      2.1163444e+08  0.5            10850800       32.008139      4576.4305      9152.8753      0.92204521   
  21696800   302.76082      2.8528833     -21640550       2.1985722      897.96012     -21639652       595.94191      595.94191      595.94191      2202.029       2797.971       2202.029       2797.971       2202.029       2797.971       2.1164684e+08  0.5            10850900       32.029941      4586.7396      9173.4493      0.9000875    
  21697000   297.50324      5.1747643     -21640550       2.1986191      882.36665     -21639667       595.93767      595.93767      595.93767      2202.0312      2797.9688      2202.0312      2797.9688      2202.0312      2797.9688      2.1164232e+08  0.5            10851000       32.051804      4573.8095      9147.6373      0.87813169   
  21697200   292.03075      7.8985439     -21640550       2.1986737      866.13576     -21639683       595.93275      595.93275      595.93275      2202.0336      2797.9664      2202.0336      2797.9664      2202.0336      2797.9664      2.1163707e+08  0.5            10851100       32.073627      4582.2748      9164.576       0.85617492   
  21697400   308.20212      7.5582339     -21642445       2.1986587      914.09853     -21641531       595.93409      595.93409      595.93409      2202.033       2797.967       2202.033       2797.967       2202.033       2797.967       2.1163851e+08  0.5            10851200       32.095437      4585.2312      9170.4574      0.83421798   
  21697600   291.78109     -2.8348791     -21642447       2.1983928      865.39527     -21641582       595.95812      595.95812      595.95812      2202.0209      2797.9791      2202.0209      2797.9791      2202.0209      2797.9791      2.1166411e+08  0.5            10851300       32.117333      4566.9616      9133.914       0.81226344   
  21697800   302.01409      6.9233554     -21642449       2.1986236      895.74539     -21641553       595.93726      595.93726      595.93726      2202.0314      2797.9686      2202.0314      2797.9686      2202.0314      2797.9686      2.1164189e+08  0.5            10851400       32.139145      4584.6683      9169.347       0.7903069    
  21698000   296.81228      6.8126755     -21642452       2.1986143      880.31733     -21641571       595.93811      595.93811      595.93811      2202.0309      2797.9691      2202.0309      2797.9691      2202.0309      2797.9691      2.1164278e+08  0.5            10851500       32.161011      4573.2497      9146.4668      0.76835186   
  21698200   304.7803      -7.844864      -21642454       2.1982534      903.94973     -21641550       595.97072      595.97072      595.97072      2202.0146      2797.9854      2202.0146      2797.9854      2202.0146      2797.9854      2.1167754e+08  0.5            10851600       32.182887      4571.2468      9142.5291      0.74639716   
  21698400   295.33121      7.9013213     -21642457       2.1986317      875.92459     -21641581       595.93654      595.93654      595.93654      2202.0317      2797.9683      2202.0317      2797.9683      2202.0317      2797.9683      2.1164111e+08  0.5            10851700       32.204714      4581.5646      9163.114       0.72444146   
  21698600   301.13154     -0.54637799    -21642460       2.1984246      893.12783     -21641567       595.95525      595.95525      595.95525      2202.0224      2797.9776      2202.0224      2797.9776      2202.0224      2797.9776      2.1166105e+08  0.5            10851800       32.226473      4595.6182      9191.2479      0.70248449   
  21698800   302.02938     -3.8868092     -21642463       2.1983423      895.79076     -21641567       595.96268      595.96268      595.96268      2202.0187      2797.9813      2202.0187      2797.9813      2202.0187      2797.9813      2.1166897e+08  0.5            10851900       32.248303      4581.0038      9162.0063      0.68052924   
  21699000   296.40539      7.9425059     -21642465       2.1986278      879.11052     -21641586       595.93689      595.93689      595.93689      2202.0316      2797.9684      2202.0316      2797.9684      2202.0316      2797.9684      2.1164149e+08  0.5            10852000       32.27011       4585.6259      9171.2232      0.65857372   
  21699200   314.10275     -1.7971441     -21642468       2.1983955      931.59924     -21641537       595.95788      595.95788      595.95788      2202.0211      2797.9789      2202.0211      2797.9789      2202.0211      2797.9789      2.1166385e+08  0.5            10852100       32.291953      4578.1307      9156.2946      0.63661911   
  21699400   292.85153     -1.1501105     -21642470       2.1984143      868.5701      -21641602       595.95618      595.95618      595.95618      2202.0219      2797.9781      2202.0219      2797.9781      2202.0219      2797.9781      2.1166204e+08  0.5            10852200       32.313785      4580.3445      9160.6848      0.61466444   
  21699600   306.30697      5.0146769     -21642472       2.1985648      908.47767     -21641564       595.94258      595.94258      595.94258      2202.0287      2797.9713      2202.0287      2797.9713      2202.0287      2797.9713      2.1164755e+08  0.5            10852300       32.335661      4571.2746      9142.5491      0.59271074   
  21699800   281.35472     -0.28172684    -21642107       2.1984332      834.47166     -21641272       595.95448      595.95448      595.95448      2202.0228      2797.9772      2202.0228      2797.9772      2202.0228      2797.9772      2.1166023e+08  0.5            10852400       32.357494      4580.3199      9160.6432      0.57075637   
  21700000   304.0997       4.7822352     -21642109       2.1985539      901.93112     -21641207       595.94357      595.94357      595.94357      2202.0282      2797.9718      2202.0282      2797.9718      2202.0282      2797.9718      2.116486e+08   0.5            10852500       32.379396      4565.6171      9131.2226      0.54880337   
  21700200   293.08298     -3.5682968     -21642112       2.1983493      869.25655     -21641243       595.96205      595.96205      595.96205      2202.019       2797.981       2202.019       2797.981       2202.019       2797.981       2.116683e+08   0.5            10852600       32.401256      4574.6755      9149.3451      0.52684973   
  21700400   303.72418      3.5075008     -21642115       2.1985153      900.81736     -21641215       595.94706      595.94706      595.94706      2202.0265      2797.9735      2202.0265      2797.9735      2202.0265      2797.9735      2.1165232e+08  0.5            10852700       32.423064      4585.4047      9170.8232      0.50489542   
  21700600   299.13076      2.4743399     -21642119       2.1984853      887.19371     -21641232       595.94977      595.94977      595.94977      2202.0251      2797.9749      2202.0251      2797.9749      2202.0251      2797.9749      2.1165521e+08  0.5            10852800       32.444884      4582.9741      9165.9385      0.48294148   
  21700800   299.32612     -3.4889654     -21642123       2.1983366      887.77313     -21641235       595.9632       595.9632       595.9632       2202.0184      2797.9816      2202.0184      2797.9816      2202.0184      2797.9816      2.1166952e+08  0.5            10852900       32.466708      4582.1051      9164.2111      0.46098778   
  21701000   301.83363      4.6624195     -21642128       2.1985279      895.21017     -21641233       595.94592      595.94592      595.94592      2202.027       2797.973       2202.027       2797.973       2202.027       2797.973       2.1165111e+08  0.5            10853000       32.488563      4575.6714      9151.3266      0.43903467   
  21701200   299.96985      2.6105872     -21642133       2.1984722      889.68238     -21641243       595.95095      595.95095      595.95095      2202.0245      2797.9755      2202.0245      2797.9755      2202.0245      2797.9755      2.1165647e+08  0.5            10853100       32.510391      4581.1943      9162.4029      0.41708135   
  21701400   298.64402     -4.1374927     -21642137       2.1983017      885.75008     -21641251       595.96636      595.96636      595.96636      2202.0168      2797.9832      2202.0168      2797.9832      2202.0168      2797.9832      2.1167289e+08  0.5            10853200       32.532165      4592.6969      9185.42        0.39512754   
  21701600   303.04519      0.98983145    -21642141       2.1984142      898.80355     -21641243       595.95619      595.95619      595.95619      2202.0219      2797.9781      2202.0219      2797.9781      2202.0219      2797.9781      2.1166206e+08  0.5            10853300       32.553954      4589.4545      9178.8862      0.37317415   
  21701800   292.71066      6.6403543     -21642144       2.1985386      868.15231     -21641276       595.94495      595.94495      595.94495      2202.0275      2797.9725      2202.0275      2797.9725      2202.0275      2797.9725      2.1165008e+08  0.5            10853400       32.575731      4591.9252      9183.8606      0.35122085   
  21702000   311.08011     -2.9816568     -21642148       2.1982963      922.63436     -21641226       595.96684      595.96684      595.96684      2202.0166      2797.9834      2202.0166      2797.9834      2202.0166      2797.9834      2.1167341e+08  0.5            10853500       32.597534      4586.7127      9173.395       0.32926804   
  21702200   294.75011      7.6303885     -21642519       2.1985476      874.20111     -21641645       595.94414      595.94414      595.94414      2202.0279      2797.9721      2202.0279      2797.9721      2202.0279      2797.9721      2.1164921e+08  0.5            10853600       32.619368      4579.8729      9159.7588      0.30731574   
  21702400   302.36849     -4.8783306     -21642155       2.1982342      896.79653     -21641258       595.97246      595.97246      595.97246      2202.0138      2797.9862      2202.0138      2797.9862      2202.0138      2797.9862      2.1167938e+08  0.5            10853700       32.641142      4592.622       9185.2441      0.28536307   
  21702600   292.86443      2.832241      -21642159       2.1984174      868.60837     -21641291       595.9559       595.9559       595.9559       2202.0221      2797.9779      2202.0221      2797.9779      2202.0221      2797.9779      2.1166174e+08  0.5            10853800       32.662951      4585.3372      9170.6706      0.26341091   
  21702800   302.25377      1.2733294     -21642164       2.1983793      896.45628     -21641267       595.95934      595.95934      595.95934      2202.0203      2797.9797      2202.0203      2797.9797      2202.0203      2797.9797      2.1166541e+08  0.5            10853900       32.684752      4586.834       9173.6799      0.2414589    
  21703000   300.19889      1.9566093     -21642169       2.1983954      890.36168     -21641278       595.95789      595.95789      595.95789      2202.0211      2797.9789      2202.0211      2797.9789      2202.0211      2797.9789      2.1166386e+08  0.5            10854000       32.706585      4580.3552      9160.7116      0.2195073    
  21703200   299.71026     -4.6867802     -21642173       2.1982297      888.91247     -21641284       595.97286      595.97286      595.97286      2202.0136      2797.9864      2202.0136      2797.9864      2202.0136      2797.9864      2.1167981e+08  0.5            10854100       32.728455      4572.4492      9144.9127      0.19755608   
  21703400   307.9265       10.991607     -21642175       2.1986044      913.28106     -21641262       595.939        595.939        595.939        2202.0305      2797.9695      2202.0305      2797.9695      2202.0305      2797.9695      2.1164374e+08  0.5            10854200       32.750344      4568.4231      9136.827       0.17560508   
  21703600   297.75588     -0.91111424    -21642181       2.1983017      883.11594     -21641298       595.96635      595.96635      595.96635      2202.0168      2797.9832      2202.0168      2797.9832      2202.0168      2797.9832      2.1167288e+08  0.5            10854300       32.772128      4590.6718      9181.3622      0.15365366   
  21703800   307.97008     -7.2595635     -21642185       2.1981327      913.4103      -21641272       595.98162      595.98162      595.98162      2202.0092      2797.9908      2202.0092      2797.9908      2202.0092      2797.9908      2.1168915e+08  0.5            10854400       32.794143      4542.3139      9084.6159      0.13170339   
  21704000   289.03823     -5.8696432     -21642191       2.1981564      857.26022     -21641334       595.97948      595.97948      595.97948      2202.0103      2797.9897      2202.0103      2797.9897      2202.0103      2797.9897      2.1168687e+08  0.5            10854500       32.815977      4579.9111      9159.8197      0.10975244   
  21704200   309.18769     -3.0452913     -21642198       2.1982184      917.02164     -21641281       595.97388      595.97388      595.97388      2202.0131      2797.9869      2202.0131      2797.9869      2202.0131      2797.9869      2.116809e+08   0.5            10854600       32.837819      4578.5032      9157.014       0.08780166   
  21704400   299.47786     -0.36772863    -21642206       2.1982816      888.22317     -21641317       595.96817      595.96817      595.96817      2202.0159      2797.9841      2202.0159      2797.9841      2202.0159      2797.9841      2.1167482e+08  0.5            10854700       32.859691      4571.972       9143.9252      0.065851089  
  21704600   300.07364      2.0115818     -21642213       2.1983406      889.9902      -21641323       595.96284      595.96284      595.96284      2202.0186      2797.9814      2202.0186      2797.9814      2202.0186      2797.9814      2.1166914e+08  0.5            10854800       32.881511      4582.9046      9165.8319      0.043900552  
  21704800   299.80309      3.6882816     -21642221       2.1983831      889.18779     -21641332       595.959        595.959        595.959        2202.0205      2797.9795      2202.0205      2797.9795      2202.0205      2797.9795      2.1166505e+08  0.5            10854900       32.903309      4587.7027      9175.4105      0.021950174  
  21705000   297.08677      4.2030485     -21642229       2.1983958      881.13143     -21641348       595.95785      595.95785      595.95785      2202.0211      2797.9789      2202.0211      2797.9789      2202.0211      2797.9789      2.1166382e+08  0.5            10855000       32.925186      4570.8437      9141.6674      0            
Loop time of 32.9252 on 4 procs for 300000 steps with 996 atoms

Performance: 393.619 ns/day, 0.061 hours/ns, 9111.559 timesteps/s
91.6% CPU use with 4 MPI tasks x no OpenMP threads

MPI task timing breakdown:
Section |  min time  |  avg time  |  max time  |%varavg| %total
---------------------------------------------------------------
Pair    | 12.664     | 14.677     | 16.634     |  36.9 | 44.58
Neigh   | 0.0071806  | 0.0087711  | 0.010075   |   1.1 |  0.03
Comm    | 9.6225     | 11.486     | 13.418     |  39.9 | 34.89
Output  | 0.04162    | 0.047145   | 0.05809    |   3.0 |  0.14
Modify  | 5.0669     | 5.1793     | 5.3077     |   4.2 | 15.73
Other   |            | 1.526      |            |       |  4.64

Nlocal:            249 ave         270 max         217 min
Histogram: 1 0 0 0 1 0 0 0 0 2
Nghost:            861 ave         870 max         842 min
Histogram: 1 0 0 0 0 0 0 0 2 1
Neighs:        1701.25 ave        1900 max        1451 min
Histogram: 1 0 0 0 1 0 0 1 0 1

Total # of neighbors = 6805
Ave neighs/atom = 6.8323293
Neighbor list builds = 45
Dangerous builds = 0

# run_style
run_style verlet

# write restart
write_restart ${write_res}
write_restart ./pgnpmf/73/equpmf31.res
System init for write_restart ...
Generated 0 of 1 mixed pair_coeff terms from geometric mixing rule

Total wall time: 0:01:11
