LAMMPS (23 Jun 2022 - Update 1)
# Read restart
read_restart ${read_res}
read_restart ./pgnpmf/73/equpmf40.res
Reading restart file ...
  restart file = 23 Jun 2022, LAMMPS = 23 Jun 2022
  restoring atom style atomic from restart
  orthogonal box = (2202.3795 2202.3795 2202.3795) to (2797.6205 2797.6205 2797.6205)
  1 by 2 by 2 MPI processor grid
  restoring pair style table from restart
  996 atoms
  read_restart CPU = 0.004 seconds

# Settings

pair_style table spline 9941

pair_coeff 1 1 ./pgnpmf/N20.txt DE_GNP 75.6
pair_coeff 2 2 ./pgnpmf/N100.txt DE_GNP 115.92
WARNING: 3 of 9941 force values in table DE_GNP are inconsistent with -dE/dr.
WARNING:  Should only be flagged at inflection points (../pair_table.cpp:463)
pair_coeff 1 2 ./pgnpmf/mixed_potential.txt DE_GNP 95.66
WARNING: 1562 of 9941 force values in table DE_GNP are inconsistent with -dE/dr.
WARNING:  Should only be flagged at inflection points (../pair_table.cpp:463)

#Neigh_list Calc Frequency

neigh_modify delay 0 every 1 check yes

# Saving Frequency (50 frames)

variable ts_save equal ${steps_equ}
variable ts_save equal 5000

# Dump
#dump 1 all custom ${ts_save} ./pgnpmf/${folder}/equilibration/trajectory/trajectory_${usic}_${trial}.equ.custom type x y z ix iy iz
#dump_modify 1 first no sort id
#dump 2 all cfg 50000 ./equilibration/trajectory/ovito/dumpgen.tens_*.cfg mass type xs ys zs fx fy fz

# thermo_style
thermo_style custom step temp press pe density ke etotal lx ly lz xlo xhi ylo yhi zlo zhi vol dt time cpu tpcpu spcpu cpuremain

# run info
timestep ${ts}
timestep 0.5
thermo 200

# fix

fix 1 all momentum 1000 linear 1 1 1 angular
variable T equal ${temp}
variable T equal 300
fix 2 all nvt temp ${T} 370000 100.0
fix 2 all nvt temp 300 370000 100.0

run 100000
Generated 0 of 1 mixed pair_coeff terms from geometric mixing rule
Unused restart file global fix info:
  fix style: npt, fix ID: 5
Neighbor list info ...
  update every 1 steps, delay 0 steps, check yes
  max neighbors/atom: 2000, page size: 100000
  master list distance cutoff = 117.92
  ghost atom cutoff = 117.92
  binsize = 58.96, bins = 11 11 11
  1 neighbor lists, perpetual/occasional/extra = 1 0 0
  (1) pair table, perpetual
      attributes: half, newton on
      pair build: half/bin/atomonly/newton
      stencil: half/bin/3d
      bin: standard
Per MPI rank memory allocation (min/avg/max) = 3.086 | 3.087 | 3.087 Mbytes
   Step          Temp          Press          PotEng        Density         KinEng         TotEng           Lx             Ly             Lz            Xlo            Xhi            Ylo            Yhi            Zlo            Zhi           Volume           Dt            Time           CPU           T/CPU          S/CPU         CPULeft    
  28005000   294.38559     -1.8119557     -21575138       2.2063484      873.11997     -21574265       595.24097      595.24097      595.24097      2202.3795      2797.6205      2202.3795      2797.6205      2202.3795      2797.6205      2.109009e+08   0.5            14005000       0              0              0              0            
  28005200   348.94813     -2.1872483     -21575136       2.2063484      1034.9474     -21574101       595.24097      595.24097      595.24097      2202.3795      2797.6205      2202.3795      2797.6205      2202.3795      2797.6205      2.109009e+08   0.5            14005100       0.01834489     5450.8736      10901.21       9.1553875    
  28005400   487.14558     -2.4825678     -21575133       2.2063484      1444.828      -21573688       595.24097      595.24097      595.24097      2202.3795      2797.6205      2202.3795      2797.6205      2202.3795      2797.6205      2.109009e+08   0.5            14005200       0.036644575    5464.6206      10929.288      9.1250609    
  28005600   724.41502     -2.5960396     -21575125       2.2063484      2148.5469     -21572976       595.24097      595.24097      595.24097      2202.3795      2797.6205      2202.3795      2797.6205      2202.3795      2797.6205      2.109009e+08   0.5            14005300       0.05485663     5490.8707      10981.735      9.0882964    
  28005800   1108.0477     -2.4126625     -21575103       2.2063484      3286.3654     -21571817       595.24097      595.24097      595.24097      2202.3795      2797.6205      2202.3795      2797.6205      2202.3795      2797.6205      2.109009e+08   0.5            14005400       0.073176329    5458.6133      10917.236      9.0741395    
  28006000   1706.4897     -1.8462872     -21575058       2.2063484      5061.2879     -21569996       595.24097      595.24097      595.24097      2202.3795      2797.6205      2202.3795      2797.6205      2202.3795      2797.6205      2.109009e+08   0.5            14005500       0.091544726    5444.0997      10888.176      9.0631678    
  28006200   2597.6609     -1.0712351     -21574969       2.2063484      7704.418      -21567265       595.24097      595.24097      595.24097      2202.3795      2797.6205      2202.3795      2797.6205      2202.3795      2797.6205      2.109009e+08   0.5            14005600       0.1098465      5463.9775      10927.969      9.0442168    
  28006400   3828.1329      0.43816708    -21574809       2.2063484      11353.882     -21563456       595.24097      595.24097      595.24097      2202.3795      2797.6205      2202.3795      2797.6205      2202.3795      2797.6205      2.109009e+08   0.5            14005700       0.12802558     5500.8548      11001.739      9.0168058    
  28006600   5333.4476      3.9150928     -21574543       2.2063484      15818.504     -21558725       595.24097      595.24097      595.24097      2202.3795      2797.6205      2202.3795      2797.6205      2202.3795      2797.6205      2.109009e+08   0.5            14005800       0.14621491     5497.7304      10995.474      8.9923438    
  28006800   6849.6621      8.9003433     -21581152       2.2063484      20315.454     -21560837       595.24097      595.24097      595.24097      2202.3795      2797.6205      2202.3795      2797.6205      2202.3795      2797.6205      2.109009e+08   0.5            14005900       0.16460392     5438.0401      10873.285      8.9804323    
  28007000   7955.314       12.787927     -21580234       2.2063484      23594.714     -21556639       595.24097      595.24097      595.24097      2202.3795      2797.6205      2202.3795      2797.6205      2202.3795      2797.6205      2.109009e+08   0.5            14006000       0.18288262     5470.8603      10944.529      8.9613518    
  28007200   8474.258       15.305482     -21579550       2.2063484      25133.853     -21554416       595.24097      595.24097      595.24097      2202.3795      2797.6205      2202.3795      2797.6205      2202.3795      2797.6205      2.109009e+08   0.5            14006100       0.20117171     5467.7227      10935.448      8.9430901    
  28007400   8874.5095      17.036336     -21578721       2.2063484      26320.961     -21552400       595.24097      595.24097      595.24097      2202.3795      2797.6205      2202.3795      2797.6205      2202.3795      2797.6205      2.109009e+08   0.5            14006200       0.21948494     5460.543       10921.092      8.9258041    
  28007600   9682.8864      19.607605     -21577726       2.2063484      28718.531     -21549007       595.24097      595.24097      595.24097      2202.3795      2797.6205      2202.3795      2797.6205      2202.3795      2797.6205      2.109009e+08   0.5            14006300       0.23790232     5429.636       10859.216      8.9122718    
  28007800   10700.532      24.85833      -21576203       2.2063484      31736.771     -21544466       595.24097      595.24097      595.24097      2202.3795      2797.6205      2202.3795      2797.6205      2202.3795      2797.6205      2.109009e+08   0.5            14006400       0.25606073     5507.1065      11014.276      8.8890356    
  28008000   11480.06       28.402455     -21572998       2.2063484      34048.779     -21538949       595.24097      595.24097      595.24097      2202.3795      2797.6205      2202.3795      2797.6205      2202.3795      2797.6205      2.109009e+08   0.5            14006500       0.27429501     5484.1603      10968.322      8.8689411    
  28008200   12018.341      33.259535     -21571525       2.2063484      35645.271     -21535880       595.24097      595.24097      595.24097      2202.3795      2797.6205      2202.3795      2797.6205      2202.3795      2797.6205      2.109009e+08   0.5            14006600       0.29269123     5435.9171      10871.827      8.8539722    
  28008400   12668.658      41.020521     -21562537       2.2063484      37574.048     -21524963       595.24097      595.24097      595.24097      2202.3795      2797.6205      2202.3795      2797.6205      2202.3795      2797.6205      2.109009e+08   0.5            14006700       0.3108569      5504.8846      11009.784      8.8320493    
  28008600   13541.131      45.843189     -21560794       2.2063484      40161.722     -21520632       595.24097      595.24097      595.24097      2202.3795      2797.6205      2202.3795      2797.6205      2202.3795      2797.6205      2.109009e+08   0.5            14006800       0.32902778     5503.3069      11006.597      8.810686     
  28008800   14390.417      52.0425       -21558916       2.2063484      42680.624     -21516236       595.24097      595.24097      595.24097      2202.3795      2797.6205      2202.3795      2797.6205      2202.3795      2797.6205      2.109009e+08   0.5            14006900       0.34754881     5399.2669      10798.485      8.7985277    
  28009000   15070.687      58.980533     -21554686       2.2063484      44698.242     -21509988       595.24097      595.24097      595.24097      2202.3795      2797.6205      2202.3795      2797.6205      2202.3795      2797.6205      2.109009e+08   0.5            14007000       0.36585741     5461.9051      10923.819      8.7806302    
  28009200   15708.329      63.332544     -21555268       2.2063484      46589.427     -21508679       595.24097      595.24097      595.24097      2202.3795      2797.6205      2202.3795      2797.6205      2202.3795      2797.6205      2.109009e+08   0.5            14007100       0.38405161     5496.264       10992.507      8.7600837    
  28009400   16472.053      76.146183     -21543880       2.2063484      48854.562     -21495025       595.24097      595.24097      595.24097      2202.3795      2797.6205      2202.3795      2797.6205      2202.3795      2797.6205      2.109009e+08   0.5            14007200       0.4022265      5502.1135      11004.32       8.7393275    
  28009600   17318.065      86.287192     -21543272       2.2063484      51363.754     -21491909       595.24097      595.24097      595.24097      2202.3795      2797.6205      2202.3795      2797.6205      2202.3795      2797.6205      2.109009e+08   0.5            14007300       0.42043272     5492.6084      10985.184      8.7194526    
  28009800   18073.297      93.644771     -21533361       2.2063484      53603.699     -21479757       595.24097      595.24097      595.24097      2202.3795      2797.6205      2202.3795      2797.6205      2202.3795      2797.6205      2.109009e+08   0.5            14007400       0.4389405      5403.1282      10806.269      8.7056954    
  28010000   18739.009      101.53303     -21533454       2.2063484      55578.139     -21477876       595.24097      595.24097      595.24097      2202.3795      2797.6205      2202.3795      2797.6205      2202.3795      2797.6205      2.109009e+08   0.5            14007500       0.4573066      5444.8132      10889.579      8.6888674    
  28010200   19457.141      109.22166     -21531309       2.2063484      57708.052     -21473601       595.24097      595.24097      595.24097      2202.3795      2797.6205      2202.3795      2797.6205      2202.3795      2797.6205      2.109009e+08   0.5            14007600       0.47572546     5429.2407      10858.524      8.6728781    
  28010400   20272.771      113.73854     -21534723       2.2063484      60127.132     -21474596       595.24097      595.24097      595.24097      2202.3795      2797.6205      2202.3795      2797.6205      2202.3795      2797.6205      2.109009e+08   0.5            14007700       0.49396188     5483.5222      10967.004      8.6535169    
  28010600   21053.372      120.08399     -21533060       2.2063484      62442.323     -21470617       595.24097      595.24097      595.24097      2202.3795      2797.6205      2202.3795      2797.6205      2202.3795      2797.6205      2.109009e+08   0.5            14007800       0.5121648      5493.6359      10987.28       8.6336712    
  28010800   21748.972      125.00628     -21530722       2.2063484      64505.406     -21466216       595.24097      595.24097      595.24097      2202.3795      2797.6205      2202.3795      2797.6205      2202.3795      2797.6205      2.109009e+08   0.5            14007900       0.53069962     5395.2163      10790.402      8.6193298    
  28011000   22442.042      132.67345     -21528440       2.2063484      66560.986     -21461879       595.24097      595.24097      595.24097      2202.3795      2797.6205      2202.3795      2797.6205      2202.3795      2797.6205      2.109009e+08   0.5            14008000       0.54895099     5479.0636      10958.153      8.6002666    
  28011200   23217.002      139.00419     -21526966       2.2063484      68859.445     -21458107       595.24097      595.24097      595.24097      2202.3795      2797.6205      2202.3795      2797.6205      2202.3795      2797.6205      2.109009e+08   0.5            14008100       0.5673328      5440.166       10880.338      8.583228     
  28011400   24016.993      147.28899     -21525574       2.2063484      71232.143     -21454342       595.24097      595.24097      595.24097      2202.3795      2797.6205      2202.3795      2797.6205      2202.3795      2797.6205      2.109009e+08   0.5            14008200       0.58558502     5478.7886      10957.577      8.5642114    
  28011600   24739.974      156.39778     -21520450       2.2063484      73376.438     -21447073       595.24097      595.24097      595.24097      2202.3795      2797.6205      2202.3795      2797.6205      2202.3795      2797.6205      2.109009e+08   0.5            14008300       0.60380857     5487.4029      10974.846      8.5448349    
  28011800   25420.3        166.16245     -21518068       2.2063484      75394.219     -21442673       595.24097      595.24097      595.24097      2202.3795      2797.6205      2202.3795      2797.6205      2202.3795      2797.6205      2.109009e+08   0.5            14008400       0.62234024     5396.1474      10792.239      8.5297522    
  28012000   26155.864      169.69313     -21518733       2.2063484      77575.834     -21441157       595.24097      595.24097      595.24097      2202.3795      2797.6205      2202.3795      2797.6205      2202.3795      2797.6205      2.109009e+08   0.5            14008500       0.64059653     5477.5654      10955.14       8.5108123    
  28012200   26952.474      176.72531     -21515276       2.2063484      79938.505     -21435338       595.24097      595.24097      595.24097      2202.3795      2797.6205      2202.3795      2797.6205      2202.3795      2797.6205      2.109009e+08   0.5            14008600       0.65892277     5456.6751      10913.351      8.4928093    
  28012400   27713.089      183.63184     -21516967       2.2063484      82194.416     -21434772       595.24097      595.24097      595.24097      2202.3795      2797.6205      2202.3795      2797.6205      2202.3795      2797.6205      2.109009e+08   0.5            14008700       0.67713125     5491.952       10983.888      8.4733181    
  28012600   28401.398      187.3911      -21516984       2.2063484      84235.875     -21432749       595.24097      595.24097      595.24097      2202.3795      2797.6205      2202.3795      2797.6205      2202.3795      2797.6205      2.109009e+08   0.5            14008800       0.69553417     5433.8937      10867.825      8.4562573    
  28012800   29095.3        190.32799     -21517715       2.2063484      86293.924     -21431421       595.24097      595.24097      595.24097      2202.3795      2797.6205      2202.3795      2797.6205      2202.3795      2797.6205      2.109009e+08   0.5            14008900       0.71372864     5496.209       10992.42       8.4366634    
  28013000   29863.104      197.92904     -21514986       2.2063484      88571.16      -21426415       595.24097      595.24097      595.24097      2202.3795      2797.6205      2202.3795      2797.6205      2202.3795      2797.6205      2.109009e+08   0.5            14009000       0.7319434      5490.0239      10980.04       8.417374     
  28013200   30667.693      205.05057     -21514936       2.2063484      90957.496     -21423978       595.24097      595.24097      595.24097      2202.3795      2797.6205      2202.3795      2797.6205      2202.3795      2797.6205      2.109009e+08   0.5            14009100       0.75017577     5484.7712      10969.526      8.3983331    
  28013400   31389.937      210.81422     -21513315       2.2063484      93099.601     -21420215       595.24097      595.24097      595.24097      2202.3795      2797.6205      2202.3795      2797.6205      2202.3795      2797.6205      2.109009e+08   0.5            14009200       0.76866758     5407.7831      10815.624      8.3821594    
  28013600   32059.797      215.85508     -21512016       2.2063484      95086.343     -21416930       595.24097      595.24097      595.24097      2202.3795      2797.6205      2202.3795      2797.6205      2202.3795      2797.6205      2.109009e+08   0.5            14009300       0.7868458      5501.1023      11002.185      8.3625454    
  28013800   32787.598      224.24228     -21509535       2.2063484      97244.933     -21412290       595.24097      595.24097      595.24097      2202.3795      2797.6205      2202.3795      2797.6205      2202.3795      2797.6205      2.109009e+08   0.5            14009400       0.8052107      5445.1716      10890.315      8.3449326    
  28014000   33596.404      228.84246     -21512287       2.2063484      99643.777     -21412644       595.24097      595.24097      595.24097      2202.3795      2797.6205      2202.3795      2797.6205      2202.3795      2797.6205      2.109009e+08   0.5            14009500       0.82480509     5103.469       10206.922      8.3397189    
  28014200   34377.35       236.8678      -21512755       2.2063484      101959.99     -21410795       595.24097      595.24097      595.24097      2202.3795      2797.6205      2202.3795      2797.6205      2202.3795      2797.6205      2.109009e+08   0.5            14009600       0.84354484     5336.2804      10672.604      8.3254413    
  28014400   35047.262      244.10171     -21509350       2.2063484      103946.88     -21405403       595.24097      595.24097      595.24097      2202.3795      2797.6205      2202.3795      2797.6205      2202.3795      2797.6205      2.109009e+08   0.5            14009700       0.8625296      5267.3809      10534.74       8.3133381    
  28014600   35726.068      251.18082     -21512513       2.2063484      105960.16     -21406553       595.24097      595.24097      595.24097      2202.3795      2797.6205      2202.3795      2797.6205      2202.3795      2797.6205      2.109009e+08   0.5            14009800       0.8817818      5194.2151      10388.419      8.3034654    
  28014800   36524.174      257.34808     -21510159       2.2063484      108327.27     -21401832       595.24097      595.24097      595.24097      2202.3795      2797.6205      2202.3795      2797.6205      2202.3795      2797.6205      2.109009e+08   0.5            14009900       0.90025311     5413.7909      10827.611      8.2860225    
  28015000   37329.227      262.42173     -21506217       2.2063484      110714.98     -21395502       595.24097      595.24097      595.24097      2202.3795      2797.6205      2202.3795      2797.6205      2202.3795      2797.6205      2.109009e+08   0.5            14010000       0.91866498     5431.275       10862.5        8.2680052    
  28015200   38044.065      273.86946     -21504499       2.2063484      112835.12     -21391664       595.24097      595.24097      595.24097      2202.3795      2797.6205      2202.3795      2797.6205      2202.3795      2797.6205      2.109009e+08   0.5            14010100       0.93724249     5382.8423      10765.694      8.2514292    
  28015400   38709.372      280.51975     -21503886       2.2063484      114808.36     -21389078       595.24097      595.24097      595.24097      2202.3795      2797.6205      2202.3795      2797.6205      2202.3795      2797.6205      2.109009e+08   0.5            14010200       0.95580871     5386.1417      10772.289      8.2346784    
  28015600   39454.166      286.39132     -21508717       2.2063484      117017.35     -21391700       595.24097      595.24097      595.24097      2202.3795      2797.6205      2202.3795      2797.6205      2202.3795      2797.6205      2.109009e+08   0.5            14010300       0.97422211     5430.8461      10861.698      8.2165703    
  28015800   40262.531      292.68149     -21504586       2.2063484      119414.88     -21385171       595.24097      595.24097      595.24097      2202.3795      2797.6205      2202.3795      2797.6205      2202.3795      2797.6205      2.109009e+08   0.5            14010400       0.99271038     5408.8141      10817.658      8.1990702    
  28016000   41021.609      299.32317     -21493801       2.2063484      121666.24     -21372134       595.24097      595.24097      595.24097      2202.3795      2797.6205      2202.3795      2797.6205      2202.3795      2797.6205      2.109009e+08   0.5            14010500       1.0110494      5452.8791      10905.727      8.1803259    
  28016200   41707.487      308.63334     -21492261       2.2063484      123700.48     -21368560       595.24097      595.24097      595.24097      2202.3795      2797.6205      2202.3795      2797.6205      2202.3795      2797.6205      2.109009e+08   0.5            14010600       1.0296901      5364.6094      10729.228      8.163988     
  28016400   42412.468      316.22475     -21492218       2.2063484      125791.39     -21366427       595.24097      595.24097      595.24097      2202.3795      2797.6205      2202.3795      2797.6205      2202.3795      2797.6205      2.109009e+08   0.5            14010700       1.0481939      5404.2883      10808.603      8.1465049    
  28016600   43198.493      325.19515     -21488005       2.2063484      128122.67     -21359882       595.24097      595.24097      595.24097      2202.3795      2797.6205      2202.3795      2797.6205      2202.3795      2797.6205      2.109009e+08   0.5            14010800       1.066491       5465.3491      10930.672      8.1274126    
  28016800   43989.958      332.97836     -21486054       2.2063484      130470.08     -21355584       595.24097      595.24097      595.24097      2202.3795      2797.6205      2202.3795      2797.6205      2202.3795      2797.6205      2.109009e+08   0.5            14010900       1.0848109      5458.5546      10917.12       8.1085173    
  28017000   44693.495      340.35778     -21485618       2.2063484      132556.7      -21353061       595.24097      595.24097      595.24097      2202.3795      2797.6205      2202.3795      2797.6205      2202.3795      2797.6205      2.109009e+08   0.5            14011000       1.1033392      5397.1521      10794.298      8.0911693    
  28017200   45389.576      350.73302     -21481402       2.2063484      134621.21     -21346781       595.24097      595.24097      595.24097      2202.3795      2797.6205      2202.3795      2797.6205      2202.3795      2797.6205      2.109009e+08   0.5            14011100       1.1218984      5388.1752      10776.359      8.0740044    
  28017400   46158.26       356.98566     -21486487       2.2063484      136901.06     -21349586       595.24097      595.24097      595.24097      2202.3795      2797.6205      2202.3795      2797.6205      2202.3795      2797.6205      2.109009e+08   0.5            14011200       1.1405596      5358.6846      10717.364      8.0575163    
  28017600   46949.261      363.68661     -21484214       2.2063484      139247.1      -21344967       595.24097      595.24097      595.24097      2202.3795      2797.6205      2202.3795      2797.6205      2202.3795      2797.6205      2.109009e+08   0.5            14011300       1.1595215      5273.7442      10547.485      8.0430442    
  28017800   47686.78       374.70701     -21472706       2.2063484      141434.51     -21331271       595.24097      595.24097      595.24097      2202.3795      2797.6205      2202.3795      2797.6205      2202.3795      2797.6205      2.109009e+08   0.5            14011400       1.1782737      5332.7125      10665.425      8.0270036    
  28018000   48378.703      378.88633     -21467879       2.2063484      143486.69     -21324393       595.24097      595.24097      595.24097      2202.3795      2797.6205      2202.3795      2797.6205      2202.3795      2797.6205      2.109009e+08   0.5            14011500       1.1966149      5452.1914      10904.352      8.0081293    
  28018200   49115.303      383.58942     -21470282       2.2063484      145671.37     -21324610       595.24097      595.24097      595.24097      2202.3795      2797.6205      2202.3795      2797.6205      2202.3795      2797.6205      2.109009e+08   0.5            14011600       1.2152064      5378.7955      10757.619      7.9909169    
  28018400   49909.017      396.42189     -21464174       2.2063484      148025.45     -21316149       595.24097      595.24097      595.24097      2202.3795      2797.6205      2202.3795      2797.6205      2202.3795      2797.6205      2.109009e+08   0.5            14011700       1.2334253      5488.8134      10977.644      7.9712544    
  28018600   50680.762      403.90683     -21462435       2.2063484      150314.38     -21312121       595.24097      595.24097      595.24097      2202.3795      2797.6205      2202.3795      2797.6205      2202.3795      2797.6205      2.109009e+08   0.5            14011800       1.2516504      5486.9567      10973.877      7.9516743    
  28018800   51386.816      411.17872     -21461067       2.2063484      152408.47     -21308658       595.24097      595.24097      595.24097      2202.3795      2797.6205      2202.3795      2797.6205      2202.3795      2797.6205      2.109009e+08   0.5            14011900       1.2699116      5476.0944      10952.211      7.9323586    
  28019000   52098.955      420.90466     -21458576       2.2063484      154520.6      -21304055       595.24097      595.24097      595.24097      2202.3795      2797.6205      2202.3795      2797.6205      2202.3795      2797.6205      2.109009e+08   0.5            14012000       1.2884039      5407.6421      10815.302      7.9144937    
  28019200   52905.254      425.37927     -21457982       2.2063484      156912.01     -21301070       595.24097      595.24097      595.24097      2202.3795      2797.6205      2202.3795      2797.6205      2202.3795      2797.6205      2.109009e+08   0.5            14012100       1.3067199      5459.6993      10919.386      7.8955458    
  28019400   53715.345      434.34574     -21455441       2.2063484      159314.66     -21296126       595.24097      595.24097      595.24097      2202.3795      2797.6205      2202.3795      2797.6205      2202.3795      2797.6205      2.109009e+08   0.5            14012200       1.3250182      5465.0002      10930.03       7.8765087    
  28019600   54503.912      440.54713     -21451718       2.2063484      161653.48     -21290065       595.24097      595.24097      595.24097      2202.3795      2797.6205      2202.3795      2797.6205      2202.3795      2797.6205      2.109009e+08   0.5            14012300       1.3432412      5487.5619      10975.106      7.8570528    
  28019800   55392.461      453.64989     -21442066       2.2063484      164288.83     -21277777       595.24097      595.24097      595.24097      2202.3795      2797.6205      2202.3795      2797.6205      2202.3795      2797.6205      2.109009e+08   0.5            14012400       1.3618204      5382.3619      10764.717      7.8396805    
  28020000   56632.392      463.67945     -21434933       2.2063484      167966.35     -21266967       595.24097      595.24097      595.24097      2202.3795      2797.6205      2202.3795      2797.6205      2202.3795      2797.6205      2.109009e+08   0.5            14012500       1.3801103      5467.5029      10934.975      7.820637     
  28020200   58261.322      477.4231      -21436613       2.2063484      172797.6      -21263815       595.24097      595.24097      595.24097      2202.3795      2797.6205      2202.3795      2797.6205      2202.3795      2797.6205      2.109009e+08   0.5            14012600       1.3983744      5475.2399      10950.488      7.8014681    
  28020400   58985.453      485.85775     -21437002       2.2063484      174945.31     -21262057       595.24097      595.24097      595.24097      2202.3795      2797.6205      2202.3795      2797.6205      2202.3795      2797.6205      2.109009e+08   0.5            14012700       1.4168494      5412.6912      10825.395      7.7834828    
  28020600   57210.48       495.61647     -21433945       2.2063484      169680.91     -21264264       595.24097      595.24097      595.24097      2202.3795      2797.6205      2202.3795      2797.6205      2202.3795      2797.6205      2.109009e+08   0.5            14012800       1.435136       5468.5022      10936.995      7.7644648    
  28020800   55754.05       504.39993     -21421973       2.2063484      165361.27     -21256611       595.24097      595.24097      595.24097      2202.3795      2797.6205      2202.3795      2797.6205      2202.3795      2797.6205      2.109009e+08   0.5            14012900       1.4533448      5491.8374      10983.671      7.745051     
  28021000   58810.796      513.3316      -21419613       2.2063484      174427.29     -21245186       595.24097      595.24097      595.24097      2202.3795      2797.6205      2202.3795      2797.6205      2202.3795      2797.6205      2.109009e+08   0.5            14013000       1.4717716      5426.8782      10853.746      7.726812     
  28021200   59943.711      526.46522     -21416762       2.2063484      177787.41     -21238975       595.24097      595.24097      595.24097      2202.3795      2797.6205      2202.3795      2797.6205      2202.3795      2797.6205      2.109009e+08   0.5            14013100       1.4903086      5394.6217      10789.261      7.7091379    
  28021400   60724.878      534.848       -21413489       2.2063484      180104.28     -21233385       595.24097      595.24097      595.24097      2202.3795      2797.6205      2202.3795      2797.6205      2202.3795      2797.6205      2.109009e+08   0.5            14013200       1.5086799      5443.288       10886.548      7.6905983    
  28021600   61976.542      547.56615     -21410905       2.2063484      183816.6      -21227088       595.24097      595.24097      595.24097      2202.3795      2797.6205      2202.3795      2797.6205      2202.3795      2797.6205      2.109009e+08   0.5            14013300       1.5270196      5452.6504      10905.345      7.6719035    
  28021800   63047.853      560.13103     -21400376       2.2063484      186994.01     -21213382       595.24097      595.24097      595.24097      2202.3795      2797.6205      2202.3795      2797.6205      2202.3795      2797.6205      2.109009e+08   0.5            14013400       1.5453056      5468.6544      10937.291      7.652952     
  28022000   64831.603      573.74464     -21397030       2.2063484      192284.44     -21204746       595.24097      595.24097      595.24097      2202.3795      2797.6205      2202.3795      2797.6205      2202.3795      2797.6205      2.109009e+08   0.5            14013500       1.5641132      5316.9667      10633.932      7.6365634    
  28022200   67466.103      585.25238     -21394393       2.2063484      200098.12     -21194295       595.24097      595.24097      595.24097      2202.3795      2797.6205      2202.3795      2797.6205      2202.3795      2797.6205      2.109009e+08   0.5            14013600       1.5824126      5464.7004      10929.408      7.6176705    
  28022400   64031.272      592.80057     -21399184       2.2063484      189910.73     -21209274       595.24097      595.24097      595.24097      2202.3795      2797.6205      2202.3795      2797.6205      2202.3795      2797.6205      2.109009e+08   0.5            14013700       1.600676       5475.4093      10950.815      7.5986214    
  28022600   62355.89       603.0489      -21405298       2.2063484      184941.71     -21220356       595.24097      595.24097      595.24097      2202.3795      2797.6205      2202.3795      2797.6205      2202.3795      2797.6205      2.109009e+08   0.5            14013800       1.6191795      5404.4011      10808.856      7.580713     
  28022800   63774.907      616.03131     -21402597       2.2063484      189150.38     -21213447       595.24097      595.24097      595.24097      2202.3795      2797.6205      2202.3795      2797.6205      2202.3795      2797.6205      2.109009e+08   0.5            14013900       1.6375263      5450.5525      10901.074      7.5620686    
  28023000   65922.673      629.48259     -21399645       2.2063484      195520.45     -21204125       595.24097      595.24097      595.24097      2202.3795      2797.6205      2202.3795      2797.6205      2202.3795      2797.6205      2.109009e+08   0.5            14014000       1.6559069      5440.5076      10880.987      7.5435854    
  28023200   67781.273      641.49533     -21390133       2.2063484      201032.88     -21189100       595.24097      595.24097      595.24097      2202.3795      2797.6205      2202.3795      2797.6205      2202.3795      2797.6205      2.109009e+08   0.5            14014100       1.6742841      5441.5162      10883.03       7.5250885    
  28023400   68608.403      648.72949     -21387348       2.2063484      203486.07     -21183862       595.24097      595.24097      595.24097      2202.3795      2797.6205      2202.3795      2797.6205      2202.3795      2797.6205      2.109009e+08   0.5            14014200       1.6928655      5381.7232      10763.45       7.5075       
  28023600   69313.001      661.19403     -21382698       2.2063484      205575.84     -21177123       595.24097      595.24097      595.24097      2202.3795      2797.6205      2202.3795      2797.6205      2202.3795      2797.6205      2.109009e+08   0.5            14014300       1.7112026      5453.4319      10906.859      7.4888203    
  28023800   72282.879      675.98175     -21372966       2.2063484      214384.22     -21158582       595.24097      595.24097      595.24097      2202.3795      2797.6205      2202.3795      2797.6205      2202.3795      2797.6205      2.109009e+08   0.5            14014400       1.7296172      5430.4964      10861.006      7.4704829    
  28024000   73074.233      682.03625     -21372141       2.2063484      216731.31     -21155410       595.24097      595.24097      595.24097      2202.3795      2797.6205      2202.3795      2797.6205      2202.3795      2797.6205      2.109009e+08   0.5            14014500       1.7480297      5431.0783      10862.109      7.4521356    
  28024200   68343.925      689.38981     -21377610       2.2063484      202701.66     -21174908       595.24097      595.24097      595.24097      2202.3795      2797.6205      2202.3795      2797.6205      2202.3795      2797.6205      2.109009e+08   0.5            14014600       1.7667804      5333.1183      10666.266      7.4352097    
  28024400   67690.264      698.23588     -21371573       2.2063484      200762.96     -21170810       595.24097      595.24097      595.24097      2202.3795      2797.6205      2202.3795      2797.6205      2202.3795      2797.6205      2.109009e+08   0.5            14014700       1.785078       5465.1854      10930.361      7.4163639    
  28024600   70450.973      709.14058     -21369709       2.2063484      208950.96     -21160758       595.24097      595.24097      595.24097      2202.3795      2797.6205      2202.3795      2797.6205      2202.3795      2797.6205      2.109009e+08   0.5            14014800       1.8033834      5462.9077      10925.855      7.3975603    
  28024800   72886.908      719.23279     -21367804       2.2063484      216175.72     -21151628       595.24097      595.24097      595.24097      2202.3795      2797.6205      2202.3795      2797.6205      2202.3795      2797.6205      2.109009e+08   0.5            14014900       1.8218771      5407.2184      10814.454      7.3795306    
  28025000   75205.276      731.67119     -21358269       2.2063484      223051.78     -21135217       595.24097      595.24097      595.24097      2202.3795      2797.6205      2202.3795      2797.6205      2202.3795      2797.6205      2.109009e+08   0.5            14015000       1.8402282      5449.2798      10898.502      7.3609212    
  28025200   75537.313      741.00193     -21353581       2.2063484      224036.57     -21129544       595.24097      595.24097      595.24097      2202.3795      2797.6205      2202.3795      2797.6205      2202.3795      2797.6205      2.109009e+08   0.5            14015100       1.8586089      5440.4836      10880.978      7.3424334    
  28025400   75099.679      754.91853     -21352251       2.2063484      222738.59     -21129512       595.24097      595.24097      595.24097      2202.3795      2797.6205      2202.3795      2797.6205      2202.3795      2797.6205      2.109009e+08   0.5            14015200       1.8771284      5399.7103      10799.468      7.3244893    
  28025600   77039.638      762.768       -21363363       2.2063484      228492.32     -21134870       595.24097      595.24097      595.24097      2202.3795      2797.6205      2202.3795      2797.6205      2202.3795      2797.6205      2.109009e+08   0.5            14015300       1.8953915      5475.5307      10951.06       7.3055457    
  28025800   79425.199      774.30873     -21359974       2.2063484      235567.67     -21124406       595.24097      595.24097      595.24097      2202.3795      2797.6205      2202.3795      2797.6205      2202.3795      2797.6205      2.109009e+08   0.5            14015400       1.9136456      5478.2264      10956.426      7.2865812    
  28026000   77705.085      778.80275     -21358011       2.2063484      230465.98     -21127545       595.24097      595.24097      595.24097      2202.3795      2797.6205      2202.3795      2797.6205      2202.3795      2797.6205      2.109009e+08   0.5            14015500       1.932269       5369.5608      10739.137      7.2690198    
  28026200   74065.533      792.40338     -21349842       2.2063484      219671.41     -21130171       595.24097      595.24097      595.24097      2202.3795      2797.6205      2202.3795      2797.6205      2202.3795      2797.6205      2.109009e+08   0.5            14015600       1.9505989      5455.5984      10911.177      7.2503468    
  28026400   76440.883      806.93828     -21345355       2.2063484      226716.47     -21118638       595.24097      595.24097      595.24097      2202.3795      2797.6205      2202.3795      2797.6205      2202.3795      2797.6205      2.109009e+08   0.5            14015700       1.9691274      5397.0729      10794.141      7.2324101    
  28026600   80272.857      816.15654     -21342729       2.2063484      238081.75     -21104648       595.24097      595.24097      595.24097      2202.3795      2797.6205      2202.3795      2797.6205      2202.3795      2797.6205      2.109009e+08   0.5            14015800       1.9873696      5481.8328      10963.666      7.2134226    
  28026800   81407.867      827.41294     -21331992       2.2063484      241448.08     -21090544       595.24097      595.24097      595.24097      2202.3795      2797.6205      2202.3795      2797.6205      2202.3795      2797.6205      2.109009e+08   0.5            14015900       2.0060516      5352.6995      10705.411      7.1960274    
  28027000   81861.315      835.16105     -21334860       2.2063484      242792.97     -21092067       595.24097      595.24097      595.24097      2202.3795      2797.6205      2202.3795      2797.6205      2202.3795      2797.6205      2.109009e+08   0.5            14016000       2.0243993      5450.2795      10900.549      7.1774231    
  28027200   82787.073      846.21316     -21328481       2.2063484      245538.68     -21082942       595.24097      595.24097      595.24097      2202.3795      2797.6205      2202.3795      2797.6205      2202.3795      2797.6205      2.109009e+08   0.5            14016100       2.0427932      5436.6207      10873.253      7.1589848    
  28027400   85032.234      858.28334     -21325899       2.2063484      252197.61     -21073701       595.24097      595.24097      595.24097      2202.3795      2797.6205      2202.3795      2797.6205      2202.3795      2797.6205      2.109009e+08   0.5            14016200       2.0614409      5362.5525      10725.083      7.1414277    
  28027600   86014.075      869.45201     -21329944       2.2063484      255109.66     -21074834       595.24097      595.24097      595.24097      2202.3795      2797.6205      2202.3795      2797.6205      2202.3795      2797.6205      2.109009e+08   0.5            14016300       2.0798297      5438.1069      10876.235      7.1229636    
  28027800   82931.401      877.83293     -21323937       2.2063484      245966.74     -21077970       595.24097      595.24097      595.24097      2202.3795      2797.6205      2202.3795      2797.6205      2202.3795      2797.6205      2.109009e+08   0.5            14016400       2.098155       5456.9318      10913.836      7.1042862    
  28028000   80507.3        887.17659     -21336069       2.2063484      238777.08     -21097292       595.24097      595.24097      595.24097      2202.3795      2797.6205      2202.3795      2797.6205      2202.3795      2797.6205      2.109009e+08   0.5            14016500       2.1167522      5377.1521      10754.298      7.0865256    
  28028200   85531.644      901.7993      -21329547       2.2063484      253678.82     -21075868       595.24097      595.24097      595.24097      2202.3795      2797.6205      2202.3795      2797.6205      2202.3795      2797.6205      2.109009e+08   0.5            14016600       2.1351061      5448.4437      10896.897      7.0679443    
  28028400   87095.981      914.73257     -21327165       2.2063484      258318.49     -21068846       595.24097      595.24097      595.24097      2202.3795      2797.6205      2202.3795      2797.6205      2202.3795      2797.6205      2.109009e+08   0.5            14016700       2.15347        5445.4465      10890.917      7.0494001    
  28028600   87441.981      920.68316     -21327409       2.2063484      259344.7      -21068064       595.24097      595.24097      595.24097      2202.3795      2797.6205      2202.3795      2797.6205      2202.3795      2797.6205      2.109009e+08   0.5            14016800       2.1720539      5381.0172      10762.047      7.031571     
  28028800   88735.909      933.46499     -21332408       2.2063484      263182.37     -21069226       595.24097      595.24097      595.24097      2202.3795      2797.6205      2202.3795      2797.6205      2202.3795      2797.6205      2.109009e+08   0.5            14016900       2.1903176      5475.3394      10950.654      7.0127042    
  28029000   91648.635      944.76653     -21331080       2.2063484      271821.24     -21059259       595.24097      595.24097      595.24097      2202.3795      2797.6205      2202.3795      2797.6205      2202.3795      2797.6205      2.109009e+08   0.5            14017000       2.2088996      5381.5607      10763.132      6.9948553    
  28029200   92140.594      959.0984      -21330639       2.2063484      273280.34     -21057359       595.24097      595.24097      595.24097      2202.3795      2797.6205      2202.3795      2797.6205      2202.3795      2797.6205      2.109009e+08   0.5            14017100       2.2272628      5445.6897      10891.368      6.9763087    
  28029400   86859.323      964.59104     -21330008       2.2063484      257616.59     -21072391       595.24097      595.24097      595.24097      2202.3795      2797.6205      2202.3795      2797.6205      2202.3795      2797.6205      2.109009e+08   0.5            14017200       2.2455008      5483.0486      10966.1        6.9573775    
  28029600   86242.013      976.59433     -21320921       2.2063484      255785.7      -21065135       595.24097      595.24097      595.24097      2202.3795      2797.6205      2202.3795      2797.6205      2202.3795      2797.6205      2.109009e+08   0.5            14017300       2.2642295      5339.3906      10678.803      6.9399617    
  28029800   91153.402      985.87472     -21321186       2.2063484      270352.42     -21050833       595.24097      595.24097      595.24097      2202.3795      2797.6205      2202.3795      2797.6205      2202.3795      2797.6205      2.109009e+08   0.5            14017400       2.2827287      5405.6462      10811.294      6.9218285    
  28030000   92587.938      997.08454     -21329445       2.2063484      274607.12     -21054838       595.24097      595.24097      595.24097      2202.3795      2797.6205      2202.3795      2797.6205      2202.3795      2797.6205      2.109009e+08   0.5            14017500       2.3010066      5471.0806      10942.139      6.903026     
  28030200   93930.437      1012.4175     -21322696       2.2063484      278588.85     -21044107       595.24097      595.24097      595.24097      2202.3795      2797.6205      2202.3795      2797.6205      2202.3795      2797.6205      2.109009e+08   0.5            14017600       2.3195625      5389.1238      10778.24       6.8850569    
  28030400   95277.968      1029.7642     -21318478       2.2063484      282585.5      -21035893       595.24097      595.24097      595.24097      2202.3795      2797.6205      2202.3795      2797.6205      2202.3795      2797.6205      2.109009e+08   0.5            14017700       2.3378496      5468.3488      10936.671      6.8662888    
  28030600   96733.671      1038.0451     -21319069       2.2063484      286902.98     -21032166       595.24097      595.24097      595.24097      2202.3795      2797.6205      2202.3795      2797.6205      2202.3795      2797.6205      2.109009e+08   0.5            14017800       2.3563718      5398.9165      10797.853      6.8482115    
  28030800   97777.067      1054.3234     -21319370       2.2063484      289997.59     -21029372       595.24097      595.24097      595.24097      2202.3795      2797.6205      2202.3795      2797.6205      2202.3795      2797.6205      2.109009e+08   0.5            14017900       2.3747376      5444.9095      10889.833      6.8296774    
  28031000   95931.048      1063.6275     -21314128       2.2063484      284522.47     -21029606       595.24097      595.24097      595.24097      2202.3795      2797.6205      2202.3795      2797.6205      2202.3795      2797.6205      2.109009e+08   0.5            14018000       2.3931351      5435.509       10870.997      6.8112366    
  28031200   93797.956      1076.59       -21308743       2.2063484      278195.92     -21030547       595.24097      595.24097      595.24097      2202.3795      2797.6205      2202.3795      2797.6205      2202.3795      2797.6205      2.109009e+08   0.5            14018100       2.4116457      5402.2978      10804.626      6.7931147    
  28031400   97950.45       1091.2465     -21303324       2.2063484      290511.83     -21012812       595.24097      595.24097      595.24097      2202.3795      2797.6205      2202.3795      2797.6205      2202.3795      2797.6205      2.109009e+08   0.5            14018200       2.4299303      5469.109       10938.18       6.7743569    
  28031600   100124.55      1107.0076     -21300740       2.2063484      296960        -21003780       595.24097      595.24097      595.24097      2202.3795      2797.6205      2202.3795      2797.6205      2202.3795      2797.6205      2.109009e+08   0.5            14018300       2.4483808      5419.895       10839.759      6.7560644    
  28031800   98673.963      1119.7795     -21296189       2.2063484      292657.7      -21003532       595.24097      595.24097      595.24097      2202.3795      2797.6205      2202.3795      2797.6205      2202.3795      2797.6205      2.109009e+08   0.5            14018400       2.4669659      5380.6663      10761.389      6.7381361    
  28032000   98752.473      1133.8472     -21297858       2.2063484      292890.55     -21004968       595.24097      595.24097      595.24097      2202.3795      2797.6205      2202.3795      2797.6205      2202.3795      2797.6205      2.109009e+08   0.5            14018500       2.485201       5483.9131      10967.802      6.7192528    
  28032200   104559.4       1146.8611     -21301678       2.2063484      310113.36     -20991564       595.24097      595.24097      595.24097      2202.3795      2797.6205      2202.3795      2797.6205      2202.3795      2797.6205      2.109009e+08   0.5            14018600       2.5033879      5498.4986      10996.982      6.7002495    
  28032400   103153.02      1164.1706     -21299515       2.2063484      305942.16     -20993573       595.24097      595.24097      595.24097      2202.3795      2797.6205      2202.3795      2797.6205      2202.3795      2797.6205      2.109009e+08   0.5            14018700       2.5219721      5380.8825      10761.811      6.682311     
  28032600   99517.799      1179.6968     -21291870       2.2063484      295160.44     -20996710       595.24097      595.24097      595.24097      2202.3795      2797.6205      2202.3795      2797.6205      2202.3795      2797.6205      2.109009e+08   0.5            14018800       2.5403478      5441.9903      10883.993      6.663816     
  28032800   101668.64      1190.3442     -21287614       2.2063484      301539.63     -20986075       595.24097      595.24097      595.24097      2202.3795      2797.6205      2202.3795      2797.6205      2202.3795      2797.6205      2.109009e+08   0.5            14018900       2.559013       5357.5403      10715.076      6.646075     
  28033000   106881.53      1204.6445     -21281793       2.2063484      317000.58     -20964792       595.24097      595.24097      595.24097      2202.3795      2797.6205      2202.3795      2797.6205      2202.3795      2797.6205      2.109009e+08   0.5            14019000       2.57749        5412.1097      10824.163      6.6278373    
  28033200   104181.86      1218.0229     -21279021       2.2063484      308993.61     -20970027       595.24097      595.24097      595.24097      2202.3795      2797.6205      2202.3795      2797.6205      2202.3795      2797.6205      2.109009e+08   0.5            14019100       2.595897       5432.7332      10865.503      6.6094168    
  28033400   102413.49      1225.8583     -21265719       2.2063484      303748.79     -20961970       595.24097      595.24097      595.24097      2202.3795      2797.6205      2202.3795      2797.6205      2202.3795      2797.6205      2.109009e+08   0.5            14019200       2.6141891      5466.8436      10933.66       6.5907075    
  28033600   106597.73      1241.0756     -21271502       2.2063484      316158.83     -20955343       595.24097      595.24097      595.24097      2202.3795      2797.6205      2202.3795      2797.6205      2202.3795      2797.6205      2.109009e+08   0.5            14019300       2.6327608      5384.5593      10769.143      6.5727015    
  28033800   108914.36      1251.1414     -21278110       2.2063484      323029.75     -20955080       595.24097      595.24097      595.24097      2202.3795      2797.6205      2202.3795      2797.6205      2202.3795      2797.6205      2.109009e+08   0.5            14019400       2.6511239      5445.692       10891.361      6.5541726    
  28034000   106935.68      1262.9261     -21276823       2.2063484      317161.18     -20959662       595.24097      595.24097      595.24097      2202.3795      2797.6205      2202.3795      2797.6205      2202.3795      2797.6205      2.109009e+08   0.5            14019500       2.6695502      5427.0181      10854.058      6.5358004    
  28034200   106359.95      1273.6606     -21283876       2.2063484      315453.6      -20968423       595.24097      595.24097      595.24097      2202.3795      2797.6205      2202.3795      2797.6205      2202.3795      2797.6205      2.109009e+08   0.5            14019600       2.6881579      5374.1236      10748.246      6.5178673    
  28034400   111722.2       1287.6349     -21265616       2.2063484      331357.54     -20934259       595.24097      595.24097      595.24097      2202.3795      2797.6205      2202.3795      2797.6205      2202.3795      2797.6205      2.109009e+08   0.5            14019700       2.7064187      5476.2224      10952.452      6.4990919    
  28034600   115432.06      1302.0002     -21267496       2.2063484      342360.65     -20925135       595.24097      595.24097      595.24097      2202.3795      2797.6205      2202.3795      2797.6205      2202.3795      2797.6205      2.109009e+08   0.5            14019800       2.7248741      5418.4577      10836.925      6.4807865    
  28034800   110847.59      1307.7333     -21268885       2.2063484      328763.53     -20940121       595.24097      595.24097      595.24097      2202.3795      2797.6205      2202.3795      2797.6205      2202.3795      2797.6205      2.109009e+08   0.5            14019900       2.7433584      5410.0065      10820.018      6.4625469    
  28035000   108285.43      1318.4028     -21275408       2.2063484      321164.39     -20954244       595.24097      595.24097      595.24097      2202.3795      2797.6205      2202.3795      2797.6205      2202.3795      2797.6205      2.109009e+08   0.5            14020000       2.7616876      5455.7832      10911.508      6.4439427    
  28035200   111367.71      1322.1641     -21275370       2.2063484      330306.15     -20945064       595.24097      595.24097      595.24097      2202.3795      2797.6205      2202.3795      2797.6205      2202.3795      2797.6205      2.109009e+08   0.5            14020100       2.7799333      5480.7287      10961.51       6.4251486    
  28035400   115589.24      1337.8553     -21277389       2.2063484      342826.83     -20934562       595.24097      595.24097      595.24097      2202.3795      2797.6205      2202.3795      2797.6205      2202.3795      2797.6205      2.109009e+08   0.5            14020200       2.7984324      5405.6719      10811.328      6.406942     
  28035600   114015.28      1343.6929     -21273459       2.2063484      338158.61     -20935300       595.24097      595.24097      595.24097      2202.3795      2797.6205      2202.3795      2797.6205      2202.3795      2797.6205      2.109009e+08   0.5            14020300       2.8166795      5480.3172      10960.646      6.3881601    
  28035800   112641.87      1349.5595     -21284018       2.2063484      334085.2      -20949932       595.24097      595.24097      595.24097      2202.3795      2797.6205      2202.3795      2797.6205      2202.3795      2797.6205      2.109009e+08   0.5            14020400       2.8354565      5325.6925      10651.363      6.3705756    
  28036000   113556.92      1359.5151     -21281755       2.2063484      336799.16     -20944956       595.24097      595.24097      595.24097      2202.3795      2797.6205      2202.3795      2797.6205      2202.3795      2797.6205      2.109009e+08   0.5            14020500       2.8540322      5383.3532      10766.704      6.352528     
  28036200   115625.44      1374.3444     -21278903       2.2063484      342934.2      -20935969       595.24097      595.24097      595.24097      2202.3795      2797.6205      2202.3795      2797.6205      2202.3795      2797.6205      2.109009e+08   0.5            14020600       2.8729605      5283.0927      10566.202      6.3352508    
  28036400   116499.87      1384.3984     -21276211       2.2063484      345527.68     -20930683       595.24097      595.24097      595.24097      2202.3795      2797.6205      2202.3795      2797.6205      2202.3795      2797.6205      2.109009e+08   0.5            14020700       2.8911861      5486.7953      10973.605      6.3164173    
  28036600   116113.37      1393.607      -21271739       2.2063484      344381.33     -20927357       595.24097      595.24097      595.24097      2202.3795      2797.6205      2202.3795      2797.6205      2202.3795      2797.6205      2.109009e+08   0.5            14020800       2.9097183      5396.0015      10792.022      6.2982554    
  28036800   116456.97      1403.3979     -21277511       2.2063484      345400.43     -20932111       595.24097      595.24097      595.24097      2202.3795      2797.6205      2202.3795      2797.6205      2202.3795      2797.6205      2.109009e+08   0.5            14020900       2.9279179      5494.6311      10989.23       6.2793755    
  28037000   118724.71      1418.5761     -21274585       2.2063484      352126.32     -20922459       595.24097      595.24097      595.24097      2202.3795      2797.6205      2202.3795      2797.6205      2202.3795      2797.6205      2.109009e+08   0.5            14021000       2.9461535      5483.7709      10967.557      6.2605807    
  28037200   121401.52      1430.2899     -21273626       2.2063484      360065.5      -20913561       595.24097      595.24097      595.24097      2202.3795      2797.6205      2202.3795      2797.6205      2202.3795      2797.6205      2.109009e+08   0.5            14021100       2.964866       5344.0008      10688.023      6.2427968    
  28037400   123093.53      1445.1813     -21267562       2.2063484      365083.83     -20902478       595.24097      595.24097      595.24097      2202.3795      2797.6205      2202.3795      2797.6205      2202.3795      2797.6205      2.109009e+08   0.5            14021200       2.9832616      5436.1142      10872.201      6.2243401    
  28037600   124000.56      1457.7572     -21261246       2.2063484      367774        -20893472       595.24097      595.24097      595.24097      2202.3795      2797.6205      2202.3795      2797.6205      2202.3795      2797.6205      2.109009e+08   0.5            14021300       3.0015876      5456.7252      10913.452      6.2057405    
  28037800   119791.99      1471.0723     -21259080       2.2063484      355291.77     -20903788       595.24097      595.24097      595.24097      2202.3795      2797.6205      2202.3795      2797.6205      2202.3795      2797.6205      2.109009e+08   0.5            14021400       3.0200954      5403.1256      10806.245      6.1875167    
  28038000   117540.86      1483.4813     -21255086       2.2063484      348615.16     -20906470       595.24097      595.24097      595.24097      2202.3795      2797.6205      2202.3795      2797.6205      2202.3795      2797.6205      2.109009e+08   0.5            14021500       3.0385053      5431.8704      10863.734      6.1690907    
  28038200   123728.87      1493.0009     -21254578       2.2063484      366968.18     -20887610       595.24097      595.24097      595.24097      2202.3795      2797.6205      2202.3795      2797.6205      2202.3795      2797.6205      2.109009e+08   0.5            14021600       3.0567814      5471.608       10943.209      6.1503957    
  28038400   125068.2       1508.729      -21268485       2.2063484      370940.53     -20897545       595.24097      595.24097      595.24097      2202.3795      2797.6205      2202.3795      2797.6205      2202.3795      2797.6205      2.109009e+08   0.5            14021700       3.0753715      5379.2179      10758.428      6.1323318    
  28038600   123394.15      1520.0298     -21259214       2.2063484      365975.46     -20893238       595.24097      595.24097      595.24097      2202.3795      2797.6205      2202.3795      2797.6205      2202.3795      2797.6205      2.109009e+08   0.5            14021800       3.0936934      5457.9349      10915.879      6.1137315    
  28038800   124418.97      1536.4784     -21254840       2.2063484      369014.97     -20885825       595.24097      595.24097      595.24097      2202.3795      2797.6205      2202.3795      2797.6205      2202.3795      2797.6205      2.109009e+08   0.5            14021900       3.1119537      5476.3802      10952.775      6.0950139    
  28039000   131371.93      1545.2445     -21268709       2.2063484      389636.8      -20879072       595.24097      595.24097      595.24097      2202.3795      2797.6205      2202.3795      2797.6205      2202.3795      2797.6205      2.109009e+08   0.5            14022000       3.1305458      5378.6158      10757.211      6.076946     
  28039200   128877.78      1557.8441     -21275690       2.2063484      382239.38     -20893451       595.24097      595.24097      595.24097      2202.3795      2797.6205      2202.3795      2797.6205      2202.3795      2797.6205      2.109009e+08   0.5            14022100       3.1488431      5465.2929      10930.611      6.0583043    
  28039400   123992.72      1563.1845     -21277749       2.2063484      367750.75     -20909998       595.24097      595.24097      595.24097      2202.3795      2797.6205      2202.3795      2797.6205      2202.3795      2797.6205      2.109009e+08   0.5            14022200       3.1673166      5413.1825      10826.366      6.0400029    
  28039600   125051.61      1576.8925     -21263586       2.2063484      370891.32     -20892694       595.24097      595.24097      595.24097      2202.3795      2797.6205      2202.3795      2797.6205      2202.3795      2797.6205      2.109009e+08   0.5            14022300       3.185875       5388.3715      10776.717      6.0218602    
  28039800   127174.79      1586.1629     -21255851       2.2063484      377188.48     -20878662       595.24097      595.24097      595.24097      2202.3795      2797.6205      2202.3795      2797.6205      2202.3795      2797.6205      2.109009e+08   0.5            14022400       3.2041853      5461.4383      10922.888      6.0032474    
  28040000   129631.82      1596.3382     -21248019       2.2063484      384475.79     -20863543       595.24097      595.24097      595.24097      2202.3795      2797.6205      2202.3795      2797.6205      2202.3795      2797.6205      2.109009e+08   0.5            14022500       3.2226422      5418.0018      10835.973      5.9849109    
  28040200   131939.45      1608.6736     -21247251       2.2063484      391320.02     -20855931       595.24097      595.24097      595.24097      2202.3795      2797.6205      2202.3795      2797.6205      2202.3795      2797.6205      2.109009e+08   0.5            14022600       3.24098        5453.185       10906.392      5.9663535    
  28040400   132827.37      1616.5415     -21244566       2.2063484      393953.49     -20850613       595.24097      595.24097      595.24097      2202.3795      2797.6205      2202.3795      2797.6205      2202.3795      2797.6205      2.109009e+08   0.5            14022700       3.259627       5362.8113      10725.661      5.9483626    
  28040600   132481.13      1624.3067     -21245055       2.2063484      392926.59     -20852128       595.24097      595.24097      595.24097      2202.3795      2797.6205      2202.3795      2797.6205      2202.3795      2797.6205      2.109009e+08   0.5            14022800       3.277933       5462.688       10925.34       5.9297478    
  28040800   131326.16      1626.623      -21246361       2.2063484      389501.04     -20856860       595.24097      595.24097      595.24097      2202.3795      2797.6205      2202.3795      2797.6205      2202.3795      2797.6205      2.109009e+08   0.5            14022900       3.2962076      5472.1053      10944.235      5.9110797    
  28041000   132835.2       1636.5259     -21256941       2.2063484      393976.7      -20862964       595.24097      595.24097      595.24097      2202.3795      2797.6205      2202.3795      2797.6205      2202.3795      2797.6205      2.109009e+08   0.5            14023000       3.3148482      5364.6068      10729.185      5.8930673    
  28041200   137060.78      1653.5483     -21252331       2.2063484      406509.39     -20845822       595.24097      595.24097      595.24097      2202.3795      2797.6205      2202.3795      2797.6205      2202.3795      2797.6205      2.109009e+08   0.5            14023100       3.3332761      5426.5817      10853.164      5.8746725    
  28041400   137316.46      1659.4393     -21251774       2.2063484      407267.71     -20844507       595.24097      595.24097      595.24097      2202.3795      2797.6205      2202.3795      2797.6205      2202.3795      2797.6205      2.109009e+08   0.5            14023200       3.3516481      5443.051       10886.119      5.8561799    
  28041600   130469.63      1659.503      -21250848       2.2063484      386960.66     -20863887       595.24097      595.24097      595.24097      2202.3795      2797.6205      2202.3795      2797.6205      2202.3795      2797.6205      2.109009e+08   0.5            14023300       3.3703855      5336.932       10673.829      5.8383216    
  28041800   128531.49      1668.1425     -21245112       2.2063484      381212.32     -20863900       595.24097      595.24097      595.24097      2202.3795      2797.6205      2202.3795      2797.6205      2202.3795      2797.6205      2.109009e+08   0.5            14023400       3.3887909      5433.1662      10866.372      5.8198836    
  28042000   137097.79      1679.6445     -21248916       2.2063484      406619.15     -20842297       595.24097      595.24097      595.24097      2202.3795      2797.6205      2202.3795      2797.6205      2202.3795      2797.6205      2.109009e+08   0.5            14023500       3.4073211      5396.6034      10793.195      5.8016585    
  28042200   138469.39      1689.6555     -21242104       2.2063484      410687.18     -20831417       595.24097      595.24097      595.24097      2202.3795      2797.6205      2202.3795      2797.6205      2202.3795      2797.6205      2.109009e+08   0.5            14023600       3.4259927      5355.7294      10711.471      5.7836684    
  28042400   138376.14      1695.0048     -21239019       2.2063484      410410.62     -20828608       595.24097      595.24097      595.24097      2202.3795      2797.6205      2202.3795      2797.6205      2202.3795      2797.6205      2.109009e+08   0.5            14023700       3.4443843      5437.264       10874.495      5.7652029    
  28042600   139394.04      1703.2908     -21240472       2.2063484      413429.61     -20827043       595.24097      595.24097      595.24097      2202.3795      2797.6205      2202.3795      2797.6205      2202.3795      2797.6205      2.109009e+08   0.5            14023800       3.4628478      5416.0853      10832.181      5.7468573    
  28042800   143274.06      1712.8096     -21243017       2.2063484      424937.38     -20818080       595.24097      595.24097      595.24097      2202.3795      2797.6205      2202.3795      2797.6205      2202.3795      2797.6205      2.109009e+08   0.5            14023900       3.4816415      5320.9476      10641.916      5.7290537    
  28043000   144636.06      1720.1082     -21247313       2.2063484      428976.96     -20818336       595.24097      595.24097      595.24097      2202.3795      2797.6205      2202.3795      2797.6205      2202.3795      2797.6205      2.109009e+08   0.5            14024000       3.5001516      5402.4492      10804.898      5.710777     
  28043200   137653.21      1721.0163     -21251311       2.2063484      408266.49     -20843044       595.24097      595.24097      595.24097      2202.3795      2797.6205      2202.3795      2797.6205      2202.3795      2797.6205      2.109009e+08   0.5            14024100       3.5189286      5325.663       10651.302      5.6929297    
  28043400   134703.84      1727.8749     -21247318       2.2063484      399518.92     -20847800       595.24097      595.24097      595.24097      2202.3795      2797.6205      2202.3795      2797.6205      2202.3795      2797.6205      2.109009e+08   0.5            14024200       3.5376719      5335.2472      10670.526      5.6750185    
  28043600   143147.49      1742.0443     -21239887       2.2063484      424561.99     -20815325       595.24097      595.24097      595.24097      2202.3795      2797.6205      2202.3795      2797.6205      2202.3795      2797.6205      2.109009e+08   0.5            14024300       3.5561665      5406.9708      10813.962      5.6567032    
  28043800   144324.25      1752.0122     -21227685       2.2063484      428052.15     -20799632       595.24097      595.24097      595.24097      2202.3795      2797.6205      2202.3795      2797.6205      2202.3795      2797.6205      2.109009e+08   0.5            14024400       3.5747089      5393.0571      10786.094      5.6384616    
  28044000   143773.87      1761.3694     -21219607       2.2063484      426419.77     -20793187       595.24097      595.24097      595.24097      2202.3795      2797.6205      2202.3795      2797.6205      2202.3795      2797.6205      2.109009e+08   0.5            14024500       3.5935601      5304.6782      10609.345      5.6206999    
  28044200   145272.32      1770.3633     -21210779       2.2063484      430864.05     -20779915       595.24097      595.24097      595.24097      2202.3795      2797.6205      2202.3795      2797.6205      2202.3795      2797.6205      2.109009e+08   0.5            14024600       3.6120652      5403.9501      10807.906      5.6023898    
  28044400   150398.31      1781.6545     -21215723       2.2063484      446067.25     -20769656       595.24097      595.24097      595.24097      2202.3795      2797.6205      2202.3795      2797.6205      2202.3795      2797.6205      2.109009e+08   0.5            14024700       3.6306195      5389.5781      10779.148      5.5841539    
  28044600   150552.46      1785.5877     -21210736       2.2063484      446524.46     -20764212       595.24097      595.24097      595.24097      2202.3795      2797.6205      2202.3795      2797.6205      2202.3795      2797.6205      2.109009e+08   0.5            14024800       3.6492602      5364.5884      10729.181      5.5660465    
  28044800   140898.87      1789.8113     -21221570       2.2063484      417892.81     -20803678       595.24097      595.24097      595.24097      2202.3795      2797.6205      2202.3795      2797.6205      2202.3795      2797.6205      2.109009e+08   0.5            14024900       3.667534       5472.3332      10944.692      5.5473785    
  28045000   141314.5       1796.1079     -21227396       2.2063484      419125.51     -20808271       595.24097      595.24097      595.24097      2202.3795      2797.6205      2202.3795      2797.6205      2202.3795      2797.6205      2.109009e+08   0.5            14025000       3.6858565      5457.7821      10915.546      5.5287877    
  28045200   147754.77      1805.9653     -21226875       2.2063484      438226.76     -20788648       595.24097      595.24097      595.24097      2202.3795      2797.6205      2202.3795      2797.6205      2202.3795      2797.6205      2.109009e+08   0.5            14025100       3.7044519      5377.6619      10755.316      5.5106056    
  28045400   149817.01      1815.7218     -21221193       2.2063484      444343.18     -20776850       595.24097      595.24097      595.24097      2202.3795      2797.6205      2202.3795      2797.6205      2202.3795      2797.6205      2.109009e+08   0.5            14025200       3.722901       5420.2913      10840.568      5.4922036    
  28045600   151363.07      1819.4366     -21218008       2.2063484      448928.64     -20769080       595.24097      595.24097      595.24097      2202.3795      2797.6205      2202.3795      2797.6205      2202.3795      2797.6205      2.109009e+08   0.5            14025300       3.7412582      5447.4737      10894.964      5.4736666    
  28045800   152427.27      1825.707      -21218401       2.2063484      452084.96     -20766316       595.24097      595.24097      595.24097      2202.3795      2797.6205      2202.3795      2797.6205      2202.3795      2797.6205      2.109009e+08   0.5            14025400       3.7598252      5385.8977      10771.783      5.4554356    
  28046000   152856.09      1835.0977     -21197328       2.2063484      453356.79     -20743972       595.24097      595.24097      595.24097      2202.3795      2797.6205      2202.3795      2797.6205      2202.3795      2797.6205      2.109009e+08   0.5            14025500       3.7781456      5458.3916      10916.775      5.4368467    
  28046200   152218.58      1838.1183     -21204382       2.2063484      451466.01     -20752916       595.24097      595.24097      595.24097      2202.3795      2797.6205      2202.3795      2797.6205      2202.3795      2797.6205      2.109009e+08   0.5            14025600       3.7964137      5474.0347      10948.081      5.4181856    
  28046400   152290.23      1841.0518     -21199081       2.2063484      451678.51     -20747403       595.24097      595.24097      595.24097      2202.3795      2797.6205      2202.3795      2797.6205      2202.3795      2797.6205      2.109009e+08   0.5            14025700       3.8149059      5407.6904      10815.402      5.3998454    
  28046600   155743.35      1855.3193     -21202204       2.2063484      461920.13     -20740284       595.24097      595.24097      595.24097      2202.3795      2797.6205      2202.3795      2797.6205      2202.3795      2797.6205      2.109009e+08   0.5            14025800       3.8334813      5383.4447      10766.874      5.3816209    
  28046800   159109.24      1858.1764     -21203446       2.2063484      471903.04     -20731543       595.24097      595.24097      595.24097      2202.3795      2797.6205      2202.3795      2797.6205      2202.3795      2797.6205      2.109009e+08   0.5            14025900       3.852218       5337.11        10674.217      5.3636175    
  28047000   154952.49      1861.9159     -21200207       2.2063484      459574.52     -20740633       595.24097      595.24097      595.24097      2202.3795      2797.6205      2202.3795      2797.6205      2202.3795      2797.6205      2.109009e+08   0.5            14026000       3.8705409      5457.6877      10915.355      5.3450355    
  28047200   148093.99      1864.6786     -21200980       2.2063484      439232.86     -20761748       595.24097      595.24097      595.24097      2202.3795      2797.6205      2202.3795      2797.6205      2202.3795      2797.6205      2.109009e+08   0.5            14026100       3.8888063      5474.819       10949.645      5.3263773    
  28047400   155204.25      1869.8324     -21189992       2.2063484      460321.22     -20729671       595.24097      595.24097      595.24097      2202.3795      2797.6205      2202.3795      2797.6205      2202.3795      2797.6205      2.109009e+08   0.5            14026200       3.9072343      5426.5081      10853.058      5.3079437    
  28047600   160012.58      1875.9348     -21191542       2.2063484      474582.26     -20716960       595.24097      595.24097      595.24097      2202.3795      2797.6205      2202.3795      2797.6205      2202.3795      2797.6205      2.109009e+08   0.5            14026300       3.9254317      5495.3253      10990.631      5.2891993    
  28047800   158272         1882.1148     -21191618       2.2063484      469419.86     -20722198       595.24097      595.24097      595.24097      2202.3795      2797.6205      2202.3795      2797.6205      2202.3795      2797.6205      2.109009e+08   0.5            14026400       3.9439514      5399.6261      10799.247      5.2708911    
  28048000   156637.02      1890.4284     -21175886       2.2063484      464570.67     -20711315       595.24097      595.24097      595.24097      2202.3795      2797.6205      2202.3795      2797.6205      2202.3795      2797.6205      2.109009e+08   0.5            14026500       3.9623117      5446.5602      10893.135      5.2523693    
  28048200   161342.32      1897.5602     -21168707       2.2063484      478526.16     -20690181       595.24097      595.24097      595.24097      2202.3795      2797.6205      2202.3795      2797.6205      2202.3795      2797.6205      2.109009e+08   0.5            14026600       3.9807133      5434.313       10868.586      5.2339035    
  28048400   167539.13      1906.629      -21173615       2.2063484      496905.32     -20676709       595.24097      595.24097      595.24097      2202.3795      2797.6205      2202.3795      2797.6205      2202.3795      2797.6205      2.109009e+08   0.5            14026700       3.999188       5412.7671      10825.522      5.2155338    
  28048600   161176.67      1912.1939     -21167656       2.2063484      478034.86     -20689621       595.24097      595.24097      595.24097      2202.3795      2797.6205      2202.3795      2797.6205      2202.3795      2797.6205      2.109009e+08   0.5            14026800       4.0173661      5501.1531      11002.36       5.1967789    
  28048800   154985.54      1914.7427     -21159701       2.2063484      459672.53     -20700029       595.24097      595.24097      595.24097      2202.3795      2797.6205      2202.3795      2797.6205      2202.3795      2797.6205      2.109009e+08   0.5            14026900       4.0356573      5467.1173      10934.208      5.1781747    
  28049000   158542.66      1927.3813     -21153442       2.2063484      470222.64     -20683219       595.24097      595.24097      595.24097      2202.3795      2797.6205      2202.3795      2797.6205      2202.3795      2797.6205      2.109009e+08   0.5            14027000       4.0543098      5361.2024      10722.418      5.1600333    
  28049200   162361.29      1934.7632     -21160180       2.2063484      481548.34     -20678631       595.24097      595.24097      595.24097      2202.3795      2797.6205      2202.3795      2797.6205      2202.3795      2797.6205      2.109009e+08   0.5            14027100       4.0728793      5385.1697      10770.342      5.1417823    
  28049400   166384.6       1948.5908     -21167402       2.2063484      493481.1      -20673921       595.24097      595.24097      595.24097      2202.3795      2797.6205      2202.3795      2797.6205      2202.3795      2797.6205      2.109009e+08   0.5            14027200       4.0915639      5352.0008      10703.994      5.1236727    
  28049600   167274.27      1956.6121     -21179391       2.2063484      496119.76     -20683271       595.24097      595.24097      595.24097      2202.3795      2797.6205      2202.3795      2797.6205      2202.3795      2797.6205      2.109009e+08   0.5            14027300       4.1098897      5456.7868      10913.576      5.1051121    
  28049800   163491.92      1964.3321     -21171430       2.2063484      484901.67     -20686529       595.24097      595.24097      595.24097      2202.3795      2797.6205      2202.3795      2797.6205      2202.3795      2797.6205      2.109009e+08   0.5            14027400       4.1282252      5453.8958      10907.796      5.0865657    
[...]
  28694400   303.21493      9.4900533     -21585128       2.2067729      899.30697     -21584229       595.2028       595.2028       595.2028       2202.3986      2797.6014      2202.3986      2797.6014      2202.3986      2797.6014      2.1086033e+08  0.5            14349700       30.5408        4725.4575      9450.911       1.1186334    
  28694600   294.26419     -9.8847794     -21585124       2.2063185      872.75993     -21584251       595.24365      595.24365      595.24365      2202.3782      2797.6218      2202.3782      2797.6218      2202.3782      2797.6218      2.1090376e+08  0.5            14349800       30.562046      4706.718       9413.4591      1.0975321    
  28694800   304.1862       6.5124351     -21585121       2.2067013      902.18768     -21584219       595.20923      595.20923      595.20923      2202.3954      2797.6046      2202.3954      2797.6046      2202.3954      2797.6046      2.1086717e+08  0.5            14349900       30.583217      4723.4342      9446.8626      1.076428     
  28695000   296.35496      6.7831101     -21583222       2.2067038      878.96097     -21582343       595.209        595.209        595.209        2202.3955      2797.6045      2202.3955      2797.6045      2202.3955      2797.6045      2.1086693e+08  0.5            14350000       30.604221      4760.9848      9521.9396      1.0553181    
  28695200   307.74034      5.10595       -21583219       2.2066667      912.72891     -21582306       595.21234      595.21234      595.21234      2202.3938      2797.6062      2202.3938      2797.6062      2202.3938      2797.6062      2.1087048e+08  0.5            14350100       30.6252        4766.7664      9533.5651      1.0342074    
  28695400   292.1813      -5.1226907     -21583216       2.2064278      866.58228     -21582349       595.23383      595.23383      595.23383      2202.3831      2797.6169      2202.3831      2797.6169      2202.3831      2797.6169      2.1089331e+08  0.5            14350200       30.646175      4767.4795      9534.9695      1.0130968    
  28695600   304.51085     -4.1948011     -21583214       2.2064505      903.15057     -21582311       595.23178      595.23178      595.23178      2202.3841      2797.6159      2202.3841      2797.6159      2202.3841      2797.6159      2.1089114e+08  0.5            14350300       30.66711       4776.6514      9553.2992      0.99198506   
  28695800   286.54184     -2.7611015     -21585108       2.2064932      849.85617     -21584258       595.22794      595.22794      595.22794      2202.386       2797.614       2202.386       2797.614       2202.386       2797.614       2.1088706e+08  0.5            14350400       30.688101      4764.0402      9528.05        0.97087535   
  28696000   311.5357      -3.8192207     -21585109       2.2064721      923.9856      -21584185       595.22984      595.22984      595.22984      2202.3851      2797.6149      2202.3851      2797.6149      2202.3851      2797.6149      2.1088908e+08  0.5            14350500       30.709102      4761.6163      9523.2386      0.94976612   
  28696200   292.75279     -3.5467432     -21585111       2.2064854      868.27725     -21584243       595.22864      595.22864      595.22864      2202.3857      2797.6143      2202.3857      2797.6143      2202.3857      2797.6143      2.1088781e+08  0.5            14350600       30.730052      4773.2408      9546.4993      0.9286555    
  28696400   311.58842     -2.6140379     -21585114       2.2065155      924.14195     -21584190       595.22593      595.22593      595.22593      2202.387       2797.613       2202.387       2797.613       2202.387       2797.613       2.1088492e+08  0.5            14350700       30.751026      4767.9444      9535.8815      0.90754579   
  28696600   292.09597     -0.92910819    -21585119       2.2065642      866.3292      -21584253       595.22155      595.22155      595.22155      2202.3892      2797.6108      2202.3892      2797.6108      2202.3892      2797.6108      2.1088027e+08  0.5            14350800       30.771959      4777.0955      9554.1745      0.8864351    
  28696800   306.54305      1.6636438     -21585124       2.2066328      909.17788     -21584215       595.21539      595.21539      595.21539      2202.3923      2797.6077      2202.3923      2797.6077      2202.3923      2797.6077      2.1087372e+08  0.5            14350900       30.79294       4766.1053      9532.2456      0.86532602   
  28697000   292.59736      4.4948816     -21585129       2.206706       867.81628     -21584262       595.20881      595.20881      595.20881      2202.3956      2797.6044      2202.3956      2797.6044      2202.3956      2797.6044      2.1086673e+08  0.5            14351000       30.813867      4778.5676      9557.0955      0.84421561   
  28697200   298.59266      5.8606781     -21585135       2.2067426      885.59775     -21584249       595.20552      595.20552      595.20552      2202.3972      2797.6028      2202.3972      2797.6028      2202.3972      2797.6028      2.1086323e+08  0.5            14351100       30.834869      4761.4059      9522.8504      0.82310746   
  28697400   301.53158      5.5553552     -21585508       2.2067439      894.31432     -21584614       595.2054       595.2054       595.2054       2202.3973      2797.6027      2202.3973      2797.6027      2202.3973      2797.6027      2.108631e+08   0.5            14351200       30.855852      4765.7789      9531.5255      0.80199896   
  28697600   287.61684      7.1838269     -21585513       2.2067875      853.04452     -21584660       595.20148      595.20148      595.20148      2202.3993      2797.6007      2202.3993      2797.6007      2202.3993      2797.6007      2.1085893e+08  0.5            14351300       30.876928      4744.8191      9489.6445      0.78089298   
  28697800   306.5211       7.5178777     -21585519       2.2068017      909.11276     -21584610       595.20021      595.20021      595.20021      2202.3999      2797.6001      2202.3999      2797.6001      2202.3999      2797.6001      2.1085758e+08  0.5            14351400       30.897941      4758.9986      9518.0131      0.75978549   
  28698000   294.53836      7.229454      -21585526       2.206802       873.57309     -21584653       595.20018      595.20018      595.20018      2202.3999      2797.6001      2202.3999      2797.6001      2202.3999      2797.6001      2.1085755e+08  0.5            14351500       30.91896       4757.5493      9515.0806      0.73867829   
  28698200   321.57626      5.8719372     -21585533       2.206776       953.76496     -21584579       595.20251      595.20251      595.20251      2202.3987      2797.6013      2202.3987      2797.6013      2202.3987      2797.6013      2.1086003e+08  0.5            14351600       30.939983      4756.6328      9513.2715      0.71757129   
  28698400   296.67162      3.3090831     -21585539       2.2067213      879.90014     -21584659       595.20743      595.20743      595.20743      2202.3963      2797.6037      2202.3963      2797.6037      2202.3963      2797.6037      2.1086526e+08  0.5            14351700       30.96105       4746.9386      9493.8654      0.69646538   
  28698600   305.04547      1.2400244     -21585544       2.2066762      904.73618     -21584639       595.21148      595.21148      595.21148      2202.3943      2797.6057      2202.3943      2797.6057      2202.3943      2797.6057      2.1086957e+08  0.5            14351800       30.981964      4781.4538      9562.9109      0.67535621   
  28698800   288.37794      4.1685238     -21585547       2.2067489      855.30185     -21584692       595.20495      595.20495      595.20495      2202.3975      2797.6025      2202.3975      2797.6025      2202.3975      2797.6025      2.1086262e+08  0.5            14351900       31.002888      4779.1644      9558.3333      0.65424751   
  28699000   311.90931      15.667801     -21585547       2.2070269      925.09368     -21584622       595.17996      595.17996      595.17996      2202.41        2797.59        2202.41        2797.59        2202.41        2797.59        2.1083606e+08  0.5            14352000       31.023867      4766.6115      9533.1947      0.6331402    
  28699200   297.6448       6.5753815     -21585552       2.206812       882.78649     -21584669       595.19927      595.19927      595.19927      2202.4004      2797.5996      2202.4004      2797.5996      2202.4004      2797.5996      2.1085659e+08  0.5            14352100       31.044901      4754.1919      9508.4199      0.61203413   
  28699400   303.52264     -13.52641      -21585552       2.2063243      900.21961     -21584651       595.24313      595.24313      595.24313      2202.3784      2797.6216      2202.3784      2797.6216      2202.3784      2797.6216      2.109032e+08   0.5            14352200       31.065884      4765.817       9531.6146      0.59092719   
  28699600   308.1021       14.620254     -21585554       2.2069979      913.80188     -21584640       595.18256      595.18256      595.18256      2202.4087      2797.5913      2202.4087      2797.5913      2202.4087      2797.5913      2.1083883e+08  0.5            14352300       31.086815      4777.6469      9555.3084      0.56981946   
  28699800   297.44987     -10.198033     -21585557       2.2063885      882.20835     -21584674       595.23736      595.23736      595.23736      2202.3813      2797.6187      2202.3813      2797.6187      2202.3813      2797.6187      2.1089707e+08  0.5            14352400       31.107809      4763.2063      9526.4184      0.54871309   
  28700000   306.92153      9.4327141     -21585558       2.2068567      910.3004      -21584648       595.19526      595.19526      595.19526      2202.4024      2797.5976      2202.4024      2797.5976      2202.4024      2797.5976      2.1085232e+08  0.5            14352500       31.128825      4758.2699      9516.5307      0.52760725   
  28700200   289.45777     -2.4134978     -21585560       2.2065604      858.50453     -21584702       595.2219       595.2219       595.2219       2202.389       2797.611       2202.389       2797.611       2202.389       2797.611       2.1088064e+08  0.5            14352600       31.149854      4755.3537      9510.7006      0.50650173   
  28700400   303.92243     -0.88975506    -21585562       2.2065931      901.40536     -21584661       595.21896      595.21896      595.21896      2202.3905      2797.6095      2202.3905      2797.6095      2202.3905      2797.6095      2.1087751e+08  0.5            14352700       31.170846      4763.7091      9527.4417      0.48539574   
  28700600   295.22192      6.3978786     -21585562       2.2067676      875.60045     -21584687       595.20327      595.20327      595.20327      2202.3984      2797.6016      2202.3984      2797.6016      2202.3984      2797.6016      2.1086084e+08  0.5            14352800       31.191843      4762.525       9525.0319      0.46428999   
  28700800   312.03056     -5.0022396     -21585564       2.2064852      925.45331     -21584638       595.22866      595.22866      595.22866      2202.3857      2797.6143      2202.3857      2797.6143      2202.3857      2797.6143      2.1088782e+08  0.5            14352900       31.212878      4754.0011      9508.0059      0.44318492   
  28701000   290.97826      5.1816246     -21585565       2.2067319      863.01416     -21584702       595.20648      595.20648      595.20648      2202.3968      2797.6032      2202.3968      2797.6032      2202.3968      2797.6032      2.1086425e+08  0.5            14353000       31.234004      4733.5391      9467.0751      0.42208117   
  28701200   305.55154     -0.47013149    -21585566       2.2065917      906.23715     -21584660       595.21908      595.21908      595.21908      2202.3905      2797.6095      2202.3905      2797.6095      2202.3905      2797.6095      2.1087764e+08  0.5            14353100       31.255233      4710.6451      9421.3062      0.40097871   
  28701400   300.87481      0.029210605   -21585568       2.2065986      892.36641     -21584675       595.21847      595.21847      595.21847      2202.3908      2797.6092      2202.3908      2797.6092      2202.3908      2797.6092      2.1087699e+08  0.5            14353200       31.276431      4717.3165      9434.6222      0.37987571   
  28701600   298.64292      3.2062512     -21585570       2.2066703      885.74684     -21584684       595.21201      595.21201      595.21201      2202.394       2797.606       2202.394       2797.606       2202.394       2797.606       2.1087013e+08  0.5            14353300       31.29737       4775.7362      9551.4656      0.35876961   
  28701800   307.79833     -1.8069741     -21585572       2.2065464      912.90092     -21584659       595.22315      595.22315      595.22315      2202.3884      2797.6116      2202.3884      2797.6116      2202.3884      2797.6116      2.1088197e+08  0.5            14353400       31.318326      4771.9887      9543.9996      0.33766392   
  28702000   289.12849      4.7203366     -21585573       2.2067075      857.52794     -21584716       595.20867      595.20867      595.20867      2202.3957      2797.6043      2202.3957      2797.6043      2202.3957      2797.6043      2.1086658e+08  0.5            14353500       31.339373      4751.2179      9502.3929      0.31655935   
  28702200   312.79204     -4.4450346     -21585575       2.206488       927.71179     -21584647       595.22841      595.22841      595.22841      2202.3858      2797.6142      2202.3858      2797.6142      2202.3858      2797.6142      2.1088756e+08  0.5            14353600       31.360484      4736.9873      9474.0249      0.29545545   
  28702400   298.67395      7.4176941     -21585576       2.2067819      885.83885     -21584690       595.20199      595.20199      595.20199      2202.399       2797.601       2202.399       2797.601       2202.399       2797.601       2.1085947e+08  0.5            14353700       31.381468      4765.4805      9530.9346      0.27435045   
  28702600   302.47923     -2.0075779     -21585579       2.206556       897.12497     -21584682       595.2223       595.2223       595.2223       2202.3889      2797.6111      2202.3889      2797.6111      2202.3889      2797.6111      2.1088106e+08  0.5            14353800       31.40242       4772.715       9545.4395      0.25324534   
  28702800   304.55097     -4.2756608     -21585580       2.2065029      903.26954     -21584676       595.22707      595.22707      595.22707      2202.3865      2797.6135      2202.3865      2797.6135      2202.3865      2797.6135      2.1088613e+08  0.5            14353900       31.423416      4762.8471      9525.7015      0.23214077   
  28703000   297.49639      5.102721      -21585581       2.206735       882.34633     -21584698       595.2062       595.2062       595.2062       2202.3969      2797.6031      2202.3969      2797.6031      2202.3969      2797.6031      2.1086395e+08  0.5            14354000       31.444455      4753.102       9506.1918      0.21103663   
  28703200   303.27473      9.0390466     -21585581       2.2068351      899.48433     -21584682       595.1972       595.1972       595.1972       2202.4014      2797.5986      2202.4014      2797.5986      2202.4014      2797.5986      2.1085438e+08  0.5            14354100       31.465488      4754.4808      9508.9755      0.18993254   
  28703400   290.32077      8.7575881     -21585583       2.2068335      861.06413     -21584722       595.19735      595.19735      595.19735      2202.4013      2797.5987      2202.4013      2797.5987      2202.4013      2797.5987      2.1085454e+08  0.5            14354200       31.486409      4779.7725      9559.5312      0.16882794   
  28703600   304.09439      8.2039453     -21585586       2.2068266      901.91538     -21584684       595.19796      595.19796      595.19796      2202.401       2797.599       2202.401       2797.599       2202.401       2797.599       2.108552e+08   0.5            14354300       31.507444      4754.0712      9508.1347      0.14772413   
  28703800   286.69065      8.1652944     -21585589       2.2068346      850.29751     -21584739       595.19724      595.19724      595.19724      2202.4014      2797.5986      2202.4014      2797.5986      2202.4014      2797.5986      2.1085443e+08  0.5            14354400       31.528436      4763.6807      9527.3841      0.12662023   
  28704000   311.0904       8.4505534     -21585592       2.2068509      922.66489     -21584670       595.19578      595.19578      595.19578      2202.4021      2797.5979      2202.4021      2797.5979      2202.4021      2797.5979      2.1085287e+08  0.5            14354500       31.549473      4753.6097      9507.2018      0.10551664   
  28704200   293.80269      14.850471     -21585961       2.2070235      871.39115     -21585090       595.18026      595.18026      595.18026      2202.4099      2797.5901      2202.4099      2797.5901      2202.4099      2797.5901      2.1083638e+08  0.5            14354600       31.570464      4763.9698      9527.9292      0.084413011  
  28704400   305.51132      5.3720277     -21585968       2.2067949      906.11784     -21585061       595.20081      595.20081      595.20081      2202.3996      2797.6004      2202.3996      2797.6004      2202.3996      2797.6004      2.1085822e+08  0.5            14354700       31.591376      4781.8951      9563.8003      0.063309375  
  28704600   310.28722     -3.962315      -21585970       2.2065666      920.28274     -21585050       595.22135      595.22135      595.22135      2202.3893      2797.6107      2202.3893      2797.6107      2202.3893      2797.6107      2.1088005e+08  0.5            14354800       31.612309      4777.0343      9554.0704      0.042206023  
  28704800   293.60269     -4.4098849     -21585972       2.2065555      870.79798     -21585101       595.22234      595.22234      595.22234      2202.3888      2797.6112      2202.3888      2797.6112      2202.3888      2797.6112      2.108811e+08   0.5            14354900       31.633265      4771.8983      9543.8093      0.021102914  
  28705000   308.28176     -5.1587418     -21585974       2.2065346      914.33472     -21585060       595.22421      595.22421      595.22421      2202.3879      2797.6121      2202.3879      2797.6121      2202.3879      2797.6121      2.108831e+08   0.5            14355000       31.654349      4742.9027      9485.7972      0            
Loop time of 31.6544 on 4 procs for 300000 steps with 996 atoms

Performance: 409.422 ns/day, 0.059 hours/ns, 9477.364 timesteps/s
91.2% CPU use with 4 MPI tasks x no OpenMP threads

MPI task timing breakdown:
Section |  min time  |  avg time  |  max time  |%varavg| %total
---------------------------------------------------------------
Pair    | 12.59      | 14.446     | 15.355     |  28.8 | 45.64
Neigh   | 0.0088815  | 0.010573   | 0.011674   |   1.0 |  0.03
Comm    | 9.642      | 10.463     | 12.236     |  32.3 | 33.05
Output  | 0.041085   | 0.045845   | 0.056264   |   2.8 |  0.14
Modify  | 5.0132     | 5.154      | 5.3282     |   5.0 | 16.28
Other   |            | 1.535      |            |       |  4.85

Nlocal:            249 ave         267 max         220 min
Histogram: 1 0 0 0 0 1 0 0 1 1
Nghost:            868 ave         880 max         843 min
Histogram: 1 0 0 0 0 0 0 1 0 2
Neighs:         1707.5 ave        1832 max        1491 min
Histogram: 1 0 0 0 0 0 1 0 0 2

Total # of neighbors = 6830
Ave neighs/atom = 6.8574297
Neighbor list builds = 54
Dangerous builds = 0

# run_style
run_style verlet

# write restart
write_restart ${write_res}
write_restart ./pgnpmf/73/equpmf41.res
System init for write_restart ...
Generated 0 of 1 mixed pair_coeff terms from geometric mixing rule

Total wall time: 0:01:08
