LAMMPS (23 Jun 2022 - Update 1)
# Read restart
read_restart ${read_res}
read_restart ./pgnpmf/73/equpmf51.res
Reading restart file ...
  restart file = 23 Jun 2022, LAMMPS = 23 Jun 2022
  restoring atom style atomic from restart
  orthogonal box = (2202.3768 2202.3768 2202.3768) to (2797.6232 2797.6232 2797.6232)
  1 by 2 by 2 MPI processor grid
  restoring pair style table from restart
  996 atoms
  read_restart CPU = 0.004 seconds

# Settings

pair_style table spline 9941

pair_coeff 1 1 ./pgnpmf/N20.txt DE_GNP 75.6
pair_coeff 2 2 ./pgnpmf/N100.txt DE_GNP 115.92
WARNING: 3 of 9941 force values in table DE_GNP are inconsistent with -dE/dr.
WARNING:  Should only be flagged at inflection points (../pair_table.cpp:463)
pair_coeff 1 2 ./pgnpmf/mixed_potential.txt DE_GNP 95.66
WARNING: 1562 of 9941 force values in table DE_GNP are inconsistent with -dE/dr.
WARNING:  Should only be flagged at inflection points (../pair_table.cpp:463)

#Neigh_list Calc Frequency

neigh_modify delay 0 every 1 check yes

# Saving Frequency (50 frames)

variable ts_save equal ${steps_equ}
variable ts_save equal 5000

# Dump
#dump 1 all custom ${ts_save} ./pgnpmf/${folder}/equilibration/trajectory/trajectory_${usic}_${trial}.equ.custom type x y z ix iy iz
#dump_modify 1 first no sort id
#dump 2 all cfg 50000 ./equilibration/trajectory/ovito/dumpgen.tens_*.cfg mass type xs ys zs fx fy fz

# thermo_style
thermo_style custom step temp press pe density ke etotal lx ly lz xlo xhi ylo yhi zlo zhi vol dt time cpu tpcpu spcpu cpuremain

# run info
timestep ${ts}
timestep 0.5
thermo 200

# fix

fix 1 all momentum 1000 linear 1 1 1 angular
variable T equal ${temp}
variable T equal 300
fix 2 all nvt temp ${T} 370000 100.0
fix 2 all nvt temp 300 370000 100.0

run 100000
Generated 0 of 1 mixed pair_coeff terms from geometric mixing rule
Unused restart file global fix info:
  fix style: npt, fix ID: 5
Neighbor list info ...
  update every 1 steps, delay 0 steps, check yes
  max neighbors/atom: 2000, page size: 100000
  master list distance cutoff = 117.92
  ghost atom cutoff = 117.92
  binsize = 58.96, bins = 11 11 11
  1 neighbor lists, perpetual/occasional/extra = 1 0 0
  (1) pair table, perpetual
      attributes: half, newton on
      pair build: half/bin/atomonly/newton
      stencil: half/bin/3d
      bin: standard
Per MPI rank memory allocation (min/avg/max) = 3.086 | 3.086 | 3.087 Mbytes
   Step          Temp          Press          PotEng        Density         KinEng         TotEng           Lx             Ly             Lz            Xlo            Xhi            Ylo            Yhi            Zlo            Zhi           Volume           Dt            Time           CPU           T/CPU          S/CPU         CPULeft    
  35705000   306.16838      4.1690737     -21496651       2.2062879      908.06662     -21495743       595.2464       595.2464       595.2464       2202.3768      2797.6232      2202.3768      2797.6232      2202.3768      2797.6232      2.1090668e+08  0.5            17855000       0              0              0              0            
  35705200   362.61061      4.3686244     -21496656       2.2062879      1075.469      -21495580       595.2464       595.2464       595.2464       2202.3768      2797.6232      2202.3768      2797.6232      2202.3768      2797.6232      2.1090668e+08  0.5            17855100       0.01859996     5376.1108      10751.729      9.2826964    
  35705400   506.23493      4.6956757     -21496659       2.2062879      1501.4452     -21495158       595.2464       595.2464       595.2464       2202.3768      2797.6232      2202.3768      2797.6232      2202.3768      2797.6232      2.1090668e+08  0.5            17855200       0.037154884    5389.4465      10778.897      9.2521518    
  35705600   752.53248      5.262736      -21496659       2.2062879      2231.9406     -21494427       595.2464       595.2464       595.2464       2202.3768      2797.6232      2202.3768      2797.6232      2202.3768      2797.6232      2.1090668e+08  0.5            17855300       0.055601471    5421.0861      10842.188      9.2116853    
  35705800   1148.9879      5.2923387     -21496646       2.2062879      3407.7901     -21493238       595.2464       595.2464       595.2464       2202.3768      2797.6232      2202.3768      2797.6232      2202.3768      2797.6232      2.1090668e+08  0.5            17855400       0.074033865    5425.2398      10850.489      9.1804662    
  35706000   1765.1441      5.6917377     -21496613       2.2062879      5235.2516     -21491378       595.2464       595.2464       595.2464       2202.3768      2797.6232      2202.3768      2797.6232      2202.3768      2797.6232      2.1090668e+08  0.5            17855500       0.092580968    5391.666       10783.271      9.1657491    
  35706200   2679.8516      6.3200042     -21496548       2.2062879      7948.1878     -21488600       595.2464       595.2464       595.2464       2202.3768      2797.6232      2202.3768      2797.6232      2202.3768      2797.6232      2.1090668e+08  0.5            17855600       0.11105082     5414.2107      10828.502      9.1433677    
  35706400   3935.842       6.8548122     -21496434       2.2062879      11673.337     -21484761       595.2464       595.2464       595.2464       2202.3768      2797.6232      2202.3768      2797.6232      2202.3768      2797.6232      2.1090668e+08  0.5            17855700       0.12950254     5419.5957      10839.177      9.1208257    
  35706600   5452.7862      8.7412567     -21496608       2.2062879      16172.451     -21480436       595.2464       595.2464       595.2464       2202.3768      2797.6232      2202.3768      2797.6232      2202.3768      2797.6232      2.1090668e+08  0.5            17855800       0.14795321     5419.8618      10839.729      9.0992488    
  35706800   6946.3445      10.480635     -21496688       2.2062879      20602.205     -21476086       595.2464       595.2464       595.2464       2202.3768      2797.6232      2202.3768      2797.6232      2202.3768      2797.6232      2.1090668e+08  0.5            17855900       0.16670373     5333.1553      10666.312      9.094736     
  35707000   7985.4926      12.45532      -21494411       2.2062879      23684.22      -21470727       595.2464       595.2464       595.2464       2202.3768      2797.6232      2202.3768      2797.6232      2202.3768      2797.6232      2.1090668e+08  0.5            17856000       0.18524215     5394.2178      10788.416      9.0769746    
  35707200   8431.1888      12.79189      -21500921       2.2062879      25006.114     -21475915       595.2464       595.2464       595.2464       2202.3768      2797.6232      2202.3768      2797.6232      2202.3768      2797.6232      2.1090668e+08  0.5            17856100       0.20378687     5392.3795      10784.772      9.0593479    
  35707400   8855.0295      14.901585     -21496179       2.2062879      26263.185     -21469916       595.2464       595.2464       595.2464       2202.3768      2797.6232      2202.3768      2797.6232      2202.3768      2797.6232      2.1090668e+08  0.5            17856200       0.22226453     5411.9422      10823.873      9.0388436    
  35707600   9743.6399      18.859559     -21493591       2.2062879      28898.72      -21464693       595.2464       595.2464       595.2464       2202.3768      2797.6232      2202.3768      2797.6232      2202.3768      2797.6232      2.1090668e+08  0.5            17856300       0.24110278     5308.3538      10616.731      9.0321599    
  35707800   10777.812      25.028523     -21492772       2.2062879      31965.977     -21460806       595.2464       595.2464       595.2464       2202.3768      2797.6232      2202.3768      2797.6232      2202.3768      2797.6232      2.1090668e+08  0.5            17856400       0.25960209     5405.6003      10811.178      9.0119734    
  35708000   11498.518      28.864145     -21491833       2.2062879      34103.523     -21457730       595.2464       595.2464       595.2464       2202.3768      2797.6232      2202.3768      2797.6232      2202.3768      2797.6232      2.1090668e+08  0.5            17856500       0.27812152     5399.7389      10799.461      8.9926657    
  35708200   11991.581      33.636742     -21492306       2.2062879      35565.902     -21456740       595.2464       595.2464       595.2464       2202.3768      2797.6232      2202.3768      2797.6232      2202.3768      2797.6232      2.1090668e+08  0.5            17856600       0.29701223     5293.5809      10587.128      8.9846904    
  35708400   12674.625      36.977316     -21489251       2.2062879      37591.748     -21451660       595.2464       595.2464       595.2464       2202.3768      2797.6232      2202.3768      2797.6232      2202.3768      2797.6232      2.1090668e+08  0.5            17856700       0.31545211     5423.0573      10846.148      8.9626118    
  35708600   13611.038      44.302045     -21487263       2.2062879      40369.058     -21446894       595.2464       595.2464       595.2464       2202.3768      2797.6232      2202.3768      2797.6232      2202.3768      2797.6232      2.1090668e+08  0.5            17856800       0.33397037     5400.0739      10800.197      8.9430375    
  35708800   14457.2        49.949621     -21487070       2.2062879      42878.698     -21444191       595.2464       595.2464       595.2464       2202.3768      2797.6232      2202.3768      2797.6232      2202.3768      2797.6232      2.1090668e+08  0.5            17856900       0.35270596     5337.4165      10674.824      8.9290843    
  35709000   15065.473      53.632336     -21485996       2.2062879      44682.776     -21441314       595.2464       595.2464       595.2464       2202.3768      2797.6232      2202.3768      2797.6232      2202.3768      2797.6232      2.1090668e+08  0.5            17857000       0.37118403     5411.8511      10823.683      8.9084666    
  35709200   15680.973      58.95599      -21484492       2.2062879      46508.292     -21437984       595.2464       595.2464       595.2464       2202.3768      2797.6232      2202.3768      2797.6232      2202.3768      2797.6232      2.1090668e+08  0.5            17857100       0.38977055     5380.2332      10760.478      8.8905265    
  35709400   16499.773      65.658889     -21482556       2.2062879      48936.777     -21433619       595.2464       595.2464       595.2464       2202.3768      2797.6232      2202.3768      2797.6232      2202.3768      2797.6232      2.1090668e+08  0.5            17857200       0.40853221     5330.0102      10660.003      8.8763363    
  35709600   17372.538      72.223683     -21480921       2.2062879      51525.314     -21429395       595.2464       595.2464       595.2464       2202.3768      2797.6232      2202.3768      2797.6232      2202.3768      2797.6232      2.1090668e+08  0.5            17857300       0.42704287     5402.3071      10804.65       8.85654      
  35709800   18094.854      76.257371     -21478522       2.2062879      53667.637     -21424855       595.2464       595.2464       595.2464       2202.3768      2797.6232      2202.3768      2797.6232      2202.3768      2797.6232      2.1090668e+08  0.5            17857400       0.44553181     5408.6406      10817.26       8.8364218    
  35710000   18720.471      82.866999     -21477225       2.2062879      55523.159     -21421702       595.2464       595.2464       595.2464       2202.3768      2797.6232      2202.3768      2797.6232      2202.3768      2797.6232      2.1090668e+08  0.5            17857500       0.46433978     5316.8743      10633.73       8.822498     
  35710200   19452.118      90.467655     -21475585       2.2062879      57693.152     -21417892       595.2464       595.2464       595.2464       2202.3768      2797.6232      2202.3768      2797.6232      2202.3768      2797.6232      2.1090668e+08  0.5            17857600       0.48298068     5364.5553      10729.13       8.8051474    
  35710400   20292.267      97.603334     -21473210       2.2062879      60184.955     -21413025       595.2464       595.2464       595.2464       2202.3768      2797.6232      2202.3768      2797.6232      2202.3768      2797.6232      2.1090668e+08  0.5            17857700       0.50148308     5404.7221      10809.46       8.7852757    
  35710600   21081.236      103.69049     -21473870       2.2062879      62524.964     -21411345       595.2464       595.2464       595.2464       2202.3768      2797.6232      2202.3768      2797.6232      2202.3768      2797.6232      2.1090668e+08  0.5            17857800       0.52029882     5314.6931      10629.345      8.7707863    
  35710800   21740.248      107.41701     -21470010       2.2062879      64479.531     -21405530       595.2464       595.2464       595.2464       2202.3768      2797.6232      2202.3768      2797.6232      2202.3768      2797.6232      2.1090668e+08  0.5            17857900       0.53912105     5312.8611      10625.754      8.7561026    
  35711000   22421.383      111.97731     -21470359       2.2062879      66499.713     -21403859       595.2464       595.2464       595.2464       2202.3768      2797.6232      2202.3768      2797.6232      2202.3768      2797.6232      2.1090668e+08  0.5            17858000       0.55774947     5368.1415      10736.28       8.7381084    
  35711200   23224.549      119.58631     -21468500       2.2062879      68881.829     -21399618       595.2464       595.2464       595.2464       2202.3768      2797.6232      2202.3768      2797.6232      2202.3768      2797.6232      2.1090668e+08  0.5            17858100       0.57659308     5306.8289      10613.669      8.7233262    
  35711400   24031.937      124.69529     -21467028       2.2062879      71276.467     -21395752       595.2464       595.2464       595.2464       2202.3768      2797.6232      2202.3768      2797.6232      2202.3768      2797.6232      2.1090668e+08  0.5            17858200       0.5950898      5406.3631      10812.731      8.7032187    
  35711600   24740.144      131.69559     -21465604       2.2062879      73376.941     -21392228       595.2464       595.2464       595.2464       2202.3768      2797.6232      2202.3768      2797.6232      2202.3768      2797.6232      2.1090668e+08  0.5            17858300       0.61357815     5408.8305      10817.652      8.6830892    
  35711800   25399.915      135.89774     -21460044       2.2062879      75333.761     -21384710       595.2464       595.2464       595.2464       2202.3768      2797.6232      2202.3768      2797.6232      2202.3768      2797.6232      2.1090668e+08  0.5            17858400       0.63241181     5309.6376      10619.285      8.6677901    
  35712000   26146.529      145.52584     -21459402       2.2062879      77548.146     -21381854       595.2464       595.2464       595.2464       2202.3768      2797.6232      2202.3768      2797.6232      2202.3768      2797.6232      2.1090668e+08  0.5            17858500       0.65092138     5402.5981      10805.189      8.6479834    
  35712200   26961.798      150.5471      -21452332       2.2062879      79966.158     -21372366       595.2464       595.2464       595.2464       2202.3768      2797.6232      2202.3768      2797.6232      2202.3768      2797.6232      2.1090668e+08  0.5            17858600       0.66942645     5403.9423      10807.887      8.6281889    
  35712400   27718.948      154.95915     -21450942       2.2062879      82211.794     -21368731       595.2464       595.2464       595.2464       2202.3768      2797.6232      2202.3768      2797.6232      2202.3768      2797.6232      2.1090668e+08  0.5            17858700       0.68827286     5306.0399      10612.047      8.6127383    
  35712600   28391.323      161.30095     -21451825       2.2062879      84205.996     -21367619       595.2464       595.2464       595.2464       2202.3768      2797.6232      2202.3768      2797.6232      2202.3768      2797.6232      2.1090668e+08  0.5            17858800       0.70671799     5421.4894      10842.99       8.5922286    
  35712800   29089.954      169.20218     -21450062       2.2062879      86278.068     -21363784       595.2464       595.2464       595.2464       2202.3768      2797.6232      2202.3768      2797.6232      2202.3768      2797.6232      2.1090668e+08  0.5            17858900       0.72530282     5380.7398      10761.498      8.5734751    
  35713000   29883.964      174.83686     -21448295       2.2062879      88633.028     -21359662       595.2464       595.2464       595.2464       2202.3768      2797.6232      2202.3768      2797.6232      2202.3768      2797.6232      2.1090668e+08  0.5            17859000       0.74415151     5305.4         10610.773      8.5577664    
  35713200   30681.553      178.17091     -21448046       2.2062879      90998.603     -21357047       595.2464       595.2464       595.2464       2202.3768      2797.6232      2202.3768      2797.6232      2202.3768      2797.6232      2.1090668e+08  0.5            17859100       0.7626416      5408.3127      10816.668      8.537888     
  35713400   31377.728      185.55636     -21446599       2.2062879      93063.392     -21353536       595.2464       595.2464       595.2464       2202.3768      2797.6232      2202.3768      2797.6232      2202.3768      2797.6232      2.1090668e+08  0.5            17859200       0.7811342      5407.5702      10815.128      8.5181043    
  35713600   32052.991      191.72671     -21445504       2.2062879      95066.16      -21350438       595.2464       595.2464       595.2464       2202.3768      2797.6232      2202.3768      2797.6232      2202.3768      2797.6232      2.1090668e+08  0.5            17859300       0.7998776      5335.1851      10670.338      8.5010479    
  35713800   32810.388      196.90986     -21443999       2.2062879      97312.528     -21346686       595.2464       595.2464       595.2464       2202.3768      2797.6232      2202.3768      2797.6232      2202.3768      2797.6232      2.1090668e+08  0.5            17859400       0.81887351     5264.2978      10528.604      8.4865291    
  35714000   33621.739      202.65829     -21444742       2.2062879      99718.918     -21345023       595.2464       595.2464       595.2464       2202.3768      2797.6232      2202.3768      2797.6232      2202.3768      2797.6232      2.1090668e+08  0.5            17859500       0.83812384     5194.7275      10389.452      8.4743849    
  35714200   34366.015      207.62371     -21452093       2.2062879      101926.37     -21350166       595.2464       595.2464       595.2464       2202.3768      2797.6232      2202.3768      2797.6232      2202.3768      2797.6232      2.1090668e+08  0.5            17859600       0.85709736     5270.4916      10540.999      8.4591987    
  35714400   35032.185      213.55044     -21448597       2.2062879      103902.17     -21344695       595.2464       595.2464       595.2464       2202.3768      2797.6232      2202.3768      2797.6232      2202.3768      2797.6232      2.1090668e+08  0.5            17859700       0.87625334     5220.308       10440.601      8.4456109    
  35714600   35754.973      218.02013     -21453633       2.2062879      106045.89     -21347587       595.2464       595.2464       595.2464       2202.3768      2797.6232      2202.3768      2797.6232      2202.3768      2797.6232      2.1090668e+08  0.5            17859800       0.894733       5411.3579      10822.715      8.4254225    
  35714800   36558.181      228.19448     -21452738       2.2062879      108428.13     -21344310       595.2464       595.2464       595.2464       2202.3768      2797.6232      2202.3768      2797.6232      2202.3768      2797.6232      2.1090668e+08  0.5            17859900       0.91319407     5416.8068      10833.622      8.405132     
  35715000   37328.726      234.12553     -21453334       2.2062879      110713.49     -21342620       595.2464       595.2464       595.2464       2202.3768      2797.6232      2202.3768      2797.6232      2202.3768      2797.6232      2.1090668e+08  0.5            17860000       0.93203222     5308.3586      10616.722      8.3883101    
  35715200   38016.543      240.24876     -21452351       2.2062879      112753.49     -21339598       595.2464       595.2464       595.2464       2202.3768      2797.6232      2202.3768      2797.6232      2202.3768      2797.6232      2.1090668e+08  0.5            17860100       0.95057349     5393.3904      10786.777      8.368793     
  35715400   38720.178      245.64213     -21450991       2.2062879      114840.41     -21336150       595.2464       595.2464       595.2464       2202.3768      2797.6232      2202.3768      2797.6232      2202.3768      2797.6232      2.1090668e+08  0.5            17860200       0.96908109     5403.1895      10806.393      8.3490235    
  35715600   39491.731      250.90228     -21449214       2.2062879      117128.76     -21332086       595.2464       595.2464       595.2464       2202.3768      2797.6232      2202.3768      2797.6232      2202.3768      2797.6232      2.1090668e+08  0.5            17860300       0.98801371     5281.8685      10563.706      8.3328891    
  35715800   40283.484      259.44879     -21445893       2.2062879      119477.03     -21326416       595.2464       595.2464       595.2464       2202.3768      2797.6232      2202.3768      2797.6232      2202.3768      2797.6232      2.1090668e+08  0.5            17860400       1.0066072      5378.245       10756.481      8.3138474    
  35716000   40994.954      266.42044     -21451414       2.2062879      121587.18     -21329827       595.2464       595.2464       595.2464       2202.3768      2797.6232      2202.3768      2797.6232      2202.3768      2797.6232      2.1090668e+08  0.5            17860500       1.0251538      5391.8398      10783.69       8.2944432    
  35716200   41688.957      273.47774     -21450270       2.2062879      123645.53     -21326625       595.2464       595.2464       595.2464       2202.3768      2797.6232      2202.3768      2797.6232      2202.3768      2797.6232      2.1090668e+08  0.5            17860600       1.0440604      5289.1639      10578.361      8.2779233    
  35716400   42440.058      280.13099     -21447981       2.2062879      125873.22     -21322107       595.2464       595.2464       595.2464       2202.3768      2797.6232      2202.3768      2797.6232      2202.3768      2797.6232      2.1090668e+08  0.5            17860700       1.0626069      5391.8387      10783.668      8.2585223    
  35716600   43226.302      285.39436     -21454920       2.2062879      128205.15     -21326715       595.2464       595.2464       595.2464       2202.3768      2797.6232      2202.3768      2797.6232      2202.3768      2797.6232      2.1090668e+08  0.5            17860800       1.0811629      5389.1         10778.198      8.2392224    
  35716800   43967.125      291.95662     -21446258       2.2062879      130402.36     -21315856       595.2464       595.2464       595.2464       2202.3768      2797.6232      2202.3768      2797.6232      2202.3768      2797.6232      2.1090668e+08  0.5            17860900       1.0999573      5320.7296      10641.473      8.2217299    
  35717000   44668.562      300.01536     -21443836       2.2062879      132482.76     -21311353       595.2464       595.2464       595.2464       2202.3768      2797.6232      2202.3768      2797.6232      2202.3768      2797.6232      2.1090668e+08  0.5            17861000       1.1185818      5369.2789      10738.532      8.2029484    
  35717200   45391.116      305.87754     -21446610       2.2062879      134625.78     -21311984       595.2464       595.2464       595.2464       2202.3768      2797.6232      2202.3768      2797.6232      2202.3768      2797.6232      2.1090668e+08  0.5            17861100       1.1373171      5337.5128      10675.032      8.1849692    
  35717400   46170.492      315.97192     -21442181       2.2062879      136937.34     -21305244       595.2464       595.2464       595.2464       2202.3768      2797.6232      2202.3768      2797.6232      2202.3768      2797.6232      2.1090668e+08  0.5            17861200       1.1561495      5310.016       10620.032      8.1676508    
  35717600   46946.675      323.27534     -21439261       2.2062879      139239.43     -21300022       595.2464       595.2464       595.2464       2202.3768      2797.6232      2202.3768      2797.6232      2202.3768      2797.6232      2.1090668e+08  0.5            17861300       1.1747619      5372.7507      10745.509      8.1487591    
  35717800   47659.645      330.1493      -21439299       2.2062879      141354.03     -21297945       595.2464       595.2464       595.2464       2202.3768      2797.6232      2202.3768      2797.6232      2202.3768      2797.6232      2.1090668e+08  0.5            17861400       1.1933909      5367.9822      10735.95       8.1299891    
  35718000   48377.185      336.78507     -21437446       2.2062879      143482.18     -21293964       595.2464       595.2464       595.2464       2202.3768      2797.6232      2202.3768      2797.6232      2202.3768      2797.6232      2.1090668e+08  0.5            17861500       1.2122626      5298.9178      10597.815      8.1128488    
  35718200   49141.686      346.54654     -21441112       2.2062879      145749.62     -21295363       595.2464       595.2464       595.2464       2202.3768      2797.6232      2202.3768      2797.6232      2202.3768      2797.6232      2.1090668e+08  0.5            17861600       1.2309491      5351.4784      10702.988      8.0944359    
  35718400   49935.161      353.68328     -21438926       2.2062879      148102.99     -21290823       595.2464       595.2464       595.2464       2202.3768      2797.6232      2202.3768      2797.6232      2202.3768      2797.6232      2.1090668e+08  0.5            17861700       1.2495457      5377.3314      10754.666      8.0754349    
  35718600   50678.874      362.90004     -21437129       2.2062879      150308.78     -21286820       595.2464       595.2464       595.2464       2202.3768      2797.6232      2202.3768      2797.6232      2202.3768      2797.6232      2.1090668e+08  0.5            17861800       1.2683747      5310.9562      10621.915      8.0579224    
  35718800   51404.236      369.92552     -21437268       2.2062879      152460.13     -21284808       595.2464       595.2464       595.2464       2202.3768      2797.6232      2202.3768      2797.6232      2202.3768      2797.6232      2.1090668e+08  0.5            17861900       1.2869019      5397.467       10794.918      8.038487     
  35719000   52181.367      380.05718     -21430806       2.2062879      154765.03     -21276041       595.2464       595.2464       595.2464       2202.3768      2797.6232      2202.3768      2797.6232      2202.3768      2797.6232      2.1090668e+08  0.5            17862000       1.3054896      5379.8847      10759.77       8.0194493    
  35719200   53014.802      384.21733     -21430277       2.2062879      157236.92     -21273040       595.2464       595.2464       595.2464       2202.3768      2797.6232      2202.3768      2797.6232      2202.3768      2797.6232      2.1090668e+08  0.5            17862100       1.3243476      5302.8025      10605.647      8.0020557    
  35719400   53880.811      391.58367     -21435970       2.2062879      159805.42     -21276164       595.2464       595.2464       595.2464       2202.3768      2797.6232      2202.3768      2797.6232      2202.3768      2797.6232      2.1090668e+08  0.5            17862200       1.3430797      5338.4198      10676.816      7.9838746    
  35719600   54949.692      399.11736     -21433539       2.2062879      162975.62     -21270564       595.2464       595.2464       595.2464       2202.3768      2797.6232      2202.3768      2797.6232      2202.3768      2797.6232      2.1090668e+08  0.5            17862300       1.3618962      5314.4824      10628.958      7.966172     
  35719800   56566.468      407.96903     -21429908       2.2062879      167770.83     -21262137       595.2464       595.2464       595.2464       2202.3768      2797.6232      2202.3768      2797.6232      2202.3768      2797.6232      2.1090668e+08  0.5            17862400       1.3808742      5269.2575      10538.496      7.9493689    
  35720000   57640.607      420.91317     -21433635       2.2062879      170956.62     -21262679       595.2464       595.2464       595.2464       2202.3768      2797.6232      2202.3768      2797.6232      2202.3768      2797.6232      2.1090668e+08  0.5            17862500       1.3995991      5340.4939      10680.993      7.9310731    
  35720200   55970.257      427.70856     -21429894       2.2062879      166002.52     -21263891       595.2464       595.2464       595.2464       2202.3768      2797.6232      2202.3768      2797.6232      2202.3768      2797.6232      2.1090668e+08  0.5            17862600       1.4183157      5342.8516      10685.718      7.9127197    
  35720400   53915.209      433.66513     -21430354       2.2062879      159907.44     -21270447       595.2464       595.2464       595.2464       2202.3768      2797.6232      2202.3768      2797.6232      2202.3768      2797.6232      2.1090668e+08  0.5            17862700       1.4373314      5258.797       10517.567      7.8960008    
  35720600   56966.163      445.16488     -21428188       2.2062879      168956.28     -21259232       595.2464       595.2464       595.2464       2202.3768      2797.6232      2202.3768      2797.6232      2202.3768      2797.6232      2.1090668e+08  0.5            17862800       1.4560442      5343.9403      10687.871      7.8775841    
  35720800   58420.165      455.50538     -21426312       2.2062879      173268.72     -21253043       595.2464       595.2464       595.2464       2202.3768      2797.6232      2202.3768      2797.6232      2202.3768      2797.6232      2.1090668e+08  0.5            17862900       1.4747936      5333.5114      10667.07       7.8593538    
  35721000   59406.193      461.63726     -21420251       2.2062879      176193.18     -21244058       595.2464       595.2464       595.2464       2202.3768      2797.6232      2202.3768      2797.6232      2202.3768      2797.6232      2.1090668e+08  0.5            17863000       1.4938276      5253.752       10507.456      7.8426058    
  35721200   60590.917      471.52003     -21419500       2.2062879      179706.97     -21239793       595.2464       595.2464       595.2464       2202.3768      2797.6232      2202.3768      2797.6232      2202.3768      2797.6232      2.1090668e+08  0.5            17863100       1.5126846      5303.0798      10606.193      7.824885     
  35721400   61662.467      479.55853     -21418746       2.2062879      182885.08     -21235860       595.2464       595.2464       595.2464       2202.3768      2797.6232      2202.3768      2797.6232      2202.3768      2797.6232      2.1090668e+08  0.5            17863200       1.5314544      5327.7081      10655.416      7.8066924    
  35721600   63576.006      487.28668     -21404905       2.2062879      188560.46     -21216344       595.2464       595.2464       595.2464       2202.3768      2797.6232      2202.3768      2797.6232      2202.3768      2797.6232      2.1090668e+08  0.5            17863300       1.5505226      5244.3285      10488.66       7.7899852    
  35721800   65185.372      498.34902     -21405228       2.2062879      193333.69     -21211895       595.2464       595.2464       595.2464       2202.3768      2797.6232      2202.3768      2797.6232      2202.3768      2797.6232      2.1090668e+08  0.5            17863400       1.5692167      5349.2899      10698.591      7.7713686    
  35722000   61692.848      506.49538     -21402572       2.2062879      182975.19     -21219597       595.2464       595.2464       595.2464       2202.3768      2797.6232      2202.3768      2797.6232      2202.3768      2797.6232      2.1090668e+08  0.5            17863500       1.5879721      5331.779       10663.526      7.7530506    
  35722200   59770.8        511.86412     -21408156       2.2062879      177274.57     -21230881       595.2464       595.2464       595.2464       2202.3768      2797.6232      2202.3768      2797.6232      2202.3768      2797.6232      2.1090668e+08  0.5            17863600       1.6070561      5239.9848      10479.985      7.7363034    
  35722400   62781.568      523.15578     -21412726       2.2062879      186204.23     -21226521       595.2464       595.2464       595.2464       2202.3768      2797.6232      2202.3768      2797.6232      2202.3768      2797.6232      2.1090668e+08  0.5            17863700       1.6257156      5359.2165      10718.44       7.7174874    
  35722600   64506.734      531.6872      -21405971       2.2062879      191320.91     -21214650       595.2464       595.2464       595.2464       2202.3768      2797.6232      2202.3768      2797.6232      2202.3768      2797.6232      2.1090668e+08  0.5            17863800       1.6443824      5357.1132      10714.229      7.6987087    
  35722800   66589.477      539.00795     -21410588       2.2062879      197498.13     -21213090       595.2464       595.2464       595.2464       2202.3768      2797.6232      2202.3768      2797.6232      2202.3768      2797.6232      2.1090668e+08  0.5            17863900       1.6630811      5347.9677      10695.922      7.6800803    
  35723000   67509.122      546.33889     -21416380       2.2062879      200225.71     -21216154       595.2464       595.2464       595.2464       2202.3768      2797.6232      2202.3768      2797.6232      2202.3768      2797.6232      2.1090668e+08  0.5            17864000       1.6821411      5246.579       10493.12       7.663097     
  35723200   67574.706      555.40694     -21411034       2.2062879      200420.23     -21210614       595.2464       595.2464       595.2464       2202.3768      2797.6232      2202.3768      2797.6232      2202.3768      2797.6232      2.1090668e+08  0.5            17864100       1.7008495      5345.1808      10690.393      7.6444869    
  35723400   69043.42       564.17894     -21401763       2.2062879      204776.29     -21196987       595.2464       595.2464       595.2464       2202.3768      2797.6232      2202.3768      2797.6232      2202.3768      2797.6232      2.1090668e+08  0.5            17864200       1.7195321      5352.5829      10705.162      7.6257602    
  35723600   71277.983      577.07055     -21401198       2.2062879      211403.8      -21189794       595.2464       595.2464       595.2464       2202.3768      2797.6232      2202.3768      2797.6232      2202.3768      2797.6232      2.1090668e+08  0.5            17864300       1.7386142      5240.5312      10481.08       7.6087828    
  35723800   69822.657      587.22812     -21390003       2.2062879      207087.44     -21182916       595.2464       595.2464       595.2464       2202.3768      2797.6232      2202.3768      2797.6232      2202.3768      2797.6232      2.1090668e+08  0.5            17864400       1.7574278      5315.2807      10630.556      7.5906015    
  35724000   66424.868      594.2561      -21385110       2.2062879      197009.91     -21188100       595.2464       595.2464       595.2464       2202.3768      2797.6232      2202.3768      2797.6232      2202.3768      2797.6232      2.1090668e+08  0.5            17864500       1.7764372      5260.5725      10521.144      7.5732409    
  35724200   69422.623      599.67178     -21391014       2.2062879      205900.97     -21185113       595.2464       595.2464       595.2464       2202.3768      2797.6232      2202.3768      2797.6232      2202.3768      2797.6232      2.1090668e+08  0.5            17864600       1.7952912      5303.9199      10607.861      7.5551919    
  35724400   72244.73       610.2144      -21386454       2.2062879      214271.08     -21172183       595.2464       595.2464       595.2464       2202.3768      2797.6232      2202.3768      2797.6232      2202.3768      2797.6232      2.1090668e+08  0.5            17864700       1.8142986      5261.0814      10522.126      7.5377648    
  35724600   72856.179      619.21852     -21385271       2.2062879      216084.58     -21169187       595.2464       595.2464       595.2464       2202.3768      2797.6232      2202.3768      2797.6232      2202.3768      2797.6232      2.1090668e+08  0.5            17864800       1.8330694      5327.4416      10654.917      7.5193337    
  35724800   73619.716      627.03537     -21390987       2.2062879      218349.16     -21172638       595.2464       595.2464       595.2464       2202.3768      2797.6232      2202.3768      2797.6232      2202.3768      2797.6232      2.1090668e+08  0.5            17864900       1.8517959      5340.033       10680.06       7.5007165    
  35725000   75211.873      639.24939     -21381489       2.2062879      223071.35     -21158417       595.2464       595.2464       595.2464       2202.3768      2797.6232      2202.3768      2797.6232      2202.3768      2797.6232      2.1090668e+08  0.5            17865000       1.8705451      5333.5407      10667.063      7.4821889    
  35725200   76854.571      650.96389     -21377727       2.2062879      227943.43     -21149784       595.2464       595.2464       595.2464       2202.3768      2797.6232      2202.3768      2797.6232      2202.3768      2797.6232      2.1090668e+08  0.5            17865100       1.8896824      5225.4063      10450.833      7.465189     
  35725400   76830.703      661.29069     -21369915       2.2062879      227872.64     -21142042       595.2464       595.2464       595.2464       2202.3768      2797.6232      2202.3768      2797.6232      2202.3768      2797.6232      2.1090668e+08  0.5            17865200       1.908496       5315.3095      10630.617      7.4468843    
  35725600   74455.875      671.00507     -21365643       2.2062879      220829.13     -21144814       595.2464       595.2464       595.2464       2202.3768      2797.6232      2202.3768      2797.6232      2202.3768      2797.6232      2.1090668e+08  0.5            17865300       1.9273072      5315.9871      10631.975      7.4285605    
  35725800   74746.924      683.59882     -21361382       2.2062879      221692.35     -21139690       595.2464       595.2464       595.2464       2202.3768      2797.6232      2202.3768      2797.6232      2202.3768      2797.6232      2.1090668e+08  0.5            17865400       1.946377       5243.8756      10487.738      7.4112126    
  35726000   78674.837      692.96505     -21375577       2.2062879      233342.17     -21142235       595.2464       595.2464       595.2464       2202.3768      2797.6232      2202.3768      2797.6232      2202.3768      2797.6232      2.1090668e+08  0.5            17865500       1.9652492      5298.801       10597.585      7.3930883    
  35726200   79023.837      703.65165     -21377814       2.2062879      234377.27     -21143437       595.2464       595.2464       595.2464       2202.3768      2797.6232      2202.3768      2797.6232      2202.3768      2797.6232      2.1090668e+08  0.5            17865600       1.9842136      5273.0551      10546.118      7.3752922    
  35726400   78616.082      713.06531     -21368687       2.2062879      233167.91     -21135519       595.2464       595.2464       595.2464       2202.3768      2797.6232      2202.3768      2797.6232      2202.3768      2797.6232      2.1090668e+08  0.5            17865700       2.0030797      5300.5047      10601.043      7.357113     
  35726600   81332.235      726.34428     -21359892       2.2062879      241223.76     -21118668       595.2464       595.2464       595.2464       2202.3768      2797.6232      2202.3768      2797.6232      2202.3768      2797.6232      2.1090668e+08  0.5            17865800       2.022175       5236.8765      10473.739      7.339754     
  35726800   83856.571      737.73811     -21361065       2.2062879      248710.71     -21112355       595.2464       595.2464       595.2464       2202.3768      2797.6232      2202.3768      2797.6232      2202.3768      2797.6232      2.1090668e+08  0.5            17865900       2.0409893      5315.1066      10630.197      7.3213543    
  35727000   80985.301      743.64038     -21364558       2.2062879      240194.79     -21124363       595.2464       595.2464       595.2464       2202.3768      2797.6232      2202.3768      2797.6232      2202.3768      2797.6232      2.1090668e+08  0.5            17866000       2.059798       5316.7078      10633.421      7.3029274    
  35727200   79408.364      754.99006     -21370877       2.2062879      235517.74     -21135360       595.2464       595.2464       595.2464       2202.3768      2797.6232      2202.3768      2797.6232      2202.3768      2797.6232      2.1090668e+08  0.5            17866100       2.0785951      5319.9682      10639.943      7.2844528    
  35727400   85918.003      775.45889     -21365688       2.2062879      254824.72     -21110863       595.2464       595.2464       595.2464       2202.3768      2797.6232      2202.3768      2797.6232      2202.3768      2797.6232      2.1090668e+08  0.5            17866200       2.0976724      5241.8193      10483.647      7.2669436    
  35727600   85062.546      781.40261     -21369620       2.2062879      252287.52     -21117332       595.2464       595.2464       595.2464       2202.3768      2797.6232      2202.3768      2797.6232      2202.3768      2797.6232      2.1090668e+08  0.5            17866300       2.1165415      5299.6867      10599.344      7.2486932    
  35727800   82076.258      790.93342     -21367803       2.2062879      243430.47     -21124373       595.2464       595.2464       595.2464       2202.3768      2797.6232      2202.3768      2797.6232      2202.3768      2797.6232      2.1090668e+08  0.5            17866400       2.1354796      5280.3524      10560.737      7.2306656    
  35728000   83471.841      805.27542     -21366769       2.2062879      247569.63     -21119199       595.2464       595.2464       595.2464       2202.3768      2797.6232      2202.3768      2797.6232      2202.3768      2797.6232      2.1090668e+08  0.5            17866500       2.1546741      5209.8124      10419.606      7.2134813    
  35728200   87123.407      823.02203     -21361054       2.2062879      258399.84     -21102655       595.2464       595.2464       595.2464       2202.3768      2797.6232      2202.3768      2797.6232      2202.3768      2797.6232      2.1090668e+08  0.5            17866600       2.1735828      5288.5921      10577.188      7.1953153    
  35728400   86894.526      836.0842      -21367055       2.2062879      257720.99     -21109334       595.2464       595.2464       595.2464       2202.3768      2797.6232      2202.3768      2797.6232      2202.3768      2797.6232      2.1090668e+08  0.5            17866700       2.1924777      5292.4387      10584.876      7.1770916    
  35728600   86442.725      843.48923     -21367368       2.2062879      256381        -21110987       595.2464       595.2464       595.2464       2202.3768      2797.6232      2202.3768      2797.6232      2202.3768      2797.6232      2.1090668e+08  0.5            17866800       2.2113688      5293.475       10586.967      7.1588446    
  35728800   90441.15       853.47157     -21370284       2.2062879      268239.95     -21102044       595.2464       595.2464       595.2464       2202.3768      2797.6232      2202.3768      2797.6232      2202.3768      2797.6232      2.1090668e+08  0.5            17866900       2.2306367      5189.9916      10379.969      7.141793     
  35729000   92240.708      869.95847     -21374764       2.2062879      273577.27     -21101187       595.2464       595.2464       595.2464       2202.3768      2797.6232      2202.3768      2797.6232      2202.3768      2797.6232      2.1090668e+08  0.5            17867000       2.2496052      5271.8754      10543.733      7.1237566    
  35729200   88767.873      878.884       -21378463       2.2062879      263277.17     -21115186       595.2464       595.2464       595.2464       2202.3768      2797.6232      2202.3768      2797.6232      2202.3768      2797.6232      2.1090668e+08  0.5            17867100       2.2685266      5285.0441      10570.116      7.1055564    
  35729400   87980.099      889.82282     -21382200       2.2062879      260940.7      -21121259       595.2464       595.2464       595.2464       2202.3768      2797.6232      2202.3768      2797.6232      2202.3768      2797.6232      2.1090668e+08  0.5            17867200       2.2877216      5209.6827      10419.38       7.0881929    
  35729600   89682.199      905.28979     -21381958       2.2062879      265988.97     -21115969       595.2464       595.2464       595.2464       2202.3768      2797.6232      2202.3768      2797.6232      2202.3768      2797.6232      2.1090668e+08  0.5            17867300       2.3066652      5278.8335      10557.617      7.0700291    
  35729800   90914.268      915.8755      -21387991       2.2062879      269643.17     -21118348       595.2464       595.2464       595.2464       2202.3768      2797.6232      2202.3768      2797.6232      2202.3768      2797.6232      2.1090668e+08  0.5            17867400       2.3256171      5276.5061      10553.077      7.0518771    
  35730000   92495.134      927.22701     -21387761       2.2062879      274331.87     -21113429       595.2464       595.2464       595.2464       2202.3768      2797.6232      2202.3768      2797.6232      2202.3768      2797.6232      2.1090668e+08  0.5            17867500       2.3448586      5197.1168      10394.19       7.0345819    
  35730200   94106.386      945.77043     -21384466       2.2062879      279110.7      -21105356       595.2464       595.2464       595.2464       2202.3768      2797.6232      2202.3768      2797.6232      2202.3768      2797.6232      2.1090668e+08  0.5            17867600       2.3643303      5135.65        10271.263      7.017939     
  35730400   95590.435      957.16475     -21373413       2.2062879      283512.24     -21089901       595.2464       595.2464       595.2464       2202.3768      2797.6232      2202.3768      2797.6232      2202.3768      2797.6232      2.1090668e+08  0.5            17867700       2.3832706      5279.734       10559.507      6.9996907    
  35730600   100039.15      973.51001     -21379207       2.2062879      296706.73     -21082501       595.2464       595.2464       595.2464       2202.3768      2797.6232      2202.3768      2797.6232      2202.3768      2797.6232      2.1090668e+08  0.5            17867800       2.4022575      5266.7928      10533.593      6.9815668    
  35730800   97949.434      991.03631     -21366384       2.2062879      290508.81     -21075875       595.2464       595.2464       595.2464       2202.3768      2797.6232      2202.3768      2797.6232      2202.3768      2797.6232      2.1090668e+08  0.5            17867900       2.4216837      5147.6956      10295.373      6.9646931    
  35731000   92325.14       999.76984     -21360232       2.2062879      273827.69     -21086405       595.2464       595.2464       595.2464       2202.3768      2797.6232      2202.3768      2797.6232      2202.3768      2797.6232      2.1090668e+08  0.5            17868000       2.4410935      5152.0414      10304.101      6.9477333    
  35731200   93913.91       1015.9223     -21354163       2.2062879      278539.83     -21075623       595.2464       595.2464       595.2464       2202.3768      2797.6232      2202.3768      2797.6232      2202.3768      2797.6232      2.1090668e+08  0.5            17868100       2.4604591      5163.7865      10327.562      6.930612     
  35731400   96589.95       1034.1764     -21354067       2.2062879      286476.71     -21067591       595.2464       595.2464       595.2464       2202.3768      2797.6232      2202.3768      2797.6232      2202.3768      2797.6232      2.1090668e+08  0.5            17868200       2.4801365      5081.972       10163.898      6.9143261    
  35731600   98308.983      1045.858      -21357455       2.2062879      291575.2      -21065880       595.2464       595.2464       595.2464       2202.3768      2797.6232      2202.3768      2797.6232      2202.3768      2797.6232      2.1090668e+08  0.5            17868300       2.4995035      5163.4218      10326.909      6.8971318    
  35731800   99902.692      1060.0286     -21339886       2.2062879      296301.99     -21043584       595.2464       595.2464       595.2464       2202.3768      2797.6232      2202.3768      2797.6232      2202.3768      2797.6232      2.1090668e+08  0.5            17868400       2.5188459      5169.993       10339.966      6.8798384    
  35732000   101192.72      1077.0072     -21345279       2.2062879      300128.11     -21045151       595.2464       595.2464       595.2464       2202.3768      2797.6232      2202.3768      2797.6232      2202.3768      2797.6232      2.1090668e+08  0.5            17868500       2.5385689      5070.212       10140.412      6.8635438    
  35732200   104507.75      1095.9659     -21340849       2.2062879      309960.16     -21030889       595.2464       595.2464       595.2464       2202.3768      2797.6232      2202.3768      2797.6232      2202.3768      2797.6232      2.1090668e+08  0.5            17868600       2.5579499      5159.7071      10319.416      6.8462832    
  35732400   105637.32      1113.203      -21331432       2.2062879      313310.37     -21018122       595.2464       595.2464       595.2464       2202.3768      2797.6232      2202.3768      2797.6232      2202.3768      2797.6232      2.1090668e+08  0.5            17868700       2.5773306      5159.7731      10319.568      6.8289908    
  35732600   98892.604      1123.9196     -21321747       2.2062879      293306.17     -21028441       595.2464       595.2464       595.2464       2202.3768      2797.6232      2202.3768      2797.6232      2202.3768      2797.6232      2.1090668e+08  0.5            17868800       2.5968353      5126.9783      10253.96       6.8119934    
  35732800   97757.43       1138.385      -21318522       2.2062879      289939.35     -21028583       595.2464       595.2464       595.2464       2202.3768      2797.6232      2202.3768      2797.6232      2202.3768      2797.6232      2.1090668e+08  0.5            17868900       2.6162055      5162.5515      10325.081      6.794611     
  35733000   101574.73      1150.8729     -21314511       2.2062879      301261.09     -21013250       595.2464       595.2464       595.2464       2202.3768      2797.6232      2202.3768      2797.6232      2202.3768      2797.6232      2.1090668e+08  0.5            17869000       2.6356441      5144.4172      10288.858      6.7773756    
  35733200   103537.71      1169.4889     -21327476       2.2062879      307083.12     -21020393       595.2464       595.2464       595.2464       2202.3768      2797.6232      2202.3768      2797.6232      2202.3768      2797.6232      2.1090668e+08  0.5            17869100       2.6553492      5074.8121      10149.588      6.7607882    
  35733400   106052.88      1180.6509     -21330416       2.2062879      314542.89     -21015873       595.2464       595.2464       595.2464       2202.3768      2797.6232      2202.3768      2797.6232      2202.3768      2797.6232      2.1090668e+08  0.5            17869200       2.6747712      5148.7889      10297.535      6.743443     
  35733600   107070.63      1200.5516     -21322317       2.2062879      317561.43     -21004756       595.2464       595.2464       595.2464       2202.3768      2797.6232      2202.3768      2797.6232      2202.3768      2797.6232      2.1090668e+08  0.5            17869300       2.69428        5125.9008      10251.875      6.7262847    
  35733800   107101.15      1211.4116     -21317445       2.2062879      317651.95     -20999793       595.2464       595.2464       595.2464       2202.3768      2797.6232      2202.3768      2797.6232      2202.3768      2797.6232      2.1090668e+08  0.5            17869400       2.7130379      5331.1048      10662.222      6.7072376    
  35734000   109602.63      1229.3045     -21304793       2.2062879      325071.1      -20979722       595.2464       595.2464       595.2464       2202.3768      2797.6232      2202.3768      2797.6232      2202.3768      2797.6232      2.1090668e+08  0.5            17869500       2.7318891      5304.6866      10609.376      6.688423     
  35734200   111219.02      1244.742      -21305138       2.2062879      329865.17     -20975273       595.2464       595.2464       595.2464       2202.3768      2797.6232      2202.3768      2797.6232      2202.3768      2797.6232      2.1090668e+08  0.5            17869600       2.7512058      5176.8626      10353.702      6.670737     
  35734400   107454.04      1256.6622     -21312138       2.2062879      318698.57     -20993440       595.2464       595.2464       595.2464       2202.3768      2797.6232      2202.3768      2797.6232      2202.3768      2797.6232      2.1090668e+08  0.5            17869700       2.7705548      5168.2284      10336.46       6.653106     
  35734600   103803.69      1266.5472     -21317038       2.2062879      307871.99     -21009166       595.2464       595.2464       595.2464       2202.3768      2797.6232      2202.3768      2797.6232      2202.3768      2797.6232      2.1090668e+08  0.5            17869800       2.7898256      5189.2127      10378.458      6.6352656    
  35734800   110269.18      1282.5655     -21305417       2.2062879      327048.03     -20978369       595.2464       595.2464       595.2464       2202.3768      2797.6232      2202.3768      2797.6232      2202.3768      2797.6232      2.1090668e+08  0.5            17869900       2.8093647      5117.9482      10235.88       6.6180382    
  35735000   112024.15      1298.3347     -21308117       2.2062879      332253.11     -20975864       595.2464       595.2464       595.2464       2202.3768      2797.6232      2202.3768      2797.6232      2202.3768      2797.6232      2.1090668e+08  0.5            17870000       2.8294504      4978.651       9957.2897      6.6020559    
  35735200   111420.72      1314.079      -21293923       2.2062879      330463.37     -20963459       595.2464       595.2464       595.2464       2202.3768      2797.6232      2202.3768      2797.6232      2202.3768      2797.6232      2.1090668e+08  0.5            17870100       2.849247       5051.3804      10102.765      6.5853504    
  35735400   112478.98      1324.0508     -21290918       2.2062879      333602.07     -20957316       595.2464       595.2464       595.2464       2202.3768      2797.6232      2202.3768      2797.6232      2202.3768      2797.6232      2.1090668e+08  0.5            17870200       2.8691588      5022.1436      10044.232      6.5688685    
  35735600   116644.24      1340.9138     -21288038       2.2062879      345955.84     -20942082       595.2464       595.2464       595.2464       2202.3768      2797.6232      2202.3768      2797.6232      2202.3768      2797.6232      2.1090668e+08  0.5            17870300       2.8884835      5174.7173      10349.501      6.5510097    
  35735800   116669.32      1352.3576     -21282458       2.2062879      346030.23     -20936427       595.2464       595.2464       595.2464       2202.3768      2797.6232      2202.3768      2797.6232      2202.3768      2797.6232      2.1090668e+08  0.5            17870400       2.9080127      5120.5401      10241.1        6.5335916    
  35736000   109080.8       1358.308      -21278979       2.2062879      323523.39     -20955456       595.2464       595.2464       595.2464       2202.3768      2797.6232      2202.3768      2797.6232      2202.3768      2797.6232      2.1090668e+08  0.5            17870500       2.9271832      5216.3464      10432.667      6.515348     
  35736200   108512.06      1366.0261     -21285064       2.2062879      321836.56     -20963228       595.2464       595.2464       595.2464       2202.3768      2797.6232      2202.3768      2797.6232      2202.3768      2797.6232      2.1090668e+08  0.5            17870600       2.9464729      5184.116       10368.202      6.4973552    
  35736400   114397.13      1379.5185     -21300779       2.2062879      339291.13     -20961488       595.2464       595.2464       595.2464       2202.3768      2797.6232      2202.3768      2797.6232      2202.3768      2797.6232      2.1090668e+08  0.5            17870700       2.965949       5134.4863      10268.991      6.479753     
  35736600   117193.77      1392.3776     -21286416       2.2062879      347585.7      -20938831       595.2464       595.2464       595.2464       2202.3768      2797.6232      2202.3768      2797.6232      2202.3768      2797.6232      2.1090668e+08  0.5            17870800       2.9853389      5157.3343      10314.696      6.4619405    
  35736800   119442.75      1399.7212     -21286416       2.2062879      354255.96     -20932160       595.2464       595.2464       595.2464       2202.3768      2797.6232      2202.3768      2797.6232      2202.3768      2797.6232      2.1090668e+08  0.5            17870900       3.0049033      5111.321       10222.612      6.4444827    
  35737000   119443.52      1411.6592     -21276528       2.2062879      354258.25     -20922270       595.2464       595.2464       595.2464       2202.3768      2797.6232      2202.3768      2797.6232      2202.3768      2797.6232      2.1090668e+08  0.5            17871000       3.0243661      5138.0124      10276.014      6.4267825    
  35737200   117684.12      1417.8423     -21274467       2.2062879      349040.04     -20925427       595.2464       595.2464       595.2464       2202.3768      2797.6232      2202.3768      2797.6232      2202.3768      2797.6232      2.1090668e+08  0.5            17871100       3.0438179      5140.9182      10281.842      6.4090372    
  35737400   118392.81      1430.7009     -21273404       2.2062879      351141.95     -20922262       595.2464       595.2464       595.2464       2202.3768      2797.6232      2202.3768      2797.6232      2202.3768      2797.6232      2.1090668e+08  0.5            17871200       3.063272       5140.2948      10280.617      6.3912754    
  35737600   123696.03      1439.9204     -21269380       2.2062879      366870.8      -20902509       595.2464       595.2464       595.2464       2202.3768      2797.6232      2202.3768      2797.6232      2202.3768      2797.6232      2.1090668e+08  0.5            17871300       3.0824333      5218.8553      10437.712      6.3728878    
  35737800   123894.8       1447.6085     -21265357       2.2062879      367460.32     -20897897       595.2464       595.2464       595.2464       2202.3768      2797.6232      2202.3768      2797.6232      2202.3768      2797.6232      2.1090668e+08  0.5            17871400       3.1017743      5170.3779      10340.749      6.3548589    
  35738000   118479.04      1451.4562     -21261770       2.2062879      351397.7      -20910372       595.2464       595.2464       595.2464       2202.3768      2797.6232      2202.3768      2797.6232      2202.3768      2797.6232      2.1090668e+08  0.5            17871500       3.1208532      5241.386       10482.758      6.3362819    
  35738200   115702.18      1453.8168     -21261382       2.2062879      343161.79     -20918220       595.2464       595.2464       595.2464       2202.3768      2797.6232      2202.3768      2797.6232      2202.3768      2797.6232      2.1090668e+08  0.5            17871600       3.1399709      5230.7583      10461.55       6.3177768    
  35738400   125062.84      1469.0718     -21258747       2.2062879      370924.63     -20887822       595.2464       595.2464       595.2464       2202.3768      2797.6232      2202.3768      2797.6232      2202.3768      2797.6232      2.1090668e+08  0.5            17871700       3.1593149      5169.5632      10339.112      6.2997157    
  35738600   126299.66      1474.47       -21260204       2.2062879      374592.92     -20885611       595.2464       595.2464       595.2464       2202.3768      2797.6232      2202.3768      2797.6232      2202.3768      2797.6232      2.1090668e+08  0.5            17871800       3.1784059      5238.0714      10476.141      6.2811394    
  35738800   123898.64      1481.6479     -21248155       2.2062879      367471.72     -20880683       595.2464       595.2464       595.2464       2202.3768      2797.6232      2202.3768      2797.6232      2202.3768      2797.6232      2.1090668e+08  0.5            17871900       3.1977923      5158.2404      10316.481      6.2631357    
  35739000   123215.55      1486.4744     -21247608       2.2062879      365445.72     -20882162       595.2464       595.2464       595.2464       2202.3768      2797.6232      2202.3768      2797.6232      2202.3768      2797.6232      2.1090668e+08  0.5            17872000       3.2169213      5227.679       10455.347      6.244616     
  35739200   129235.83      1492.5055     -21259992       2.2062879      383301.31     -20876690       595.2464       595.2464       595.2464       2202.3768      2797.6232      2202.3768      2797.6232      2202.3768      2797.6232      2.1090668e+08  0.5            17872100       3.236153       5199.7364      10399.474      6.2262866    
  35739400   130855.1       1510.1744     -21255302       2.2062879      388103.92     -20867198       595.2464       595.2464       595.2464       2202.3768      2797.6232      2202.3768      2797.6232      2202.3768      2797.6232      2.1090668e+08  0.5            17872200       3.2556108      5139.3216      10278.649      6.208378     
  35739600   126353.64      1515.8571     -21250792       2.2062879      374753.02     -20876039       595.2464       595.2464       595.2464       2202.3768      2797.6232      2202.3768      2797.6232      2202.3768      2797.6232      2.1090668e+08  0.5            17872300       3.2748049      5209.9424      10419.903      6.189953     
  35739800   124366.89      1523.4955     -21248476       2.2062879      368860.5      -20879615       595.2464       595.2464       595.2464       2202.3768      2797.6232      2202.3768      2797.6232      2202.3768      2797.6232      2.1090668e+08  0.5            17872400       3.2941989      5156.2299      10312.457      6.1718937    
  35740000   134062.17      1535.2385     -21232441       2.2062879      397615.79     -20834825       595.2464       595.2464       595.2464       2202.3768      2797.6232      2202.3768      2797.6232      2202.3768      2797.6232      2.1090668e+08  0.5            17872500       3.3133428      5223.6059      10447.167      6.1533549    
  35740200   133171.98      1546.3786     -21235280       2.2062879      394975.57     -20840304       595.2464       595.2464       595.2464       2202.3768      2797.6232      2202.3768      2797.6232      2202.3768      2797.6232      2.1090668e+08  0.5            17872600       3.332687       5169.498       10339.025      6.1351776    
  35740400   127326.17      1555.3194     -21222786       2.2062879      377637.45     -20845149       595.2464       595.2464       595.2464       2202.3768      2797.6232      2202.3768      2797.6232      2202.3768      2797.6232      2.1090668e+08  0.5            17872700       3.3517241      5252.9045      10505.805      6.1164267    
  35740600   128111         1571.3426     -21192444       2.2062879      379965.17     -20812478       595.2464       595.2464       595.2464       2202.3768      2797.6232      2202.3768      2797.6232      2202.3768      2797.6232      2.1090668e+08  0.5            17872800       3.3707013      5269.5015      10539.016      6.0975644    
  35740800   134730.75      1591.6794     -21191243       2.2062879      399598.74     -20791644       595.2464       595.2464       595.2464       2202.3768      2797.6232      2202.3768      2797.6232      2202.3768      2797.6232      2.1090668e+08  0.5            17872900       3.389912       5205.414       10410.803      6.0791196    
  35741000   133946.21      1600.4092     -21189467       2.2062879      397271.88     -20792195       595.2464       595.2464       595.2464       2202.3768      2797.6232      2202.3768      2797.6232      2202.3768      2797.6232      2.1090668e+08  0.5            17873000       3.4089758      5245.5401      10491.097      6.0604052    
  35741200   132158.86      1614.8935     -21181772       2.2062879      391970.75     -20789801       595.2464       595.2464       595.2464       2202.3768      2797.6232      2202.3768      2797.6232      2202.3768      2797.6232      2.1090668e+08  0.5            17873100       3.428323       5168.7202      10337.455      6.042186     
  35741400   135394.22      1631.2597     -21170413       2.2062879      401566.53     -20768846       595.2464       595.2464       595.2464       2202.3768      2797.6232      2202.3768      2797.6232      2202.3768      2797.6232      2.1090668e+08  0.5            17873200       3.4474128      5238.3913      10476.777      6.023505     
  35741600   141507.97      1647.6935     -21169222       2.2062879      419699.35     -20749523       595.2464       595.2464       595.2464       2202.3768      2797.6232      2202.3768      2797.6232      2202.3768      2797.6232      2.1090668e+08  0.5            17873300       3.466732       5176.1964      10352.393      6.0052169    
  35741800   137073.24      1657.975      -21165064       2.2062879      406546.36     -20758518       595.2464       595.2464       595.2464       2202.3768      2797.6232      2202.3768      2797.6232      2202.3768      2797.6232      2.1090668e+08  0.5            17873400       3.4859111      5214.0014      10427.98       5.9866769    
  35742000   133896.34      1675.4305     -21149779       2.2062879      397123.97     -20752655       595.2464       595.2464       595.2464       2202.3768      2797.6232      2202.3768      2797.6232      2202.3768      2797.6232      2.1090668e+08  0.5            17873500       3.5052635      5167.3338      10334.678      5.9684251    
  35742200   135242.23      1690.3087     -21138409       2.2062879      401115.75     -20737293       595.2464       595.2464       595.2464       2202.3768      2797.6232      2202.3768      2797.6232      2202.3768      2797.6232      2.1090668e+08  0.5            17873600       3.5243607      5236.3689      10472.741      5.9497306    
  35742400   137699.92      1714.0031     -21117117       2.2062879      408405.01     -20708712       595.2464       595.2464       595.2464       2202.3768      2797.6232      2202.3768      2797.6232      2202.3768      2797.6232      2.1090668e+08  0.5            17873700       3.543699       5171.057       10342.117      5.9314356    
  35742600   139086.92      1732.4599     -21127258       2.2062879      412518.72     -20714739       595.2464       595.2464       595.2464       2202.3768      2797.6232      2202.3768      2797.6232      2202.3768      2797.6232      2.1090668e+08  0.5            17873800       3.562187       5408.9192      10817.844      5.9117181    
  35742800   139726.21      1750.0202     -21118918       2.2062879      414414.81     -20704503       595.2464       595.2464       595.2464       2202.3768      2797.6232      2202.3768      2797.6232      2202.3768      2797.6232      2.1090668e+08  0.5            17873900       3.5809672      5324.7688      10649.512      5.8924945    
  35743000   141151.16      1768.4887     -21121834       2.2062879      418641.09     -20703193       595.2464       595.2464       595.2464       2202.3768      2797.6232      2202.3768      2797.6232      2202.3768      2797.6232      2.1090668e+08  0.5            17874000       3.5995749      5374.1161      10748.238      5.872994     
  35743200   150780.63      1790.2157     -21117866       2.2062879      447201.17     -20670665       595.2464       595.2464       595.2464       2202.3768      2797.6232      2202.3768      2797.6232      2202.3768      2797.6232      2.1090668e+08  0.5            17874100       3.6182892      5343.5299      10687.058      5.8536753    
  35743400   147514         1801.2518     -21112814       2.2062879      437512.64     -20675302       595.2464       595.2464       595.2464       2202.3768      2797.6232      2202.3768      2797.6232      2202.3768      2797.6232      2.1090668e+08  0.5            17874200       3.6372383      5277.2777      10554.57       5.8347397    
  35743600   140225.56      1813.7464     -21107676       2.2062879      415895.83     -20691780       595.2464       595.2464       595.2464       2202.3768      2797.6232      2202.3768      2797.6232      2202.3768      2797.6232      2.1090668e+08  0.5            17874300       3.6560582      5313.5248      10627.048      5.8155985    
  35743800   140621.12      1827.7833     -21114255       2.2062879      417069.04     -20697186       595.2464       595.2464       595.2464       2202.3768      2797.6232      2202.3768      2797.6232      2202.3768      2797.6232      2.1090668e+08  0.5            17874400       3.6747395      5352.9454      10705.893      5.7962418    
  35744000   145647.29      1841.5248     -21114292       2.2062879      431976.18     -20682316       595.2464       595.2464       595.2464       2202.3768      2797.6232      2202.3768      2797.6232      2202.3768      2797.6232      2.1090668e+08  0.5            17874500       3.6937604      5257.3679      10514.72       5.7774236    
  35744200   146902.94      1854.9969     -21117214       2.2062879      435700.32     -20681514       595.2464       595.2464       595.2464       2202.3768      2797.6232      2202.3768      2797.6232      2202.3768      2797.6232      2.1090668e+08  0.5            17874600       3.7123411      5381.9422      10763.899      5.75792      
  35744400   145350.46      1862.6516     -21100293       2.2062879      431095.81     -20669197       595.2464       595.2464       595.2464       2202.3768      2797.6232      2202.3768      2797.6232      2202.3768      2797.6232      2.1090668e+08  0.5            17874700       3.7313106      5271.6211      10543.246      5.7390239    
  35744600   145250.65      1871.3701     -21093285       2.2062879      430799.78     -20662486       595.2464       595.2464       595.2464       2202.3768      2797.6232      2202.3768      2797.6232      2202.3768      2797.6232      2.1090668e+08  0.5            17874800       3.749991       5353.1961      10706.381      5.7196863    
  35744800   146680.52      1881.1153     -21097882       2.2062879      435040.65     -20662841       595.2464       595.2464       595.2464       2202.3768      2797.6232      2202.3768      2797.6232      2202.3768      2797.6232      2.1090668e+08  0.5            17874900       3.7684584      5414.9583      10829.921      5.7000331    
  35745000   148688.82      1887.957      -21097381       2.2062879      440997.06     -20656384       595.2464       595.2464       595.2464       2202.3768      2797.6232      2202.3768      2797.6232      2202.3768      2797.6232      2.1090668e+08  0.5            17875000       3.7872922      5309.5959      10619.186      5.6809414    
  35745200   150847.26      1898.6107     -21091202       2.2062879      447398.8      -20643803       595.2464       595.2464       595.2464       2202.3768      2797.6232      2202.3768      2797.6232      2202.3768      2797.6232      2.1090668e+08  0.5            17875100       3.8058177      5397.974       10795.94       5.6613935    
  35745400   155667.28      1912.3183     -21081400       2.2062879      461694.51     -20619705       595.2464       595.2464       595.2464       2202.3768      2797.6232      2202.3768      2797.6232      2202.3768      2797.6232      2.1090668e+08  0.5            17875200       3.8246313      5315.2925      10630.583      5.6422809    
  35745600   152567.48      1915.3525     -21080612       2.2062879      452500.8      -20628111       595.2464       595.2464       595.2464       2202.3768      2797.6232      2202.3768      2797.6232      2202.3768      2797.6232      2.1090668e+08  0.5            17875300       3.8432261      5377.871       10755.744      5.622851     
  35745800   145840.98      1913.8904     -21093081       2.2062879      432550.63     -20660530       595.2464       595.2464       595.2464       2202.3768      2797.6232      2202.3768      2797.6232      2202.3768      2797.6232      2.1090668e+08  0.5            17875400       3.8620445      5313.9286      10627.885      5.6037538    
  35746000   148955.46      1928.3708     -21089220       2.2062879      441787.88     -20647432       595.2464       595.2464       595.2464       2202.3768      2797.6232      2202.3768      2797.6232      2202.3768      2797.6232      2.1090668e+08  0.5            17875500       3.8806376      5378.3558      10756.698      5.5843351    
  35746200   155795.39      1934.5299     -21095416       2.2062879      462074.5      -20633341       595.2464       595.2464       595.2464       2202.3768      2797.6232      2202.3768      2797.6232      2202.3768      2797.6232      2.1090668e+08  0.5            17875600       3.8994939      5303.262       10606.522      5.5653       
  35746400   154711.46      1938.9716     -21100780       2.2062879      458859.64     -20641921       595.2464       595.2464       595.2464       2202.3768      2797.6232      2202.3768      2797.6232      2202.3768      2797.6232      2.1090668e+08  0.5            17875700       3.9181195      5368.958       10737.909      5.5459401    
  35746600   152445.6       1941.5986     -21107770       2.2062879      452139.32     -20655630       595.2464       595.2464       595.2464       2202.3768      2797.6232      2202.3768      2797.6232      2202.3768      2797.6232      2.1090668e+08  0.5            17875800       3.9367427      5369.6447      10739.292      5.5265839    
  35746800   153379.08      1955.7729     -21106962       2.2062879      454907.95     -20652054       595.2464       595.2464       595.2464       2202.3768      2797.6232      2202.3768      2797.6232      2202.3768      2797.6232      2.1090668e+08  0.5            17875900       3.9555839      5307.5038      10615.019      5.5075383    
  35747000   162816.22      1967.4036     -21106789       2.2062879      482897.61     -20623892       595.2464       595.2464       595.2464       2202.3768      2797.6232      2202.3768      2797.6232      2202.3768      2797.6232      2.1090668e+08  0.5            17876000       3.9742644      5353.1723      10706.327      5.4882728    
  35747200   163394.42      1983.1368     -21103652       2.2062879      484612.5      -20619039       595.2464       595.2464       595.2464       2202.3768      2797.6232      2202.3768      2797.6232      2202.3768      2797.6232      2.1090668e+08  0.5            17876100       3.9932277      5273.3482      10546.688      5.4694       
  35747400   156093.29      1992.883      -21102625       2.2062879      462958.03     -20639667       595.2464       595.2464       595.2464       2202.3768      2797.6232      2202.3768      2797.6232      2202.3768      2797.6232      2.1090668e+08  0.5            17876200       4.0120033      5326.0621      10652.117      5.4502714    
  35747600   154787.01      2002.1918     -21098506       2.2062879      459083.73     -20639422       595.2464       595.2464       595.2464       2202.3768      2797.6232      2202.3768      2797.6232      2202.3768      2797.6232      2.1090668e+08  0.5            17876300       4.030648       5363.4387      10726.903      5.4309698    
  35747800   158501.29      2020.0184     -21095897       2.2062879      470099.92     -20625797       595.2464       595.2464       595.2464       2202.3768      2797.6232      2202.3768      2797.6232      2202.3768      2797.6232      2.1090668e+08  0.5            17876400       4.0496099      5273.7579      10547.509      5.4120982    
  35748000   162161.54      2034.9137     -21099469       2.2062879      480955.88     -20618513       595.2464       595.2464       595.2464       2202.3768      2797.6232      2202.3768      2797.6232      2202.3768      2797.6232      2.1090668e+08  0.5            17876500       4.0682891      5353.5354      10707.051      5.3928511    
  35748200   160580.34      2054.9896     -21093318       2.2062879      476266.18     -20617052       595.2464       595.2464       595.2464       2202.3768      2797.6232      2202.3768      2797.6232      2202.3768      2797.6232      2.1090668e+08  0.5            17876600       4.0872519      5273.4825      10546.978      5.3739821    
  35748400   152803.21      2057.6155     -21085885       2.2062879      453199.96     -20632685       595.2464       595.2464       595.2464       2202.3768      2797.6232      2202.3768      2797.6232      2202.3768      2797.6232      2.1090668e+08  0.5            17876700       4.1059487      5348.518       10697.025      5.3547653    
  35748600   154313.32      2078.4359     -21078777       2.2062879      457678.79     -20621099       595.2464       595.2464       595.2464       2202.3768      2797.6232      2202.3768      2797.6232      2202.3768      2797.6232      2.1090668e+08  0.5            17876800       4.1248818      5281.753       10563.527      5.3358589    
  35748800   162740.4       2104.0062     -21073435       2.2062879      482672.74     -20590762       595.2464       595.2464       595.2464       2202.3768      2797.6232      2202.3768      2797.6232      2202.3768      2797.6232      2.1090668e+08  0.5            17876900       4.1436304      5333.7304      10667.455      5.3167156    
  35749000   164568.77      2119.3772     -21072117       2.2062879      488095.5      -20584021       595.2464       595.2464       595.2464       2202.3768      2797.6232      2202.3768      2797.6232      2202.3768      2797.6232      2.1090668e+08  0.5            17877000       4.1627697      5224.8441      10449.669      5.2980733    
  35749200   163605.08      2133.4432     -21066642       2.2062879      485237.29     -20581405       595.2464       595.2464       595.2464       2202.3768      2797.6232      2202.3768      2797.6232      2202.3768      2797.6232      2.1090668e+08  0.5            17877100       4.1815666      5320.0516      10640.139      5.2789937    
  35749400   163580.38      2147.0047     -21071583       2.2062879      485164.02     -20586419       595.2464       595.2464       595.2464       2202.3768      2797.6232      2202.3768      2797.6232      2202.3768      2797.6232      2.1090668e+08  0.5            17877200       4.2003771      5316.1617      10632.327      5.2599342    
  35749600   168858.3       2162.665      -21086628       2.2062879      500817.84     -20585810       595.2464       595.2464       595.2464       2202.3768      2797.6232      2202.3768      2797.6232      2202.3768      2797.6232      2.1090668e+08  0.5            17877300       4.2194106      5253.8964      10507.779      5.2411538    
  35749800   170829.15      2174.481      -21076472       2.2062879      506663.2      -20569809       595.2464       595.2464       595.2464       2202.3768      2797.6232      2202.3768      2797.6232      2202.3768      2797.6232      2.1090668e+08  0.5            17877400       4.2382936      5295.7645      10591.535      5.2221858    
[...]
  36394400   296.26354      2.7054279     -21486471       2.1981137      878.6898      -21485592       595.98334      595.98334      595.98334      2202.0083      2797.9917      2202.0083      2797.9917      2202.0083      2797.9917      2.1169098e+08  0.5            18199700       30.892882      4660.6727      9321.3528      1.1315293    
  36394600   303.19289      10.261415     -21486475       2.1983028      899.2416      -21485576       595.96626      595.96626      595.96626      2202.0169      2797.9831      2202.0169      2797.9831      2202.0169      2797.9831      2.1167278e+08  0.5            18199800       30.9143        4669.03        9338.0373      1.1101821    
  36394800   282.62797      0.17737908    -21486481       2.1980629      838.24799     -21485643       595.98794      595.98794      595.98794      2202.006       2797.994       2202.006       2797.994       2202.006       2797.994       2.1169588e+08  0.5            18199900       30.935764      4658.9955      9318.0145      1.0888365    
  36395000   306.68514     -7.173188      -21486486       2.1978831      909.5993      -21485577       596.00418      596.00418      596.00418      2201.9979      2798.0021      2201.9979      2798.0021      2201.9979      2798.0021      2.1171319e+08  0.5            18200000       30.957183      4668.6614      9337.3031      1.0674892    
  36395200   293.83479      11.194431     -21486493       2.1983242      871.48637     -21485621       595.96432      595.96432      595.96432      2202.0178      2797.9822      2202.0178      2797.9822      2202.0178      2797.9822      2.1167071e+08  0.5            18200100       30.97858       4673.5884      9347.2083      1.046141     
  36395400   317.61737      5.4872086     -21486502       2.1981877      942.02325     -21485560       595.97665      595.97665      595.97665      2202.0117      2797.9883      2202.0117      2797.9883      2202.0117      2797.9883      2.1168386e+08  0.5            18200200       31.000034      4661.2054      9322.4069      1.0247946    
  36395600   296.49635     -9.8208794     -21486507       2.1978228      879.38032     -21485628       596.00964      596.00964      596.00964      2201.9952      2798.0048      2201.9952      2798.0048      2201.9952      2798.0048      2.1171901e+08  0.5            18200300       31.021434      4672.854       9345.6913      1.0034463    
  36395800   304.04391     -8.2347123     -21486514       2.1978597      901.76566     -21485613       596.0063       596.0063       596.0063       2201.9968      2798.0032      2201.9968      2798.0032      2201.9968      2798.0032      2.1171545e+08  0.5            18200400       31.042897      4659.1395      9318.2819      0.98209999   
  36396000   293.79486      1.404119      -21486524       2.1980885      871.36795     -21485652       595.98562      595.98562      595.98562      2202.0072      2797.9928      2202.0072      2797.9928      2202.0072      2797.9928      2.1169342e+08  0.5            18200500       31.064346      4662.2266      9324.4527      0.96075305   
  36396200   304.51168      0.29317989    -21486533       2.1980668      903.15302     -21485630       595.98758      595.98758      595.98758      2202.0062      2797.9938      2202.0062      2797.9938      2202.0062      2797.9938      2.1169551e+08  0.5            18200600       31.085734      4675.6469      9351.3152      0.93940411   
  36396400   302.15433     -9.5217335     -21486541       2.1978437      896.16134     -21485644       596.00775      596.00775      596.00775      2201.9961      2798.0039      2201.9961      2798.0039      2201.9961      2798.0039      2.11717e+08    0.5            18200700       31.107394      4616.6798      9233.3401      0.91806318   
  36396600   299.55785      4.57479       -21486549       2.1981796      888.46043     -21485661       595.97739      595.97739      595.97739      2202.0113      2797.9887      2202.0113      2797.9887      2202.0113      2797.9887      2.1168464e+08  0.5            18200800       31.128722      4688.8445      9377.708       0.89671221   
  36396800   298.76098      0.45350765    -21486555       2.1980882      886.097       -21485669       595.98565      595.98565      595.98565      2202.0072      2797.9928      2202.0072      2797.9928      2202.0072      2797.9928      2.1169344e+08  0.5            18200900       31.150033      4692.384       9384.7424      0.87536082   
  36397000   300.72505     -5.3264165     -21486193       2.1979535      891.92224     -21485301       595.99782      595.99782      595.99782      2202.0011      2797.9989      2202.0011      2797.9989      2202.0011      2797.9989      2.1170641e+08  0.5            18201000       31.17147       4664.7726      9329.5431      0.85401294   
  36397200   298.15869      6.8005202     -21488094       2.1982458      884.31065     -21487209       595.97141      595.97141      595.97141      2202.0143      2797.9857      2202.0143      2797.9857      2202.0143      2797.9857      2.1167827e+08  0.5            18201100       31.193008      4642.9342      9285.887       0.83266763   
  36397400   298.06678     -4.5497536     -21488099       2.1979907      884.03804     -21487215       595.99446      595.99446      595.99446      2202.0028      2797.9972      2202.0028      2797.9972      2202.0028      2797.9972      2.1170283e+08  0.5            18201200       31.214428      4668.6115      9337.2273      0.81131897   
  36397600   304.90442      5.9120043     -21487734       2.1982376      904.31784     -21486830       595.97214      595.97214      595.97214      2202.0139      2797.9861      2202.0139      2797.9861      2202.0139      2797.9861      2.1167905e+08  0.5            18201300       31.235804      4678.154       9356.2756      0.78996912   
  36397800   297.11463     -2.5090654     -21487737       2.1980464      881.21408     -21486856       595.98943      595.98943      595.98943      2202.0053      2797.9947      2202.0053      2797.9947      2202.0053      2797.9947      2.1169747e+08  0.5            18201400       31.257184      4677.1422      9354.316       0.76861934   
  36398000   303.97371     -0.40978832    -21487741       2.1980982      901.55744     -21486839       595.98474      595.98474      595.98474      2202.0076      2797.9924      2202.0076      2797.9924      2202.0076      2797.9924      2.1169248e+08  0.5            18201500       31.278613      4666.6946      9333.3745      0.74727067   
  36398200   287.32977      4.0916937     -21487743       2.1982038      852.19308     -21486891       595.9752       595.9752       595.9752       2202.0124      2797.9876      2202.0124      2797.9876      2202.0124      2797.9876      2.1168231e+08  0.5            18201600       31.300107      4652.3475      9304.7002      0.72592341   
  36398400   304.42479      4.6694212     -21487746       2.1982142      902.89531     -21486844       595.97426      595.97426      595.97426      2202.0129      2797.9871      2202.0129      2797.9871      2202.0129      2797.9871      2.1168131e+08  0.5            18201700       31.321492      4676.2943      9352.5838      0.70457348   
  36398600   293.67765      3.5588876     -21487751       2.1981884      871.0203      -21486880       595.97659      595.97659      595.97659      2202.0117      2797.9883      2202.0117      2797.9883      2202.0117      2797.9883      2.1168379e+08  0.5            18201800       31.342937      4662.992       9325.9854      0.68322484   
  36398800   315.25388     -0.073863987   -21489651       2.1981082      935.01338     -21488716       595.98384      595.98384      595.98384      2202.0081      2797.9919      2202.0081      2797.9919      2202.0081      2797.9919      2.1169151e+08  0.5            18201900       31.364347      4670.6391      9341.2835      0.66187532   
  36399000   293.61668      5.0676529     -21489656       2.1982345      870.83947     -21488785       595.97243      595.97243      595.97243      2202.0138      2797.9862      2202.0138      2797.9862      2202.0138      2797.9862      2.1167936e+08  0.5            18202000       31.385832      4654.5442      9309.0688      0.64052723   
  36399200   306.00963      3.0320328     -21489663       2.1981905      907.59578     -21488756       595.9764       595.9764       595.9764       2202.0118      2797.9882      2202.0118      2797.9882      2202.0118      2797.9882      2.1168359e+08  0.5            18202100       31.407375      4641.7491      9283.5413      0.61918012   
  36399400   285.68483     -1.6622254     -21489672       2.1980786      847.31435     -21488824       595.98652      595.98652      595.98652      2202.0067      2797.9933      2202.0067      2797.9933      2202.0067      2797.9933      2.1169437e+08  0.5            18202200       31.428759      4676.4176      9352.8195      0.59782971   
  36399600   308.29769     -3.7723339     -21489681       2.1980224      914.38197     -21488767       595.9916       595.9916       595.9916       2202.0042      2797.9958      2202.0042      2797.9958      2202.0042      2797.9958      2.1169978e+08  0.5            18202300       31.450146      4675.8458      9351.6755      0.57647929   
  36399800   297.81017     -4.4827294     -21489691       2.1979995      883.27698     -21488807       595.99366      595.99366      595.99366      2202.0032      2797.9968      2202.0032      2797.9968      2202.0032      2797.9968      2.1170198e+08  0.5            18202400       31.47172       4635.2084      9270.4426      0.55513214   
  36400000   301.04228     -5.5319166     -21489699       2.1979644      892.86311     -21488806       595.99684      595.99684      595.99684      2202.0016      2797.9984      2202.0016      2797.9984      2202.0016      2797.9984      2.1170537e+08  0.5            18202500       31.493206      4654.0955      9308.1538      0.5337832    
  36400200   296.83535     -7.2767917     -21489706       2.1979107      880.38576     -21488826       596.00169      596.00169      596.00169      2201.9992      2798.0008      2201.9992      2798.0008      2201.9992      2798.0008      2.1171054e+08  0.5            18202600       31.514645      4664.4569      9328.9173      0.51243329   
  36400400   292.71855      2.4626034     -21491610       2.1981404      868.17569     -21490742       595.98093      595.98093      595.98093      2202.0095      2797.9905      2202.0095      2797.9905      2202.0095      2797.9905      2.1168842e+08  0.5            18202700       31.536098      4661.4383      9322.8897      0.49108348   
  36400600   303.94739      14.085073     -21491616       2.1984136      901.47938     -21490714       595.95624      595.95624      595.95624      2202.0219      2797.9781      2202.0219      2797.9781      2202.0219      2797.9781      2.1166211e+08  0.5            18202800       31.557531      4665.5753      9331.1597      0.46973325   
  36400800   294.74273      12.680227     -21491625       2.1983806      874.17924     -21490750       595.95922      595.95922      595.95922      2202.0204      2797.9796      2202.0204      2797.9796      2202.0204      2797.9796      2.1166528e+08  0.5            18202900       31.578943      4670.2633      9340.5235      0.44838259   
  36401000   316.04417     -1.4623331     -21491635       2.1980474      937.35729     -21490698       595.98934      595.98934      595.98934      2202.0053      2797.9947      2202.0053      2797.9947      2202.0053      2797.9947      2.1169737e+08  0.5            18203000       31.600407      4659.0129      9318.0319      0.42703256   
  36401200   296.51287     -13.088499     -21491638       2.1977742      879.42929     -21490759       596.01403      596.01403      596.01403      2201.993       2798.007       2201.993       2798.007       2201.993       2798.007       2.1172369e+08  0.5            18203100       31.621983      4634.7551      9269.4819      0.40568381   
  36401400   307.29704     -11.173333     -21491644       2.1978237      911.41414     -21490732       596.00955      596.00955      596.00955      2201.9952      2798.0048      2201.9952      2798.0048      2201.9952      2798.0048      2.1171892e+08  0.5            18203200       31.643382      4673.1553      9346.3351      0.3843326    
  36401600   292.01241     -5.1448194     -21491649       2.1979761      866.08137     -21490783       595.99578      595.99578      595.99578      2202.0021      2797.9979      2202.0021      2797.9979      2202.0021      2797.9979      2.1170424e+08  0.5            18203300       31.664799      4669.0688      9338.1284      0.36298154   
  36401800   304.36314     -2.7917445     -21491652       2.1980416      902.71246     -21490749       595.98986      595.98986      595.98986      2202.0051      2797.9949      2202.0051      2797.9949      2202.0051      2797.9949      2.1169793e+08  0.5            18203400       31.686225      4667.3908      9334.7802      0.34163048   
  36402000   301.44314     -5.6855207     -21491652       2.1979809      894.05201     -21490758       595.99535      595.99535      595.99535      2202.0023      2797.9977      2202.0023      2797.9977      2202.0023      2797.9977      2.1170378e+08  0.5            18203500       31.707748      4646.1791      9292.3555      0.3202803    
  36402200   299.13076     -7.7064317     -21491654       2.1979418      887.19373     -21490766       595.99888      595.99888      595.99888      2202.0006      2797.9994      2202.0006      2797.9994      2202.0006      2797.9994      2.1170755e+08  0.5            18203600       31.729162      4669.691       9339.3681      0.29892887   
  36402400   307.76623     -3.7981212     -21491657       2.1980472      912.8057      -21490744       595.98935      595.98935      595.98935      2202.0053      2797.9947      2202.0053      2797.9947      2202.0053      2797.9947      2.1169739e+08  0.5            18203700       31.75049       4688.7518      9377.518       0.2775766    
  36402600   290.39411      1.3114729     -21491660       2.1981822      861.28162     -21490799       595.97715      595.97715      595.97715      2202.0114      2797.9886      2202.0114      2797.9886      2202.0114      2797.9886      2.1168439e+08  0.5            18203800       31.771911      4668.4046      9336.8254      0.25622511   
  36402800   313.18392      3.3255434     -21491664       2.1982413      928.87406     -21490735       595.97181      595.97181      595.97181      2202.0141      2797.9859      2202.0141      2797.9859      2202.0141      2797.9859      2.116787e+08   0.5            18203900       31.793344      4665.7294      9331.4527      0.23487361   
  36403000   299.97014      3.092108      -21491666       2.1982463      889.68325     -21490777       595.97136      595.97136      595.97136      2202.0143      2797.9857      2202.0143      2797.9857      2202.0143      2797.9857      2.1167822e+08  0.5            18204000       31.814769      4667.3648      9334.7279      0.21352196   
  36403200   299.89405      2.0390591     -21491668       2.1982291      889.45755     -21490779       595.97291      595.97291      595.97291      2202.0135      2797.9865      2202.0135      2797.9865      2202.0135      2797.9865      2.1167987e+08  0.5            18204100       31.836485      4604.9821      9209.971       0.19217195   
  36403400   304.1238       1.3459361     -21491669       2.1982147      902.0026      -21490767       595.97422      595.97422      595.97422      2202.0129      2797.9871      2202.0129      2797.9871      2202.0129      2797.9871      2.1168126e+08  0.5            18204200       31.857919      4665.3777      9330.747       0.17081995   
  36403600   290.493        1.9097215     -21491669       2.1982256      861.57495     -21490808       595.97323      595.97323      595.97323      2202.0134      2797.9866      2202.0134      2797.9866      2202.0134      2797.9866      2.1168021e+08  0.5            18204300       31.879455      4643.3941      9286.7812      0.14946832   
  36403800   312.10535      3.8200759     -21491669       2.198268       925.67513     -21490744       595.9694       595.9694       595.9694       2202.0153      2797.9847      2202.0153      2797.9847      2202.0153      2797.9847      2.1167613e+08  0.5            18204400       31.900956      4651.0146      9302.0599      0.1281163    
  36404000   297.11493      6.5538834     -21491669       2.1983356      881.21494     -21490788       595.96329      595.96329      595.96329      2202.0184      2797.9816      2202.0184      2797.9816      2202.0184      2797.9816      2.1166962e+08  0.5            18204500       31.922488      4644.1469      9288.2588      0.10676418   
  36404200   303.37987      5.5464585     -21491671       2.1983165      899.79618     -21490771       595.96501      595.96501      595.96501      2202.0175      2797.9825      2202.0175      2797.9825      2202.0175      2797.9825      2.1167145e+08  0.5            18204600       31.943989      4651.0851      9302.1841      0.08541174   
  36404400   291.42489      0.1282365     -21491675       2.1981862      864.33884     -21490811       595.97679      595.97679      595.97679      2202.0116      2797.9884      2202.0116      2797.9884      2202.0116      2797.9884      2.1168401e+08  0.5            18204700       31.965428      4664.3397      9328.6837      0.064058978  
  36404600   308.89334     -3.8887328     -21491680       2.1980811      916.1486      -21490764       595.98629      595.98629      595.98629      2202.0069      2797.9931      2202.0069      2797.9931      2202.0069      2797.9931      2.1169413e+08  0.5            18204800       31.986804      4678.0111      9356.0156      0.042706017  
  36404800   296.29466     -5.265723      -21491684       2.1980353      878.78211     -21490805       595.99043      595.99043      595.99043      2202.0048      2797.9952      2202.0048      2797.9952      2202.0048      2797.9952      2.1169853e+08  0.5            18204900       32.008178      4678.7406      9357.4851      0.021353022  
  36405000   301.39851     -4.8670383     -21491689       2.198035       893.91964     -21490795       595.99046      595.99046      595.99046      2202.0048      2797.9952      2202.0048      2797.9952      2202.0048      2797.9952      2.1169857e+08  0.5            18205000       32.029574      4673.7706      9347.5176      0            
Loop time of 32.0296 on 4 procs for 300000 steps with 996 atoms

Performance: 404.626 ns/day, 0.059 hours/ns, 9366.337 timesteps/s
90.9% CPU use with 4 MPI tasks x no OpenMP threads

MPI task timing breakdown:
Section |  min time  |  avg time  |  max time  |%varavg| %total
---------------------------------------------------------------
Pair    | 12.565     | 14.47      | 15.774     |  31.3 | 45.18
Neigh   | 0.011838   | 0.014339   | 0.015676   |   1.3 |  0.04
Comm    | 9.6582     | 10.898     | 12.719     |  34.5 | 34.03
Output  | 0.042046   | 0.047086   | 0.057739   |   2.9 |  0.15
Modify  | 4.9419     | 5.0986     | 5.2214     |   4.5 | 15.92
Other   |            | 1.501      |            |       |  4.69

Nlocal:            249 ave         266 max         215 min
Histogram: 1 0 0 0 0 0 1 0 0 2
Nghost:         872.75 ave         884 max         851 min
Histogram: 1 0 0 0 0 0 0 1 1 1
Neighs:        1697.25 ave        1820 max        1472 min
Histogram: 1 0 0 0 0 0 1 0 0 2

Total # of neighbors = 6789
Ave neighs/atom = 6.8162651
Neighbor list builds = 74
Dangerous builds = 0

# run_style
run_style verlet

# write restart
write_restart ${write_res}
write_restart ./pgnpmf/73/equpmf52.res
System init for write_restart ...
Generated 0 of 1 mixed pair_coeff terms from geometric mixing rule

Total wall time: 0:01:09
