LAMMPS (23 Jun 2022 - Update 1)
# Read restart
read_restart ${read_res}
read_restart ./pgnpmf/73/equpmf61.res
Reading restart file ...
  restart file = 23 Jun 2022, LAMMPS = 23 Jun 2022
  restoring atom style atomic from restart
  orthogonal box = (2202.0237 2202.0237 2202.0237) to (2797.9763 2797.9763 2797.9763)
  1 by 2 by 2 MPI processor grid
  restoring pair style table from restart
  996 atoms
  read_restart CPU = 0.004 seconds

# Settings

pair_style table spline 9941

pair_coeff 1 1 ./pgnpmf/N20.txt DE_GNP 75.6
pair_coeff 2 2 ./pgnpmf/N100.txt DE_GNP 115.92
WARNING: 3 of 9941 force values in table DE_GNP are inconsistent with -dE/dr.
WARNING:  Should only be flagged at inflection points (../pair_table.cpp:463)
pair_coeff 1 2 ./pgnpmf/mixed_potential.txt DE_GNP 95.66
WARNING: 1562 of 9941 force values in table DE_GNP are inconsistent with -dE/dr.
WARNING:  Should only be flagged at inflection points (../pair_table.cpp:463)

#Neigh_list Calc Frequency

neigh_modify delay 0 every 1 check yes

# Saving Frequency (50 frames)

variable ts_save equal ${steps_equ}
variable ts_save equal 5000

# Dump
#dump 1 all custom ${ts_save} ./pgnpmf/${folder}/equilibration/trajectory/trajectory_${usic}_${trial}.equ.custom type x y z ix iy iz
#dump_modify 1 first no sort id
#dump 2 all cfg 50000 ./equilibration/trajectory/ovito/dumpgen.tens_*.cfg mass type xs ys zs fx fy fz

# thermo_style
thermo_style custom step temp press pe density ke etotal lx ly lz xlo xhi ylo yhi zlo zhi vol dt time cpu tpcpu spcpu cpuremain

# run info
timestep ${ts}
timestep 0.5
thermo 200

# fix

fix 1 all momentum 1000 linear 1 1 1 angular
variable T equal ${temp}
variable T equal 300
fix 2 all nvt temp ${T} 370000 100.0
fix 2 all nvt temp 300 370000 100.0

run 100000
Generated 0 of 1 mixed pair_coeff terms from geometric mixing rule
Unused restart file global fix info:
  fix style: npt, fix ID: 5
Neighbor list info ...
  update every 1 steps, delay 0 steps, check yes
  max neighbors/atom: 2000, page size: 100000
  master list distance cutoff = 117.92
  ghost atom cutoff = 117.92
  binsize = 58.96, bins = 11 11 11
  1 neighbor lists, perpetual/occasional/extra = 1 0 0
  (1) pair table, perpetual
      attributes: half, newton on
      pair build: half/bin/atomonly/newton
      stencil: half/bin/3d
      bin: standard
Per MPI rank memory allocation (min/avg/max) = 3.086 | 3.088 | 3.09 Mbytes
   Step          Temp          Press          PotEng        Density         KinEng         TotEng           Lx             Ly             Lz            Xlo            Xhi            Ylo            Yhi            Zlo            Zhi           Volume           Dt            Time           CPU           T/CPU          S/CPU         CPULeft    
  42705000   305.732       -7.7259118     -21608980       2.1984545      906.77237     -21608073       595.95254      595.95254      595.95254      2202.0237      2797.9763      2202.0237      2797.9763      2202.0237      2797.9763      2.1165817e+08  0.5            21355000       0              0              0              0            
  42705200   364.36265     -7.6548481     -21608991       2.1984545      1080.6654     -21607910       595.95254      595.95254      595.95254      2202.0237      2797.9763      2202.0237      2797.9763      2202.0237      2797.9763      2.1165817e+08  0.5            21355100       0.018605933    5374.3992      10748.299      9.2856046    
  42705400   510.68511     -7.7564995     -21609000       2.1984545      1514.644      -21607486       595.95254      595.95254      595.95254      2202.0237      2797.9763      2202.0237      2797.9763      2202.0237      2797.9763      2.1165817e+08  0.5            21355200       0.037071898    5415.4234      10830.874      9.2314541    
  42705600   760.95204     -7.9001938     -21609006       2.1984545      2256.9122     -21606749       595.95254      595.95254      595.95254      2202.0237      2797.9763      2202.0237      2797.9763      2202.0237      2797.9763      2.1165817e+08  0.5            21355300       0.055566044    5407.1152      10814.222      9.2058116    
  42705800   1165.0445     -7.7803914     -21609373       2.1984545      3455.4125     -21605917       595.95254      595.95254      595.95254      2202.0237      2797.9763      2202.0237      2797.9763      2202.0237      2797.9763      2.1165817e+08  0.5            21355400       0.073999316    5424.9784      10849.975      9.1761911    
  42706000   1791.0515     -6.9718478     -21609351       2.1984545      5312.0905     -21604039       595.95254      595.95254      595.95254      2202.0237      2797.9763      2202.0237      2797.9763      2202.0237      2797.9763      2.1165817e+08  0.5            21355500       0.092527108    5397.2637      10794.5        9.1604219    
  42706200   2715.8967     -5.3733149     -21609294       2.1984545      8055.0944     -21601239       595.95254      595.95254      595.95254      2202.0237      2797.9763      2202.0237      2797.9763      2202.0237      2797.9763      2.1165817e+08  0.5            21355600       0.1112221      5349.0561      10698.143      9.1574684    
  42706400   3977.8734     -3.4829593     -21609185       2.1984545      11797.998     -21597387       595.95254      595.95254      595.95254      2202.0237      2797.9763      2202.0237      2797.9763      2202.0237      2797.9763      2.1165817e+08  0.5            21355700       0.12966611     5421.8259      10843.647      9.1323497    
  42706600   5492.0439     -0.2364877     -21608998       2.1984545      16288.886     -21592709       595.95254      595.95254      595.95254      2202.0237      2797.9763      2202.0237      2797.9763      2202.0237      2797.9763      2.1165817e+08  0.5            21355800       0.1481967      5396.5029      10793.022      9.1142223    
  42706800   6967.5876      2.4269785     -21608718       2.1984545      20665.21      -21588052       595.95254      595.95254      595.95254      2202.0237      2797.9763      2202.0237      2797.9763      2202.0237      2797.9763      2.1165817e+08  0.5            21355900       0.16670138     5404.0196      10808.068      9.0945951    
  42707000   7975.4936      3.6576362     -21608329       2.1984545      23654.564     -21584674       595.95254      595.95254      595.95254      2202.0237      2797.9763      2202.0237      2797.9763      2202.0237      2797.9763      2.1165817e+08  0.5            21356000       0.18550977     5316.7688      10633.489      9.0900864    
  42707200   8416.2747      3.9045654     -21607837       2.1984545      24961.88      -21582875       595.95254      595.95254      595.95254      2202.0237      2797.9763      2202.0237      2797.9763      2202.0237      2797.9763      2.1165817e+08  0.5            21356100       0.20407673     5385.931       10771.847      9.0722344    
  42707400   8858.9659      7.0755937     -21607252       2.1984545      26274.86      -21580978       595.95254      595.95254      595.95254      2202.0237      2797.9763      2202.0237      2797.9763      2202.0237      2797.9763      2.1165817e+08  0.5            21356200       0.22264705     5384.9351      10769.902      9.0543973    
  42707600   9760.0881      13.103586     -21597665       2.1984545      28947.504     -21568717       595.95254      595.95254      595.95254      2202.0237      2797.9763      2202.0237      2797.9763      2202.0237      2797.9763      2.1165817e+08  0.5            21356300       0.24117365     5397.6471      10795.287      9.0348129    
  42707800   10782.257      17.702802     -21596123       2.1984545      31979.161     -21564144       595.95254      595.95254      595.95254      2202.0237      2797.9763      2202.0237      2797.9763      2202.0237      2797.9763      2.1165817e+08  0.5            21356400       0.25965269     5411.5406      10823.103      9.0137271    
  42708000   11484.245      23.756155     -21595188       2.1984545      34061.191     -21561127       595.95254      595.95254      595.95254      2202.0237      2797.9763      2202.0237      2797.9763      2202.0237      2797.9763      2.1165817e+08  0.5            21356500       0.2785063      5304.0021      10608.001      9.0051044    
  42708200   11984.139      29.552557     -21596032       2.1984545      35543.829     -21560488       595.95254      595.95254      595.95254      2202.0237      2797.9763      2202.0237      2797.9763      2202.0237      2797.9763      2.1165817e+08  0.5            21356600       0.2972243      5342.468       10684.885      8.9911002    
  42708400   12686.594      35.074608     -21598674       2.1984545      37627.245     -21561046       595.95254      595.95254      595.95254      2202.0237      2797.9763      2202.0237      2797.9763      2202.0237      2797.9763      2.1165817e+08  0.5            21356700       0.31579888     5383.7012      10767.439      8.9724617    
  42708600   13615.8        41.194563     -21591730       2.1984545      40383.182     -21551347       595.95254      595.95254      595.95254      2202.0237      2797.9763      2202.0237      2797.9763      2202.0237      2797.9763      2.1165817e+08  0.5            21356800       0.33433773     5394.0851      10788.175      8.9528759    
  42708800   14447.226      46.343279     -21588845       2.1984545      42849.113     -21545996       595.95254      595.95254      595.95254      2202.0237      2797.9763      2202.0237      2797.9763      2202.0237      2797.9763      2.1165817e+08  0.5            21356900       0.35308468     5334.1768      10668.335      8.9386726    
  42709000   15056.543      53.503465     -21587025       2.1984545      44656.292     -21542369       595.95254      595.95254      595.95254      2202.0237      2797.9763      2202.0237      2797.9763      2202.0237      2797.9763      2.1165817e+08  0.5            21357000       0.3716598      5383.5566      10767.095      8.9198871    
  42709200   15683.384      60.723607     -21583604       2.1984545      46515.441     -21537089       595.95254      595.95254      595.95254      2202.0237      2797.9763      2202.0237      2797.9763      2202.0237      2797.9763      2.1165817e+08  0.5            21357100       0.39020663     5391.7529      10783.535      8.9004757    
  42709400   16500.135      66.216059     -21580468       2.1984545      48937.851     -21531530       595.95254      595.95254      595.95254      2202.0237      2797.9763      2202.0237      2797.9763      2202.0237      2797.9763      2.1165817e+08  0.5            21357200       0.40888675     5353.2872      10706.561      8.8840391    
  42709600   17362.992      75.679092     -21576518       2.1984545      51497.001     -21525021       595.95254      595.95254      595.95254      2202.0237      2797.9763      2202.0237      2797.9763      2202.0237      2797.9763      2.1165817e+08  0.5            21357300       0.42743788     5390.5244      10781.042      8.8647327    
  42709800   18083.924      81.017243     -21578950       2.1984545      53635.218     -21525315       595.95254      595.95254      595.95254      2202.0237      2797.9763      2202.0237      2797.9763      2202.0237      2797.9763      2.1165817e+08  0.5            21357400       0.44593087     5407.4439      10814.905      8.8443366    
  42710000   18711.43       87.483784     -21577183       2.1984545      55496.344     -21521687       595.95254      595.95254      595.95254      2202.0237      2797.9763      2202.0237      2797.9763      2202.0237      2797.9763      2.1165817e+08  0.5            21357500       0.46469039     5330.608       10661.188      8.8291601    
  42710200   19445.07       92.931309     -21575040       2.1984545      57672.248     -21517368       595.95254      595.95254      595.95254      2202.0237      2797.9763      2202.0237      2797.9763      2202.0237      2797.9763      2.1165817e+08  0.5            21357600       0.48340367     5343.824       10687.687      8.8128584    
  42710400   20284.223      103.44885     -21572510       2.1984545      60161.099     -21512349       595.95254      595.95254      595.95254      2202.0237      2797.9763      2202.0237      2797.9763      2202.0237      2797.9763      2.1165817e+08  0.5            21357700       0.50191145     5403.1466      10806.267      8.7927802    
  42710600   21070.634      110.67768     -21566206       2.1984545      62493.519     -21503713       595.95254      595.95254      595.95254      2202.0237      2797.9763      2202.0237      2797.9763      2202.0237      2797.9763      2.1165817e+08  0.5            21357800       0.52041072     5405.6032      10811.239      8.7726717    
  42710800   21734.829      117.73814     -21564803       2.1984545      64463.459     -21500339       595.95254      595.95254      595.95254      2202.0237      2797.9763      2202.0237      2797.9763      2202.0237      2797.9763      2.1165817e+08  0.5            21357900       0.53905852     5362.5433      10725.078      8.7550895    
  42711000   22415.245      124.91674     -21563060       2.1984545      66481.509     -21496578       595.95254      595.95254      595.95254      2202.0237      2797.9763      2202.0237      2797.9763      2202.0237      2797.9763      2.1165817e+08  0.5            21358000       0.55759529     5394.6971      10789.374      8.7356931    
  42711200   23212.143      131.88151     -21568719       2.1984545      68845.033     -21499874       595.95254      595.95254      595.95254      2202.0237      2797.9763      2202.0237      2797.9763      2202.0237      2797.9763      2.1165817e+08  0.5            21358100       0.5761054      5402.4589      10804.944      8.7159477    
  42711400   24032.778      138.36386     -21567051       2.1984545      71278.959     -21495772       595.95254      595.95254      595.95254      2202.0237      2797.9763      2202.0237      2797.9763      2202.0237      2797.9763      2.1165817e+08  0.5            21358200       0.59492829     5312.6675      10625.346      8.7008566    
  42711600   24741.625      150.59915     -21557661       2.1984545      73381.334     -21484280       595.95254      595.95254      595.95254      2202.0237      2797.9763      2202.0237      2797.9763      2202.0237      2797.9763      2.1165817e+08  0.5            21358300       0.61340917     5411.0171      10822.031      8.6806975    
  42711800   25407.486      159.31998     -21556452       2.1984545      75356.215     -21481096       595.95254      595.95254      595.95254      2202.0237      2797.9763      2202.0237      2797.9763      2202.0237      2797.9763      2.1165817e+08  0.5            21358400       0.63215433     5334.6936      10669.388      8.6642613    
  42712000   26145.383      166.2333      -21550157       2.1984545      77544.748     -21472612       595.95254      595.95254      595.95254      2202.0237      2797.9763      2202.0237      2797.9763      2202.0237      2797.9763      2.1165817e+08  0.5            21358500       0.65065413     5405.4714      10810.908      8.6444323    
  42712200   26963.879      173.20681     -21541278       2.1984545      79972.332     -21461306       595.95254      595.95254      595.95254      2202.0237      2797.9763      2202.0237      2797.9763      2202.0237      2797.9763      2.1165817e+08  0.5            21358600       0.66917327     5399.8304      10799.666      8.6249262    
  42712400   27722.781      174.36962     -21543954       2.1984545      82223.161     -21461731       595.95254      595.95254      595.95254      2202.0237      2797.9763      2202.0237      2797.9763      2202.0237      2797.9763      2.1165817e+08  0.5            21358700       0.68797785     5317.8376      10635.673      8.6090466    
  42712600   28394.812      180.33261     -21542862       2.1984545      84216.343     -21458646       595.95254      595.95254      595.95254      2202.0237      2797.9763      2202.0237      2797.9763      2202.0237      2797.9763      2.1165817e+08  0.5            21358800       0.70646403     5409.4464      10818.904      8.5891409    
  42712800   29093.79       186.65501     -21544840       2.1984545      86289.446     -21458550       595.95254      595.95254      595.95254      2202.0237      2797.9763      2202.0237      2797.9763      2202.0237      2797.9763      2.1165817e+08  0.5            21358900       0.72486078     5435.7356      10871.474      8.5682506    
  42713000   29877.486      191.9744      -21543749       2.1984545      88613.814     -21455136       595.95254      595.95254      595.95254      2202.0237      2797.9763      2202.0237      2797.9763      2202.0237      2797.9763      2.1165817e+08  0.5            21359000       0.74355008     5350.6506      10701.282      8.5508509    
  42713200   30667.766      198.92532     -21540363       2.1984545      90957.71      -21449405       595.95254      595.95254      595.95254      2202.0237      2797.9763      2202.0237      2797.9763      2202.0237      2797.9763      2.1165817e+08  0.5            21359100       0.76208483     5395.2914      10790.608      8.5316554    
  42713400   31374.654      204.82441     -21539555       2.1984545      93054.275     -21446500       595.95254      595.95254      595.95254      2202.0237      2797.9763      2202.0237      2797.9763      2202.0237      2797.9763      2.1165817e+08  0.5            21359200       0.78077624     5350.0434      10700.075      8.5142011    
  42713600   32057.995      209.86556     -21537601       2.1984545      95080.999     -21442520       595.95254      595.95254      595.95254      2202.0237      2797.9763      2202.0237      2797.9763      2202.0237      2797.9763      2.1165817e+08  0.5            21359300       0.79920534     5426.2101      10852.441      8.4939017    
  42713800   32804.152      217.97706     -21535581       2.1984545      97294.03      -21438287       595.95254      595.95254      595.95254      2202.0237      2797.9763      2202.0237      2797.9763      2202.0237      2797.9763      2.1165817e+08  0.5            21359400       0.81790184     5348.5798      10697.137      8.4764596    
  42714000   33596.655      224.86904     -21531594       2.1984545      99644.521     -21431950       595.95254      595.95254      595.95254      2202.0237      2797.9763      2202.0237      2797.9763      2202.0237      2797.9763      2.1165817e+08  0.5            21359500       0.83675761     5303.4125      10606.782      8.4605716    
  42714200   34350.211      231.67315     -21521692       2.1984545      101879.5      -21419813       595.95254      595.95254      595.95254      2202.0237      2797.9763      2202.0237      2797.9763      2202.0237      2797.9763      2.1165817e+08  0.5            21359600       0.8560066      5195.0896      10390.217      8.4484337    
  42714400   35041.084      238.81508     -21522097       2.1984545      103928.56     -21418169       595.95254      595.95254      595.95254      2202.0237      2797.9763      2202.0237      2797.9763      2202.0237      2797.9763      2.1165817e+08  0.5            21359700       0.87483737     5310.4528      10620.93       8.4319634    
  42714600   35753.444      244.70527     -21522068       2.1984545      106041.35     -21416027       595.95254      595.95254      595.95254      2202.0237      2797.9763      2202.0237      2797.9763      2202.0237      2797.9763      2.1165817e+08  0.5            21359800       0.89346022     5369.7324      10739.454      8.4134372    
  42714800   36534.805      253.94042     -21518932       2.1984545      108358.8      -21410573       595.95254      595.95254      595.95254      2202.0237      2797.9763      2202.0237      2797.9763      2202.0237      2797.9763      2.1165817e+08  0.5            21359900       0.91190258     5422.3169      10844.639      8.3932449    
  42715000   37319.149      262.02908     -21520725       2.1984545      110685.09     -21410040       595.95254      595.95254      595.95254      2202.0237      2797.9763      2202.0237      2797.9763      2202.0237      2797.9763      2.1165817e+08  0.5            21360000       0.93064417     5335.7152      10671.409      8.3758171    
  42715200   38024.748      266.64799     -21511289       2.1984545      112777.83     -21398511       595.95254      595.95254      595.95254      2202.0237      2797.9763      2202.0237      2797.9763      2202.0237      2797.9763      2.1165817e+08  0.5            21360100       0.94922515     5381.8724      10763.757      8.3569221    
  42715400   38722.553      273.14758     -21510739       2.1984545      114847.45     -21395892       595.95254      595.95254      595.95254      2202.0237      2797.9763      2202.0237      2797.9763      2202.0237      2797.9763      2.1165817e+08  0.5            21360200       0.96798654     5330.0764      10660.181      8.3395938    
  42715600   39485.801      280.86772     -21510921       2.1984545      117111.17     -21393809       595.95254      595.95254      595.95254      2202.0237      2797.9763      2202.0237      2797.9763      2202.0237      2797.9763      2.1165817e+08  0.5            21360300       0.98639373     5432.668       10865.281      8.3192259    
  42715800   40268.244      294.96847     -21492527       2.1984545      119431.83     -21373095       595.95254      595.95254      595.95254      2202.0237      2797.9763      2202.0237      2797.9763      2202.0237      2797.9763      2.1165817e+08  0.5            21360400       1.0051016      5345.3645      10690.758      8.3014112    
  42716000   41002.932      300.65718     -21494197       2.1984545      121610.84     -21372586       595.95254      595.95254      595.95254      2202.0237      2797.9763      2202.0237      2797.9763      2202.0237      2797.9763      2.1165817e+08  0.5            21360500       1.0238752      5326.6212      10653.238      8.2840985    
  42716200   41696.153      308.49667     -21492408       2.1984545      123666.87     -21368741       595.95254      595.95254      595.95254      2202.0237      2797.9763      2202.0237      2797.9763      2202.0237      2797.9763      2.1165817e+08  0.5            21360600       1.0424606      5380.5756      10761.139      8.2652396    
  42716400   42435.274      315.68869     -21492868       2.1984545      125859.03     -21367009       595.95254      595.95254      595.95254      2202.0237      2797.9763      2202.0237      2797.9763      2202.0237      2797.9763      2.1165817e+08  0.5            21360700       1.0611458      5351.8247      10703.677      8.2471663    
  42716600   43223.187      320.66884     -21491067       2.1984545      128195.91     -21362871       595.95254      595.95254      595.95254      2202.0237      2797.9763      2202.0237      2797.9763      2202.0237      2797.9763      2.1165817e+08  0.5            21360800       1.0796996      5389.7446      10779.467      8.228071     
  42716800   43965.325      330.24631     -21487314       2.1984545      130397.02     -21356917       595.95254      595.95254      595.95254      2202.0237      2797.9763      2202.0237      2797.9763      2202.0237      2797.9763      2.1165817e+08  0.5            21360900       1.0985565      5303.0899      10606.216      8.2112589    
  42717000   44671.824      333.55115     -21479955       2.1984545      132492.43     -21347462       595.95254      595.95254      595.95254      2202.0237      2797.9763      2202.0237      2797.9763      2202.0237      2797.9763      2.1165817e+08  0.5            21361000       1.117149       5378.4958      10756.944      8.1924416    
  42717200   45401.925      341.40139     -21483957       2.1984545      134657.84     -21349300       595.95254      595.95254      595.95254      2202.0237      2797.9763      2202.0237      2797.9763      2202.0237      2797.9763      2.1165817e+08  0.5            21361100       1.1359875      5308.3056      10616.617      8.1753998    
  42717400   46174.518      347.60193     -21487528       2.1984545      136949.28     -21350579       595.95254      595.95254      595.95254      2202.0237      2797.9763      2202.0237      2797.9763      2202.0237      2797.9763      2.1165817e+08  0.5            21361200       1.1545334      5392.0401      10784.088      8.1562334    
  42717600   46930.103      359.83848     -21483311       2.1984545      139190.27     -21344121       595.95254      595.95254      595.95254      2202.0237      2797.9763      2202.0237      2797.9763      2202.0237      2797.9763      2.1165817e+08  0.5            21361300       1.1734948      5273.8561      10547.689      8.1399703    
  42717800   47660.261      368.48272     -21470980       2.1984545      141355.85     -21329624       595.95254      595.95254      595.95254      2202.0237      2797.9763      2202.0237      2797.9763      2202.0237      2797.9763      2.1165817e+08  0.5            21361400       1.1921748      5353.3268      10706.685      8.1217041    
  42718000   48385.015      375.58961     -21488139       2.1984545      143505.4      -21344634       595.95254      595.95254      595.95254      2202.0237      2797.9763      2202.0237      2797.9763      2202.0237      2797.9763      2.1165817e+08  0.5            21361500       1.2109843      5316.4381      10632.853      8.1042936    
  42718200   49143.105      386.16624     -21477312       2.1984545      145753.83     -21331558       595.95254      595.95254      595.95254      2202.0237      2797.9763      2202.0237      2797.9763      2202.0237      2797.9763      2.1165817e+08  0.5            21361600       1.2295343      5390.8559      10781.725      8.0851327    
  42718400   49918.137      396.8213      -21479678       2.1984545      148052.5      -21331625       595.95254      595.95254      595.95254      2202.0237      2797.9763      2202.0237      2797.9763      2202.0237      2797.9763      2.1165817e+08  0.5            21361700       1.2482836      5333.5216      10667.05       8.0672789    
  42718600   50663.152      401.9517      -21484715       2.1984545      150262.15     -21334453       595.95254      595.95254      595.95254      2202.0237      2797.9763      2202.0237      2797.9763      2202.0237      2797.9763      2.1165817e+08  0.5            21361800       1.2667335      5420.0903      10840.206      8.0474956    
  42718800   51409.363      412.61418     -21475749       2.1984545      152475.34     -21323273       595.95254      595.95254      595.95254      2202.0237      2797.9763      2202.0237      2797.9763      2202.0237      2797.9763      2.1165817e+08  0.5            21361900       1.2855305      5319.9911      10639.962      8.0299207    
  42719000   52188.773      419.91109     -21476629       2.1984545      154786.99     -21321842       595.95254      595.95254      595.95254      2202.0237      2797.9763      2202.0237      2797.9763      2202.0237      2797.9763      2.1165817e+08  0.5            21362000       1.3040588      5397.1419      10794.27       8.0106602    
  42719200   53020.909      428.77193     -21473911       2.1984545      157255.03     -21316656       595.95254      595.95254      595.95254      2202.0237      2797.9763      2202.0237      2797.9763      2202.0237      2797.9763      2.1165817e+08  0.5            21362100       1.3229219      5301.3648      10602.725      7.9934418    
  42719400   53936.041      443.59906     -21471525       2.1984545      159969.23     -21311555       595.95254      595.95254      595.95254      2202.0237      2797.9763      2202.0237      2797.9763      2202.0237      2797.9763      2.1165817e+08  0.5            21362200       1.3415202      5376.852       10753.697      7.974604     
  42719600   55210.147      453.32933     -21473081       2.1984545      163748.11     -21309333       595.95254      595.95254      595.95254      2202.0237      2797.9763      2202.0237      2797.9763      2202.0237      2797.9763      2.1165817e+08  0.5            21362300       1.3602377      5342.5707      10685.161      7.9564707    
  42719800   57075.294      465.96304     -21470625       2.1984545      169279.96     -21301345       595.95254      595.95254      595.95254      2202.0237      2797.9763      2202.0237      2797.9763      2202.0237      2797.9763      2.1165817e+08  0.5            21362400       1.378828       5379.1375      10758.278      7.9375894    
  42720000   57490.706      474.87932     -21465830       2.1984545      170512.03     -21295318       595.95254      595.95254      595.95254      2202.0237      2797.9763      2202.0237      2797.9763      2202.0237      2797.9763      2.1165817e+08  0.5            21362500       1.3973326      5404.0783      10808.189      7.9182293    
  42720200   54450.804      480.7511      -21461030       2.1984545      161495.97     -21299534       595.95254      595.95254      595.95254      2202.0237      2797.9763      2202.0237      2797.9763      2202.0237      2797.9763      2.1165817e+08  0.5            21362600       1.4161802      5305.7094      10611.395      7.9008059    
  42720400   53848.122      492.52324     -21436781       2.1984545      159708.47     -21277072       595.95254      595.95254      595.95254      2202.0237      2797.9763      2202.0237      2797.9763      2202.0237      2797.9763      2.1165817e+08  0.5            21362700       1.4347801      5376.3874      10752.752      7.881985     
  42720600   56941.173      502.44809     -21436910       2.1984545      168882.17     -21268028       595.95254      595.95254      595.95254      2202.0237      2797.9763      2202.0237      2797.9763      2202.0237      2797.9763      2.1165817e+08  0.5            21362800       1.4535153      5337.5476      10675.101      7.8639013    
  42720800   58295.299      510.93583     -21431727       2.1984545      172898.38     -21258829       595.95254      595.95254      595.95254      2202.0237      2797.9763      2202.0237      2797.9763      2202.0237      2797.9763      2.1165817e+08  0.5            21362900       1.472023       5403.1399      10806.289      7.8445892    
  42721000   59675.447      524.84063     -21428420       2.1984545      176991.77     -21251428       595.95254      595.95254      595.95254      2202.0237      2797.9763      2202.0237      2797.9763      2202.0237      2797.9763      2.1165817e+08  0.5            21363000       1.4905598      5394.6662      10789.313      7.8254503    
  42721200   60508.626      530.9247      -21450224       2.1984545      179462.9      -21270762       595.95254      595.95254      595.95254      2202.0237      2797.9763      2202.0237      2797.9763      2202.0237      2797.9763      2.1165817e+08  0.5            21363100       1.5093992      5308.0512      10616.136      7.8078896    
  42721400   61277.693      538.43818     -21450256       2.1984545      181743.88     -21268512       595.95254      595.95254      595.95254      2202.0237      2797.9763      2202.0237      2797.9763      2202.0237      2797.9763      2.1165817e+08  0.5            21363200       1.5280252      5368.8228      10737.613      7.7892122    
  42721600   63839.474      548.74605     -21461996       2.1984545      189341.88     -21272654       595.95254      595.95254      595.95254      2202.0237      2797.9763      2202.0237      2797.9763      2202.0237      2797.9763      2.1165817e+08  0.5            21363300       1.5468479      5312.7361      10625.496      7.771523     
  42721800   64441.955      560.08792     -21457784       2.1984545      191128.78     -21266656       595.95254      595.95254      595.95254      2202.0237      2797.9763      2202.0237      2797.9763      2202.0237      2797.9763      2.1165817e+08  0.5            21363400       1.5653318      5410.1289      10820.251      7.7521291    
  42722000   60028.172      565.84268     -21456682       2.1984545      178037.91     -21278644       595.95254      595.95254      595.95254      2202.0237      2797.9763      2202.0237      2797.9763      2202.0237      2797.9763      2.1165817e+08  0.5            21363500       1.5838298      5405.9834      10811.967      7.7328259    
  42722200   59068.758      573.6106      -21458050       2.1984545      175192.38     -21282857       595.95254      595.95254      595.95254      2202.0237      2797.9763      2202.0237      2797.9763      2202.0237      2797.9763      2.1165817e+08  0.5            21363600       1.6026704      5307.6717      10615.317      7.7151908    
  42722400   62118.384      582.03353     -21457527       2.1984545      184237.29     -21273290       595.95254      595.95254      595.95254      2202.0237      2797.9763      2202.0237      2797.9763      2202.0237      2797.9763      2.1165817e+08  0.5            21363700       1.6213501      5353.4188      10706.864      7.6967632    
  42722600   64790.313      595.55409     -21465943       2.1984545      192161.98     -21273781       595.95254      595.95254      595.95254      2202.0237      2797.9763      2202.0237      2797.9763      2202.0237      2797.9763      2.1165817e+08  0.5            21363800       1.6398597      5402.6042      10805.208      7.677534     
  42722800   66932.348      605.63001     -21462456       2.1984545      198515.05     -21263941       595.95254      595.95254      595.95254      2202.0237      2797.9763      2202.0237      2797.9763      2202.0237      2797.9763      2.1165817e+08  0.5            21363900       1.6587719      5287.5854      10575.176      7.6601806    
  42723000   67294.395      612.05555     -21465939       2.1984545      199588.85     -21266350       595.95254      595.95254      595.95254      2202.0237      2797.9763      2202.0237      2797.9763      2202.0237      2797.9763      2.1165817e+08  0.5            21364000       1.6774647      5349.6562      10699.286      7.641793     
  42723200   67140.899      625.66133     -21462850       2.1984545      199133.59     -21263717       595.95254      595.95254      595.95254      2202.0237      2797.9763      2202.0237      2797.9763      2202.0237      2797.9763      2.1165817e+08  0.5            21364100       1.6960561      5378.8181      10757.637      7.6229428    
  42723400   68868.828      632.01591     -21461345       2.1984545      204258.47     -21257086       595.95254      595.95254      595.95254      2202.0237      2797.9763      2202.0237      2797.9763      2202.0237      2797.9763      2.1165817e+08  0.5            21364200       1.7149216      5300.6834      10601.389      7.6053134    
  42723600   71004.811      637.64085     -21457928       2.1984545      210593.59     -21247334       595.95254      595.95254      595.95254      2202.0237      2797.9763      2202.0237      2797.9763      2202.0237      2797.9763      2.1165817e+08  0.5            21364300       1.7338298      5288.7267      10577.452      7.5878447    
  42723800   69762.333      645.04673     -21456462       2.1984545      206908.52     -21249553       595.95254      595.95254      595.95254      2202.0237      2797.9763      2202.0237      2797.9763      2202.0237      2797.9763      2.1165817e+08  0.5            21364400       1.7524096      5382.189       10764.345      7.568927     
  42724000   65816.736      652.9236      -21456253       2.1984545      195206.25     -21261046       595.95254      595.95254      595.95254      2202.0237      2797.9763      2202.0237      2797.9763      2202.0237      2797.9763      2.1165817e+08  0.5            21364500       1.7714453      5253.271       10506.549      7.5519598    
  42724200   67903.048      663.29802     -21452395       2.1984545      201394.06     -21251001       595.95254      595.95254      595.95254      2202.0237      2797.9763      2202.0237      2797.9763      2202.0237      2797.9763      2.1165817e+08  0.5            21364600       1.7901463      5347.3168      10694.637      7.5335411    
  42724400   71436.435      672.21603     -21442721       2.1984545      211873.75     -21230848       595.95254      595.95254      595.95254      2202.0237      2797.9763      2202.0237      2797.9763      2202.0237      2797.9763      2.1165817e+08  0.5            21364700       1.8088029      5360.0326      10720.105      7.5149313    
  42724600   73238.749      681.25306     -21448577       2.1984545      217219.24     -21231358       595.95254      595.95254      595.95254      2202.0237      2797.9763      2202.0237      2797.9763      2202.0237      2797.9763      2.1165817e+08  0.5            21364800       1.8276259      5312.6387      10625.273      7.4970044    
  42724800   74212.992      688.30043     -21454467       2.1984545      220108.76     -21234358       595.95254      595.95254      595.95254      2202.0237      2797.9763      2202.0237      2797.9763      2202.0237      2797.9763      2.1165817e+08  0.5            21364900       1.8462581      5367.0723      10734.131      7.4782857    
  42725000   74375.888      696.50832     -21452995       2.1984545      220591.89     -21232403       595.95254      595.95254      595.95254      2202.0237      2797.9763      2202.0237      2797.9763      2202.0237      2797.9763      2.1165817e+08  0.5            21365000       1.8649731      5343.3064      10686.59       7.4599007    
  42725200   75228.778      699.19513     -21458189       2.1984545      223121.48     -21235067       595.95254      595.95254      595.95254      2202.0237      2797.9763      2202.0237      2797.9763      2202.0237      2797.9763      2.1165817e+08  0.5            21365100       1.8840106      5252.7861      10505.594      7.4427825    
  42725400   77635.916      709.17668     -21445971       2.1984545      230260.83     -21215711       595.95254      595.95254      595.95254      2202.0237      2797.9763      2202.0237      2797.9763      2202.0237      2797.9763      2.1165817e+08  0.5            21365200       1.902678       5356.9212      10713.837      7.424183     
  42725600   77834.596      717.36847     -21445247       2.1984545      230850.09     -21214397       595.95254      595.95254      595.95254      2202.0237      2797.9763      2202.0237      2797.9763      2202.0237      2797.9763      2.1165817e+08  0.5            21365300       1.9213475      5356.3433      10712.687      7.4055898    
  42725800   74468.192      725.28104     -21441467       2.1984545      220865.66     -21220602       595.95254      595.95254      595.95254      2202.0237      2797.9763      2202.0237      2797.9763      2202.0237      2797.9763      2.1165817e+08  0.5            21365400       1.9402846      5280.646       10561.285      7.3880143    
  42726000   73761.481      734.15457     -21434460       2.1984545      218769.62     -21215690       595.95254      595.95254      595.95254      2202.0237      2797.9763      2202.0237      2797.9763      2202.0237      2797.9763      2.1165817e+08  0.5            21365500       1.9591503      5300.6176      10601.263      7.3701442    
  42726200   78742.402      744.63693     -21432918       2.1984545      233542.56     -21199375       595.95254      595.95254      595.95254      2202.0237      2797.9763      2202.0237      2797.9763      2202.0237      2797.9763      2.1165817e+08  0.5            21365600       1.9779521      5318.6431      10637.271      7.3520179    
  42726400   79642.762      750.21654     -21425614       2.1984545      236212.94     -21189401       595.95254      595.95254      595.95254      2202.0237      2797.9763      2202.0237      2797.9763      2202.0237      2797.9763      2.1165817e+08  0.5            21365700       1.9968914      5280.0164      10560.048      7.334384     
  42726600   80016.17       760.56958     -21407320       2.1984545      237320.44     -21170000       595.95254      595.95254      595.95254      2202.0237      2797.9763      2202.0237      2797.9763      2202.0237      2797.9763      2.1165817e+08  0.5            21365800       2.0155204      5367.983       10735.934      7.3156       
  42726800   81528.329      768.75506     -21402924       2.1984545      241805.36     -21161119       595.95254      595.95254      595.95254      2202.0237      2797.9763      2202.0237      2797.9763      2202.0237      2797.9763      2.1165817e+08  0.5            21365900       2.0341526      5367.0501      10734.122      7.2968299    
  42727000   84002.121      786.47189     -21401830       2.1984545      249142.39     -21152688       595.95254      595.95254      595.95254      2202.0237      2797.9763      2202.0237      2797.9763      2202.0237      2797.9763      2.1165817e+08  0.5            21366000       2.0530838      5282.2611      10564.493      7.279123     
  42727200   83908.729      792.36147     -21403269       2.1984545      248865.4      -21154403       595.95254      595.95254      595.95254      2202.0237      2797.9763      2202.0237      2797.9763      2202.0237      2797.9763      2.1165817e+08  0.5            21366100       2.0716625      5382.5288      10765.099      7.2601576    
  42727400   79483.608      796.67812     -21407888       2.1984545      235740.91     -21172147       595.95254      595.95254      595.95254      2202.0237      2797.9763      2202.0237      2797.9763      2202.0237      2797.9763      2.1165817e+08  0.5            21366200       2.0902592      5377.3155      10754.629      7.2412619    
  42727600   79810.744      803.73187     -21401741       2.1984545      236711.16     -21165030       595.95254      595.95254      595.95254      2202.0237      2797.9763      2202.0237      2797.9763      2202.0237      2797.9763      2.1165817e+08  0.5            21366300       2.1090627      5318.1212      10636.237      7.2230803    
  42727800   84288.191      816.69499     -21398193       2.1984545      249990.85     -21148203       595.95254      595.95254      595.95254      2202.0237      2797.9763      2202.0237      2797.9763      2202.0237      2797.9763      2.1165817e+08  0.5            21366400       2.1277772      5343.4734      10686.949      7.2045859    
  42728000   85350.694      825.63466     -21394521       2.1984545      253142.14     -21141379       595.95254      595.95254      595.95254      2202.0237      2797.9763      2202.0237      2797.9763      2202.0237      2797.9763      2.1165817e+08  0.5            21366500       2.1464209      5363.7312      10727.446      7.1858509    
  42728200   86303.738      834.7521      -21393504       2.1984545      255968.77     -21137536       595.95254      595.95254      595.95254      2202.0237      2797.9763      2202.0237      2797.9763      2202.0237      2797.9763      2.1165817e+08  0.5            21366600       2.1652703      5305.2191      10610.454      7.1677978    
  42728400   87904.895      846.97969     -21394840       2.1984545      260717.66     -21134122       595.95254      595.95254      595.95254      2202.0237      2797.9763      2202.0237      2797.9763      2202.0237      2797.9763      2.1165817e+08  0.5            21366700       2.1837955      5398.0603      10796.089      7.1486704    
  42728600   90037.197      860.48971     -21387965       2.1984545      267041.86     -21120923       595.95254      595.95254      595.95254      2202.0237      2797.9763      2202.0237      2797.9763      2202.0237      2797.9763      2.1165817e+08  0.5            21366800       2.2023112      5400.824       10801.667      7.1295223    
  42728800   90337.301      869.23157     -21384384       2.1984545      267931.94     -21116452       595.95254      595.95254      595.95254      2202.0237      2797.9763      2202.0237      2797.9763      2202.0237      2797.9763      2.1165817e+08  0.5            21366900       2.221055       5335.0827      10670.164      7.1111153    
  42729000   86402.784      877.94334     -21394757       2.1984545      256262.54     -21138495       595.95254      595.95254      595.95254      2202.0237      2797.9763      2202.0237      2797.9763      2202.0237      2797.9763      2.1165817e+08  0.5            21367000       2.239552       5406.2865      10812.559      7.0919212    
  42729200   85556.006      889.26072     -21387741       2.1984545      253751.07     -21133990       595.95254      595.95254      595.95254      2202.0237      2797.9763      2202.0237      2797.9763      2202.0237      2797.9763      2.1165817e+08  0.5            21367100       2.2581122      5387.8759      10775.767      7.0729362    
  42729400   90606.644      904.44288     -21386706       2.1984545      268730.79     -21117975       595.95254      595.95254      595.95254      2202.0237      2797.9763      2202.0237      2797.9763      2202.0237      2797.9763      2.1165817e+08  0.5            21367200       2.2769439      5310.1911      10620.387      7.0547996    
  42729600   91344.078      915.09903     -21382114       2.1984545      270917.95     -21111196       595.95254      595.95254      595.95254      2202.0237      2797.9763      2202.0237      2797.9763      2202.0237      2797.9763      2.1165817e+08  0.5            21367300       2.2954157      5413.6693      10827.321      7.0355486    
  42729800   91589.76       930.91032     -21381227       2.1984545      271646.62     -21109581       595.95254      595.95254      595.95254      2202.0237      2797.9763      2202.0237      2797.9763      2202.0237      2797.9763      2.1165817e+08  0.5            21367400       2.3140466      5367.4318      10734.871      7.0167924    
  42730000   93795.865      947.27835     -21380248       2.1984545      278189.72     -21102058       595.95254      595.95254      595.95254      2202.0237      2797.9763      2202.0237      2797.9763      2202.0237      2797.9763      2.1165817e+08  0.5            21367500       2.3328795      5309.837       10619.621      6.9986449    
  42730200   96668.461      958.76959     -21384150       2.1984545      286709.57     -21097440       595.95254      595.95254      595.95254      2202.0237      2797.9763      2202.0237      2797.9763      2202.0237      2797.9763      2.1165817e+08  0.5            21367600       2.3513793      5405.4776      10811.033      6.9794966    
  42730400   94740.043      967.16811     -21381365       2.1984545      280990.06     -21100375       595.95254      595.95254      595.95254      2202.0237      2797.9763      2202.0237      2797.9763      2202.0237      2797.9763      2.1165817e+08  0.5            21367700       2.3699489      5385.15        10770.23       6.9605646    
  42730600   88532.036      978.17078     -21372586       2.1984545      262577.7      -21110008       595.95254      595.95254      595.95254      2202.0237      2797.9763      2202.0237      2797.9763      2202.0237      2797.9763      2.1165817e+08  0.5            21367800       2.3887145      5328.8835      10657.823      6.9422074    
  42730800   91973.762      993.92721     -21381810       2.1984545      272785.53     -21109025       595.95254      595.95254      595.95254      2202.0237      2797.9763      2202.0237      2797.9763      2202.0237      2797.9763      2.1165817e+08  0.5            21367900       2.4071754      5416.876       10833.729      6.9229674    
  42731000   95362.047      1004.5814     -21373190       2.1984545      282834.87     -21090355       595.95254      595.95254      595.95254      2202.0237      2797.9763      2202.0237      2797.9763      2202.0237      2797.9763      2.1165817e+08  0.5            21368000       2.426016       5307.6618      10615.32       6.9048207    
  42731200   97524.245      1024.7503     -21368542       2.1984545      289247.74     -21079294       595.95254      595.95254      595.95254      2202.0237      2797.9763      2202.0237      2797.9763      2202.0237      2797.9763      2.1165817e+08  0.5            21368100       2.4446083      5378.5782      10757.179      6.8859634    
  42731400   98854.564      1040.6651     -21361502       2.1984545      293193.34     -21068309       595.95254      595.95254      595.95254      2202.0237      2797.9763      2202.0237      2797.9763      2202.0237      2797.9763      2.1165817e+08  0.5            21368200       2.4631608      5390.117       10780.185      6.8669995    
  42731600   99173.748      1055.001      -21357130       2.1984545      294140.01     -21062990       595.95254      595.95254      595.95254      2202.0237      2797.9763      2202.0237      2797.9763      2202.0237      2797.9763      2.1165817e+08  0.5            21368300       2.4819833      5312.799       10625.622      6.8487865    
  42731800   100560.51      1070.6774     -21346135       2.1984545      298253.03     -21047882       595.95254      595.95254      595.95254      2202.0237      2797.9763      2202.0237      2797.9763      2202.0237      2797.9763      2.1165817e+08  0.5            21368400       2.5004808      5406.1263      10812.264      6.8296768    
  42732000   103040.83      1079.6236     -21359146       2.1984545      305609.42     -21053536       595.95254      595.95254      595.95254      2202.0237      2797.9763      2202.0237      2797.9763      2202.0237      2797.9763      2.1165817e+08  0.5            21368500       2.5191145      5366.6253      10733.229      6.8109448    
  42732200   101459.17      1091.5982     -21346599       2.1984545      300918.36     -21045680       595.95254      595.95254      595.95254      2202.0237      2797.9763      2202.0237      2797.9763      2202.0237      2797.9763      2.1165817e+08  0.5            21368600       2.5378999      5323.2799      10646.59       6.79262      
  42732400   96806.724      1104.483      -21345775       2.1984545      287119.64     -21058655       595.95254      595.95254      595.95254      2202.0237      2797.9763      2202.0237      2797.9763      2202.0237      2797.9763      2.1165817e+08  0.5            21368700       2.5563269      5426.8102      10853.617      6.7733387    
  42732600   99395.698      1113.1641     -21343659       2.1984545      294798.3      -21048861       595.95254      595.95254      595.95254      2202.0237      2797.9763      2202.0237      2797.9763      2202.0237      2797.9763      2.1165817e+08  0.5            21368800       2.5750099      5352.462       10704.895      6.7547415    
  42732800   103906.53      1127.2902     -21337782       2.1984545      308176.99     -21029606       595.95254      595.95254      595.95254      2202.0237      2797.9763      2202.0237      2797.9763      2202.0237      2797.9763      2.1165817e+08  0.5            21368900       2.5937216      5344.2473      10688.529      6.7362175    
  42733000   103884.57      1142.014      -21326744       2.1984545      308111.86     -21018633       595.95254      595.95254      595.95254      2202.0237      2797.9763      2202.0237      2797.9763      2202.0237      2797.9763      2.1165817e+08  0.5            21369000       2.6124498      5339.5363      10679.044      6.7177335    
  42733200   103982.75      1151.6115     -21321912       2.1984545      308403.06     -21013509       595.95254      595.95254      595.95254      2202.0237      2797.9763      2202.0237      2797.9763      2202.0237      2797.9763      2.1165817e+08  0.5            21369100       2.6313373      5294.5117      10589.057      6.6996513    
  42733400   107016.27      1161.2416     -21334985       2.1984545      317400.19     -21017585       595.95254      595.95254      595.95254      2202.0237      2797.9763      2202.0237      2797.9763      2202.0237      2797.9763      2.1165817e+08  0.5            21369200       2.6499046      5385.8246      10771.639      6.6807505    
  42733600   109714.33      1175.1593     -21336386       2.1984545      325402.38     -21010984       595.95254      595.95254      595.95254      2202.0237      2797.9763      2202.0237      2797.9763      2202.0237      2797.9763      2.1165817e+08  0.5            21369300       2.6683138      5432.0636      10864.124      6.6614598    
  42733800   105364.94      1178.3753     -21333367       2.1984545      312502.51     -21020865       595.95254      595.95254      595.95254      2202.0237      2797.9763      2202.0237      2797.9763      2202.0237      2797.9763      2.1165817e+08  0.5            21369400       2.6872148      5290.715       10581.423      6.6433972    
  42734000   100264.06      1186.8204     -21313139       2.1984545      297373.79     -21015765       595.95254      595.95254      595.95254      2202.0237      2797.9763      2202.0237      2797.9763      2202.0237      2797.9763      2.1165817e+08  0.5            21369500       2.7057194      5404.0658      10808.147      6.6243525    
  42734200   105562.51      1196.7877     -21311136       2.1984545      313088.48     -20998048       595.95254      595.95254      595.95254      2202.0237      2797.9763      2202.0237      2797.9763      2202.0237      2797.9763      2.1165817e+08  0.5            21369600       2.7243186      5376.5959      10753.185      6.6055444    
  42734400   108322.95      1210.1046     -21313212       2.1984545      321275.69     -20991936       595.95254      595.95254      595.95254      2202.0237      2797.9763      2202.0237      2797.9763      2202.0237      2797.9763      2.1165817e+08  0.5            21369700       2.7430374      5342.1974      10684.421      6.5870266    
  42734600   110614.12      1217.7983     -21309150       2.1984545      328071.1      -20981079       595.95254      595.95254      595.95254      2202.0237      2797.9763      2202.0237      2797.9763      2202.0237      2797.9763      2.1165817e+08  0.5            21369800       2.7616202      5381.3328      10762.629      6.5681826    
  42734800   111786.71      1228.8982     -21297570       2.1984545      331548.86     -20966021       595.95254      595.95254      595.95254      2202.0237      2797.9763      2202.0237      2797.9763      2202.0237      2797.9763      2.1165817e+08  0.5            21369900       2.7801997      5382.2811      10764.58       6.5493343    
  42735000   111134.95      1240.2949     -21277511       2.1984545      329615.82     -20947895       595.95254      595.95254      595.95254      2202.0237      2797.9763      2202.0237      2797.9763      2202.0237      2797.9763      2.1165817e+08  0.5            21370000       2.7990611      5301.8098      10603.615      6.5311474    
  42735200   110029.82      1246.1845     -21268056       2.1984545      326338.1      -20941718       595.95254      595.95254      595.95254      2202.0237      2797.9763      2202.0237      2797.9763      2202.0237      2797.9763      2.1165817e+08  0.5            21370100       2.8176725      5373.0838      10746.172      6.5123735    
  42735400   112874.27      1257.253      -21282131       2.1984545      334774.47     -20947357       595.95254      595.95254      595.95254      2202.0237      2797.9763      2202.0237      2797.9763      2202.0237      2797.9763      2.1165817e+08  0.5            21370200       2.8365105      5308.3814      10616.763      6.4941209    
  42735600   116543.01      1271.769      -21276252       2.1984545      345655.6      -20930596       595.95254      595.95254      595.95254      2202.0237      2797.9763      2202.0237      2797.9763      2202.0237      2797.9763      2.1165817e+08  0.5            21370300       2.8553389      5311.1503      10622.305      6.4758385    
  42735800   114565.02      1275.8242     -21275379       2.1984545      339789.07     -20935590       595.95254      595.95254      595.95254      2202.0237      2797.9763      2202.0237      2797.9763      2202.0237      2797.9763      2.1165817e+08  0.5            21370400       2.8744382      5235.7803      10471.563      6.4581579    
  42736000   108578.72      1280.7105     -21288063       2.1984545      322034.29     -20966029       595.95254      595.95254      595.95254      2202.0237      2797.9763      2202.0237      2797.9763      2202.0237      2797.9763      2.1165817e+08  0.5            21370500       2.8930109      5384.2485      10768.467      6.439287     
  42736200   111338.06      1291.6447     -21287921       2.1984545      330218.22     -20957702       595.95254      595.95254      595.95254      2202.0237      2797.9763      2202.0237      2797.9763      2202.0237      2797.9763      2.1165817e+08  0.5            21370600       2.911786       5326.203       10652.409      6.420866     
  42736400   117572.63      1304.1485     -21285389       2.1984545      348709.36     -20936680       595.95254      595.95254      595.95254      2202.0237      2797.9763      2202.0237      2797.9763      2202.0237      2797.9763      2.1165817e+08  0.5            21370700       2.930747       5273.9695      10547.947      6.4028469    
  42736600   117601.66      1313.6542     -21292962       2.1984545      348795.45     -20944166       595.95254      595.95254      595.95254      2202.0237      2797.9763      2202.0237      2797.9763      2202.0237      2797.9763      2.1165817e+08  0.5            21370800       2.9492734      5397.729       10795.422      6.3838748    
  42736800   116729.78      1320.0812     -21291720       2.1984545      346209.55     -20945511       595.95254      595.95254      595.95254      2202.0237      2797.9763      2202.0237      2797.9763      2202.0237      2797.9763      2.1165817e+08  0.5            21370900       2.9679785      5346.143       10692.312      6.3652915    
  42737000   118542.85      1333.5828     -21275812       2.1984545      351586.95     -20924225       595.95254      595.95254      595.95254      2202.0237      2797.9763      2202.0237      2797.9763      2202.0237      2797.9763      2.1165817e+08  0.5            21371000       2.9870141      5253.2757      10506.539      6.3474097    
  42737200   122965         1345.6788     -21279276       2.1984545      364702.63     -20914573       595.95254      595.95254      595.95254      2202.0237      2797.9763      2202.0237      2797.9763      2202.0237      2797.9763      2.1165817e+08  0.5            21371100       3.0056603      5363.0512      10726.135      6.3286927    
  42737400   121863.24      1357.3215     -21275043       2.1984545      361434.92     -20913608       595.95254      595.95254      595.95254      2202.0237      2797.9763      2202.0237      2797.9763      2202.0237      2797.9763      2.1165817e+08  0.5            21371200       3.0242446      5379.604       10759.183      6.3098572    
  42737600   113903.05      1360.5222     -21281153       2.1984545      337825.75     -20943327       595.95254      595.95254      595.95254      2202.0237      2797.9763      2202.0237      2797.9763      2202.0237      2797.9763      2.1165817e+08  0.5            21371300       3.0430001      5333.025       10666.062      6.2913603    
  42737800   115742.93      1371.0533     -21268515       2.1984545      343282.64     -20925232       595.95254      595.95254      595.95254      2202.0237      2797.9763      2202.0237      2797.9763      2202.0237      2797.9763      2.1165817e+08  0.5            21371400       3.0614235      5427.8789      10855.78       6.2721889    
  42738000   121093.17      1382.4367     -21261953       2.1984545      359150.97     -20902802       595.95254      595.95254      595.95254      2202.0237      2797.9763      2202.0237      2797.9763      2202.0237      2797.9763      2.1165817e+08  0.5            21371500       3.0799769      5389.8448      10779.679      6.2532906    
  42738200   123256.04      1393.4854     -21258204       2.1984545      365565.83     -20892638       595.95254      595.95254      595.95254      2202.0237      2797.9763      2202.0237      2797.9763      2202.0237      2797.9763      2.1165817e+08  0.5            21371600       3.0985267      5390.9094      10781.83       6.2343891    
  42738400   125159.75      1409.3848     -21241651       2.1984545      371212.07     -20870439       595.95254      595.95254      595.95254      2202.0237      2797.9763      2202.0237      2797.9763      2202.0237      2797.9763      2.1165817e+08  0.5            21371700       3.1173504      5312.4465      10624.896      6.216038     
  42738600   125447.54      1412.2422     -21238644       2.1984545      372065.61     -20866579       595.95254      595.95254      595.95254      2202.0237      2797.9763      2202.0237      2797.9763      2202.0237      2797.9763      2.1165817e+08  0.5            21371800       3.1359528      5375.649       10751.275      6.1972442    
  42738800   124383.91      1418.7867     -21239137       2.1984545      368910.99     -20870226       595.95254      595.95254      595.95254      2202.0237      2797.9763      2202.0237      2797.9763      2202.0237      2797.9763      2.1165817e+08  0.5            21371900       3.1545046      5390.3047      10780.643      6.1783531    
  42739000   125010.14      1429.3643     -21244846       2.1984545      370768.32     -20874078       595.95254      595.95254      595.95254      2202.0237      2797.9763      2202.0237      2797.9763      2202.0237      2797.9763      2.1165817e+08  0.5            21372000       3.1734569      5276.4042      10552.774      6.160244     
  42739200   129307.54      1441.8716     -21242483       2.1984545      383514.02     -20858969       595.95254      595.95254      595.95254      2202.0237      2797.9763      2202.0237      2797.9763      2202.0237      2797.9763      2.1165817e+08  0.5            21372100       3.1920284      5384.5877      10769.182      6.141392     
  42739400   130286.32      1451.8551     -21232019       2.1984545      386416.98     -20845602       595.95254      595.95254      595.95254      2202.0237      2797.9763      2202.0237      2797.9763      2202.0237      2797.9763      2.1165817e+08  0.5            21372200       3.2105323      5404.2696      10808.543      6.1224144    
  42739600   124602.9       1454.1088     -21239038       2.1984545      369560.48     -20869478       595.95254      595.95254      595.95254      2202.0237      2797.9763      2202.0237      2797.9763      2202.0237      2797.9763      2.1165817e+08  0.5            21372300       3.229227       5349.1111      10698.224      6.103803     
  42739800   121257.54      1460.1635     -21239257       2.1984545      359638.45     -20879619       595.95254      595.95254      595.95254      2202.0237      2797.9763      2202.0237      2797.9763      2202.0237      2797.9763      2.1165817e+08  0.5            21372400       3.2476941      5415.053       10830.075      6.084764     
  42740000   130245.04      1475.9007     -21220671       2.1984545      386294.55     -20834376       595.95254      595.95254      595.95254      2202.0237      2797.9763      2202.0237      2797.9763      2202.0237      2797.9763      2.1165817e+08  0.5            21372500       3.2661573      5416.1713      10832.364      6.0657245    
  42740200   131566.02      1479.1761     -21246023       2.1984545      390212.44     -20855811       595.95254      595.95254      595.95254      2202.0237      2797.9763      2202.0237      2797.9763      2202.0237      2797.9763      2.1165817e+08  0.5            21372600       3.2853214      5218.0917      10436.204      6.0479818    
  42740400   130347.66      1484.3118     -21253084       2.1984545      386598.91     -20866486       595.95254      595.95254      595.95254      2202.0237      2797.9763      2202.0237      2797.9763      2202.0237      2797.9763      2.1165817e+08  0.5            21372700       3.3040286      5345.52        10690.989      6.0293894    
  42740600   130522.95      1497.468      -21251280       2.1984545      387118.81     -20864161       595.95254      595.95254      595.95254      2202.0237      2797.9763      2202.0237      2797.9763      2202.0237      2797.9763      2.1165817e+08  0.5            21372800       3.3224984      5414.2769      10828.592      6.0103659    
  42740800   135554         1504.257      -21245083       2.1984545      402040.43     -20843043       595.95254      595.95254      595.95254      2202.0237      2797.9763      2202.0237      2797.9763      2202.0237      2797.9763      2.1165817e+08  0.5            21372900       3.34096        5416.6178      10833.236      5.9913342    
  42741000   137784.52      1513.3624     -21227739       2.1984545      408655.95     -20819083       595.95254      595.95254      595.95254      2202.0237      2797.9763      2202.0237      2797.9763      2202.0237      2797.9763      2.1165817e+08  0.5            21373000       3.3596378      5353.9548      10707.902      5.972693     
  42741200   130179.13      1518.0456     -21216515       2.1984545      386099.06     -20830416       595.95254      595.95254      595.95254      2202.0237      2797.9763      2202.0237      2797.9763      2202.0237      2797.9763      2.1165817e+08  0.5            21373100       3.3781493      5402.0494      10804.134      5.9537583    
  42741400   127260.05      1522.1031     -21216511       2.1984545      377441.33     -20839070       595.95254      595.95254      595.95254      2202.0237      2797.9763      2202.0237      2797.9763      2202.0237      2797.9763      2.1165817e+08  0.5            21373200       3.3965693      5428.8881      10857.757      5.9346686    
  42741600   132903.86      1531.7386     -21221138       2.1984545      394180.37     -20826958       595.95254      595.95254      595.95254      2202.0237      2797.9763      2202.0237      2797.9763      2202.0237      2797.9763      2.1165817e+08  0.5            21373300       3.415257       5351.0933      10702.187      5.9160499    
  42741800   135908.67      1541.6151     -21214747       2.1984545      403092.34     -20811655       595.95254      595.95254      595.95254      2202.0237      2797.9763      2202.0237      2797.9763      2202.0237      2797.9763      2.1165817e+08  0.5            21373400       3.4337933      5394.8359      10789.679      5.8971703    
  42742000   138608.97      1548.1839     -21217108       2.1984545      411101.18     -20806006       595.95254      595.95254      595.95254      2202.0237      2797.9763      2202.0237      2797.9763      2202.0237      2797.9763      2.1165817e+08  0.5            21373500       3.4523069      5401.4428      10802.856      5.8782557    
  42742200   139242.09      1556.3755     -21220632       2.1984545      412978.94     -20807653       595.95254      595.95254      595.95254      2202.0237      2797.9763      2202.0237      2797.9763      2202.0237      2797.9763      2.1165817e+08  0.5            21373600       3.471077       5327.6085      10655.219      5.8597786    
  42742400   137094.98      1562.1053     -21219536       2.1984545      406610.81     -20812926       595.95254      595.95254      595.95254      2202.0237      2797.9763      2202.0237      2797.9763      2202.0237      2797.9763      2.1165817e+08  0.5            21373700       3.4895843      5403.2856      10806.591      5.8408584    
  42742600   135515.69      1568.6763     -21216827       2.1984545      401926.79     -20814900       595.95254      595.95254      595.95254      2202.0237      2797.9763      2202.0237      2797.9763      2202.0237      2797.9763      2.1165817e+08  0.5            21373800       3.5080887      5404.1087      10808.231      5.8219378    
  42742800   141374         1585.7978     -21215148       2.1984545      419302        -20795846       595.95254      595.95254      595.95254      2202.0237      2797.9763      2202.0237      2797.9763      2202.0237      2797.9763      2.1165817e+08  0.5            21373900       3.5266233      5395.3447      10790.672      5.8030712    
  42743000   144347.92      1592.209      -21215165       2.1984545      428122.37     -20787042       595.95254      595.95254      595.95254      2202.0237      2797.9763      2202.0237      2797.9763      2202.0237      2797.9763      2.1165817e+08  0.5            21374000       3.5453028      5353.4346      10706.855      5.7844448    
  42743200   140282.26      1596.0106     -21216478       2.1984545      416063.99     -20800414       595.95254      595.95254      595.95254      2202.0237      2797.9763      2202.0237      2797.9763      2202.0237      2797.9763      2.1165817e+08  0.5            21374100       3.5637548      5419.4852      10838.992      5.7654494    
  42743400   135019.89      1599.3531     -21215469       2.1984545      400456.3      -20815013       595.95254      595.95254      595.95254      2202.0237      2797.9763      2202.0237      2797.9763      2202.0237      2797.9763      2.1165817e+08  0.5            21374200       3.5823363      5381.7         10763.366      5.7466677    
  42743600   140678.9       1611.9492     -21210694       2.1984545      417240.41     -20793454       595.95254      595.95254      595.95254      2202.0237      2797.9763      2202.0237      2797.9763      2202.0237      2797.9763      2.1165817e+08  0.5            21374300       3.6007034      5444.5052      10889.037      5.7275469    
  42743800   146772.91      1623.9324     -21211812       2.1984545      435314.66     -20776498       595.95254      595.95254      595.95254      2202.0237      2797.9763      2202.0237      2797.9763      2202.0237      2797.9763      2.1165817e+08  0.5            21374400       3.619516       5315.5604      10631.115      5.7091367    
  42744000   144979.48      1626.4119     -21206527       2.1984545      429995.52     -20776532       595.95254      595.95254      595.95254      2202.0237      2797.9763      2202.0237      2797.9763      2202.0237      2797.9763      2.1165817e+08  0.5            21374500       3.6379861      5414.1726      10828.318      5.6901868    
  42744200   141446.9       1640.7103     -21185439       2.1984545      419518.2      -20765921       595.95254      595.95254      595.95254      2202.0237      2797.9763      2202.0237      2797.9763      2202.0237      2797.9763      2.1165817e+08  0.5            21374600       3.656526       5393.7854      10787.609      5.6713495    
  42744400   144939.44      1646.0218     -21175165       2.1984545      429876.74     -20745289       595.95254      595.95254      595.95254      2202.0237      2797.9763      2202.0237      2797.9763      2202.0237      2797.9763      2.1165817e+08  0.5            21374700       3.6752911      5329.0312      10658.047      5.6528621    
  42744600   151247.88      1665.6623     -21179135       2.1984545      448586.98     -20730548       595.95254      595.95254      595.95254      2202.0237      2797.9763      2202.0237      2797.9763      2202.0237      2797.9763      2.1165817e+08  0.5            21374800       3.6937719      5411.0355      10822.088      5.6339379    
  42744800   148044.13      1665.6202     -21170839       2.1984545      439084.98     -20731754       595.95254      595.95254      595.95254      2202.0237      2797.9763      2202.0237      2797.9763      2202.0237      2797.9763      2.1165817e+08  0.5            21374900       3.7121936      5428.3597      10856.705      5.6149291    
  42745000   144368.06      1677.6497     -21160117       2.1984545      428182.11     -20731935       595.95254      595.95254      595.95254      2202.0237      2797.9763      2202.0237      2797.9763      2202.0237      2797.9763      2.1165817e+08  0.5            21375000       3.7307267      5395.7735      10791.539      5.5960931    
  42745200   150625.96      1687.6129     -21156671       2.1984545      446742.44     -20709928       595.95254      595.95254      595.95254      2202.0237      2797.9763      2202.0237      2797.9763      2202.0237      2797.9763      2.1165817e+08  0.5            21375100       3.7495754      5305.4051      10610.818      5.5777295    
  42745400   156197.8       1700.4535     -21155438       2.1984545      463268        -20692170       595.95254      595.95254      595.95254      2202.0237      2797.9763      2202.0237      2797.9763      2202.0237      2797.9763      2.1165817e+08  0.5            21375200       3.7682151      5364.8895      10729.759      5.5590531    
  42745600   149363.83      1708.165      -21155661       2.1984545      442999.08     -20712662       595.95254      595.95254      595.95254      2202.0237      2797.9763      2202.0237      2797.9763      2202.0237      2797.9763      2.1165817e+08  0.5            21375300       3.7868008      5380.4651      10760.968      5.5402977    
  42745800   146281.26      1711.3913     -21151683       2.1984545      433856.47     -20717826       595.95254      595.95254      595.95254      2202.0237      2797.9763      2202.0237      2797.9763      2202.0237      2797.9763      2.1165817e+08  0.5            21375400       3.8058316      5254.641       10509.253      5.52219      
  42746000   152359.72      1718.7691     -21170392       2.1984545      451884.6      -20718508       595.95254      595.95254      595.95254      2202.0237      2797.9763      2202.0237      2797.9763      2202.0237      2797.9763      2.1165817e+08  0.5            21375500       3.8244846      5361.0918      10722.164      5.5035296    
  42746200   155596.49      1733.0328     -21168230       2.1984545      461484.57     -20706746       595.95254      595.95254      595.95254      2202.0237      2797.9763      2202.0237      2797.9763      2202.0237      2797.9763      2.1165817e+08  0.5            21375600       3.8430612      5383.1106      10766.258      5.4847601    
  42746400   153072.63      1744.6285     -21170912       2.1984545      453999.02     -20716913       595.95254      595.95254      595.95254      2202.0237      2797.9763      2202.0237      2797.9763      2202.0237      2797.9763      2.1165817e+08  0.5            21375700       3.8618214      5330.4256      10660.867      5.4662524    
  42746600   151922.35      1751.3559     -21159767       2.1984545      450587.41     -20709180       595.95254      595.95254      595.95254      2202.0237      2797.9763      2202.0237      2797.9763      2202.0237      2797.9763      2.1165817e+08  0.5            21375800       3.8804064      5380.686       10761.323      5.4474965    
  42746800   156346.32      1760.385      -21164629       2.1984545      463708.48     -20700920       595.95254      595.95254      595.95254      2202.0237      2797.9763      2202.0237      2797.9763      2202.0237      2797.9763      2.1165817e+08  0.5            21375900       3.8987726      5444.7862      10889.605      5.4284373    
  42747000   163885.92      1781.57       -21160943       2.1984545      486070.23     -20674873       595.95254      595.95254      595.95254      2202.0237      2797.9763      2202.0237      2797.9763      2202.0237      2797.9763      2.1165817e+08  0.5            21376000       3.9176002      5311.3359      10622.664      5.4100223    
  42747200   156811.71      1787.4384     -21152167       2.1984545      465088.79     -20687078       595.95254      595.95254      595.95254      2202.0237      2797.9763      2202.0237      2797.9763      2202.0237      2797.9763      2.1165817e+08  0.5            21376100       3.9364045      5317.9518      10635.911      5.3915709    
  42747400   150980.35      1791.2271     -21144758       2.1984545      447793.53     -20696965       595.95254      595.95254      595.95254      2202.0237      2797.9763      2202.0237      2797.9763      2202.0237      2797.9763      2.1165817e+08  0.5            21376200       3.9550312      5368.6441      10737.282      5.3728752    
  42747600   154976.54      1808.0904     -21136445       2.1984545      459645.84     -20676799       595.95254      595.95254      595.95254      2202.0237      2797.9763      2202.0237      2797.9763      2202.0237      2797.9763      2.1165817e+08  0.5            21376300       3.9740358      5261.8607      10523.739      5.3546895    
  42747800   160615.43      1816.4578     -21131216       2.1984545      476370.27     -20654845       595.95254      595.95254      595.95254      2202.0237      2797.9763      2202.0237      2797.9763      2202.0237      2797.9763      2.1165817e+08  0.5            21376400       3.9926984      5358.3263      10716.659      5.3360388    
  42748000   161419.81      1831.098      -21121218       2.1984545      478755.99     -20642462       595.95254      595.95254      595.95254      2202.0237      2797.9763      2202.0237      2797.9763      2202.0237      2797.9763      2.1165817e+08  0.5            21376500       4.0114576      5330.7044      10661.4        5.3175164    
  42748200   157250.81      1835.6283     -21128885       2.1984545      466391.11     -20662494       595.95254      595.95254      595.95254      2202.0237      2797.9763      2202.0237      2797.9763      2202.0237      2797.9763      2.1165817e+08  0.5            21376600       4.0304843      5255.771       10511.536      5.2993431    
  42748400   152668.47      1845.3376     -21133809       2.1984545      452800.34     -20681009       595.95254      595.95254      595.95254      2202.0237      2797.9763      2202.0237      2797.9763      2202.0237      2797.9763      2.1165817e+08  0.5            21376700       4.0492521      5328.2804      10656.563      5.2808245    
  42748600   161154.36      1856.8405     -21125472       2.1984545      477968.67     -20647503       595.95254      595.95254      595.95254      2202.0237      2797.9763      2202.0237      2797.9763      2202.0237      2797.9763      2.1165817e+08  0.5            21376800       4.0680215      5327.8302      10655.672      5.2623056    
  42748800   165345.89      1873.9381     -21118587       2.1984545      490400.37     -20628187       595.95254      595.95254      595.95254      2202.0237      2797.9763      2202.0237      2797.9763      2202.0237      2797.9763      2.1165817e+08  0.5            21376900       4.0870251      5262.1476      10524.295      5.2440851    
  42749000   162408.95      1888.0193     -21121929       2.1984545      481689.69     -20640239       595.95254      595.95254      595.95254      2202.0237      2797.9763      2202.0237      2797.9763      2202.0237      2797.9763      2.1165817e+08  0.5            21377000       4.1057379      5343.9446      10687.857      5.2254872    
  42749200   159183.49      1892.5863     -21127427       2.1984545      472123.26     -20655304       595.95254      595.95254      595.95254      2202.0237      2797.9763      2202.0237      2797.9763      2202.0237      2797.9763      2.1165817e+08  0.5            21377100       4.1247539      5258.7367      10517.501      5.207271     
  42749400   165749.73      1911.2944     -21119822       2.1984545      491598.13     -20628224       595.95254      595.95254      595.95254      2202.0237      2797.9763      2202.0237      2797.9763      2202.0237      2797.9763      2.1165817e+08  0.5            21377200       4.1434141      5358.9942      10717.967      5.1886022    
  42749600   170598.63      1925.3659     -21123568       2.1984545      505979.49     -20617589       595.95254      595.95254      595.95254      2202.0237      2797.9763      2202.0237      2797.9763      2202.0237      2797.9763      2.1165817e+08  0.5            21377300       4.1621465      5338.35        10676.666      5.1700231    
  42749800   164965.18      1930.557      -21124752       2.1984545      489271.23     -20635481       595.95254      595.95254      595.95254      2202.0237      2797.9763      2202.0237      2797.9763      2202.0237      2797.9763      2.1165817e+08  0.5            21377400       4.1811688      5256.9754      10514.006      5.1517997    
[...]
  43394400   312.75838      5.8185987     -21639550       2.2013619      927.61194     -21638622       595.69007      595.69007      595.69007      2202.155       2797.845       2202.155       2797.845       2202.155       2797.845       2.1137863e+08  0.5            21699700       31.844337      4562.5598      9125.1146      1.1663787    
  43394600   292.66535     -3.1916276     -21639559       2.2011521      868.01792     -21638691       595.70899      595.70899      595.70899      2202.1455      2797.8545      2202.1455      2797.8545      2202.1455      2797.8545      2.1139877e+08  0.5            21699800       31.866224      4568.9431      9137.9024      1.1443672    
  43394800   305.37805      5.6742445     -21639567       2.2013512      905.7226      -21638661       595.69103      595.69103      595.69103      2202.1545      2797.8455      2202.1545      2797.8455      2202.1545      2797.8455      2.1137965e+08  0.5            21699900       31.888137      4563.4828      9126.9722      1.1223569    
  43395000   284.4075      -4.3897163     -21639576       2.2011052      843.52592     -21638732       595.71322      595.71322      595.71322      2202.1434      2797.8566      2202.1434      2797.8566      2202.1434      2797.8566      2.1140328e+08  0.5            21700000       31.910115      4550.0455      9100.0766      1.1003489    
  43395200   305.62871      5.1397381     -21639584       2.2013164      906.46602     -21638678       595.69417      595.69417      595.69417      2202.1529      2797.8471      2202.1529      2797.8471      2202.1529      2797.8471      2.11383e+08    0.5            21700100       31.932083      4552.0227      9104.0437      1.0783406    
  43395400   296.61902      1.4476896     -21639594       2.2012206      879.74412     -21638714       595.70281      595.70281      595.70281      2202.1486      2797.8514      2202.1486      2797.8514      2202.1486      2797.8514      2.113922e+08   0.5            21700200       31.953971      4568.6573      9137.3397      1.0563297    
  43395600   305.88797     -3.6998249     -21639603       2.2010914      907.23498     -21638695       595.71447      595.71447      595.71447      2202.1428      2797.8572      2202.1428      2797.8572      2202.1428      2797.8572      2.1140461e+08  0.5            21700300       31.975877      4564.9123      9129.8137      1.0343196    
  43395800   299.53659      4.6635466     -21639612       2.2012771      888.39737     -21638723       595.69772      595.69772      595.69772      2202.1511      2797.8489      2202.1511      2797.8489      2202.1511      2797.8489      2.1138677e+08  0.5            21700400       31.997758      4570.2655      9140.5201      1.0123088    
  43396000   300.19829      3.3885059     -21639621       2.2012348      890.35991     -21638731       595.70153      595.70153      595.70153      2202.1492      2797.8508      2202.1492      2797.8508      2202.1492      2797.8508      2.1139084e+08  0.5            21700500       32.019641      4569.7857      9139.5581      0.99029825   
  43396200   301.90015     -3.8535761     -21639631       2.2010563      895.40747     -21638735       595.71764      595.71764      595.71764      2202.1412      2797.8588      2202.1412      2797.8588      2202.1412      2797.8588      2.1140798e+08  0.5            21700600       32.041575      4559.1733      9118.3649      0.96828942   
  43396400   296.32085     -0.15996521    -21639641       2.2011409      878.85979     -21638762       595.71         595.71         595.71         2202.145       2797.855       2202.145       2797.855       2202.145       2797.855       2.1139985e+08  0.5            21700700       32.063543      4551.9856      9103.9513      0.94628172   
  43396600   305.59859      6.218888      -21639650       2.2012889      906.37668     -21638743       595.69665      595.69665      595.69665      2202.1517      2797.8483      2202.1517      2797.8483      2202.1517      2797.8483      2.1138564e+08  0.5            21700800       32.085452      4564.3862      9128.7923      0.92427235   
  43396800   300.16136      3.4194369     -21639660       2.2012158      890.25037     -21638770       595.70325      595.70325      595.70325      2202.1484      2797.8516      2202.1484      2797.8516      2202.1484      2797.8516      2.1139266e+08  0.5            21700900       32.107452      4545.5351      9091.0748      0.90226567   
  43397000   297.00924      5.0852389     -21637776       2.2012377      880.90149     -21636895       595.70127      595.70127      595.70127      2202.1494      2797.8506      2202.1494      2797.8506      2202.1494      2797.8506      2.1139055e+08  0.5            21701000       32.129411      4553.7755      9107.532       0.88025791   
  43397200   297.19843     -3.3410512     -21637786       2.20103        881.4626      -21636905       595.72001      595.72001      595.72001      2202.14        2797.86        2202.14        2797.86        2202.14        2797.86        2.114105e+08   0.5            21701100       32.151362      4555.6422      9111.2923      0.85824998   
  43397400   305.48394     -4.4821032     -21638165       2.2009987      906.03665     -21637258       595.72283      595.72283      595.72283      2202.1386      2797.8614      2202.1386      2797.8614      2202.1386      2797.8614      2.1141351e+08  0.5            21701200       32.173244      4569.975       9139.937       0.83624034   
  43397600   297.87481      4.6223821     -21638174       2.2012043      883.46869     -21637290       595.70429      595.70429      595.70429      2202.1479      2797.8521      2202.1479      2797.8521      2202.1479      2797.8521      2.1139377e+08  0.5            21701300       32.195314      4531.0241      9062.0227      0.81423563   
  43397800   302.67853      5.7037708     -21638183       2.2012186      897.71608     -21637285       595.703        595.703        595.703        2202.1485      2797.8515      2202.1485      2797.8515      2202.1485      2797.8515      2.1139239e+08  0.5            21701400       32.217267      4555.234       9110.507       0.79222794   
  43398000   290.78928     -5.6485352     -21638194       2.2009409      862.45368     -21637332       595.72804      595.72804      595.72804      2202.136       2797.864       2202.136       2797.864       2202.136       2797.864       2.1141906e+08  0.5            21701500       32.239229      4553.1921      9106.3904      0.77022056   
  43398200   305.33323     -1.4358531     -21638207       2.2010295      905.58967     -21637302       595.72005      595.72005      595.72005      2202.14        2797.86        2202.14        2797.86        2202.14        2797.86        2.1141055e+08  0.5            21701600       32.261166      4558.5868      9117.1607      0.74821264   
  43398400   295.85698      9.0284681     -21638220       2.201267       877.48399     -21637342       595.69863      595.69863      595.69863      2202.1507      2797.8493      2202.1507      2797.8493      2202.1507      2797.8493      2.1138774e+08  0.5            21701700       32.283066      4566.3128      9132.649       0.72620399   
  43398600   314.59272     -7.2253782     -21638234       2.2008874      933.05245     -21637301       595.73287      595.73287      595.73287      2202.1336      2797.8664      2202.1336      2797.8664      2202.1336      2797.8664      2.114242e+08   0.5            21701800       32.305214      4515.0159      9030.0054      0.7042009    
  43398800   293.87143      5.2655745     -21638246       2.20118        871.59504     -21637374       595.70647      595.70647      595.70647      2202.1468      2797.8532      2202.1468      2797.8532      2202.1468      2797.8532      2.1139609e+08  0.5            21701900       32.327123      4564.2335      9128.4878      0.68219258   
  43399000   306.89806      1.3171247     -21638257       2.2010898      910.23079     -21637347       595.71461      595.71461      595.71461      2202.1427      2797.8573      2202.1427      2797.8573      2202.1427      2797.8573      2.1140476e+08  0.5            21702000       32.349066      4557.4279      9114.8285      0.66018507   
  43399200   291.30259     -1.9857031     -21638268       2.2010124      863.97611     -21637404       595.7216       595.7216       595.7216       2202.1392      2797.8608      2202.1392      2797.8608      2202.1392      2797.8608      2.114122e+08   0.5            21702100       32.371113      4535.6114      9071.2278      0.63817972   
  43399400   306.73228      6.4936189     -21638280       2.2012107      909.73911     -21637371       595.70371      595.70371      595.70371      2202.1481      2797.8519      2202.1481      2797.8519      2202.1481      2797.8519      2.1139315e+08  0.5            21702200       32.393019      4564.9592      9129.9212      0.61617161   
  43399600   290.40032      2.0364741     -21638294       2.2011165      861.30006     -21637433       595.7122       595.7122       595.7122       2202.1439      2797.8561      2202.1439      2797.8561      2202.1439      2797.8561      2.114022e+08   0.5            21702300       32.414901      4569.9877      9139.9716      0.59416321   
  43399800   302.51931     -7.3389404     -21638305       2.2009126      897.24385     -21637408       595.7306       595.7306       595.7306       2202.1347      2797.8653      2202.1347      2797.8653      2202.1347      2797.8653      2.1142178e+08  0.5            21702400       32.436841      4558.0148      9116.0204      0.57215599   
  43400000   295.25811      7.2329193     -21640212       2.2012639      875.70779     -21639336       595.69891      595.69891      595.69891      2202.1505      2797.8495      2202.1505      2797.8495      2202.1505      2797.8495      2.1138804e+08  0.5            21702500       32.458772      4559.7094      9119.4222      0.55014872   
  43400200   301.07447      4.7244814     -21640222       2.20121        892.95857     -21639329       595.70377      595.70377      595.70377      2202.1481      2797.8519      2202.1481      2797.8519      2202.1481      2797.8519      2.1139321e+08  0.5            21702600       32.480748      4550.4694      9100.9657      0.52814228   
  43400400   302.91021      1.0603919     -21638339       2.2011239      898.40322     -21637441       595.71154      595.71154      595.71154      2202.1442      2797.8558      2202.1442      2797.8558      2202.1442      2797.8558      2.1140149e+08  0.5            21702700       32.502756      4543.7636      9087.5153      0.50613639   
  43400600   295.40673     -4.4910158     -21638351       2.201002       876.14859     -21637475       595.72253      595.72253      595.72253      2202.1387      2797.8613      2202.1387      2797.8613      2202.1387      2797.8613      2.1141319e+08  0.5            21702800       32.524669      4563.5088      9127.041       0.48412907   
  43400800   316.90945      5.0709674     -21640258       2.2012336      939.92363     -21639318       595.70164      595.70164      595.70164      2202.1492      2797.8508      2202.1492      2797.8508      2202.1492      2797.8508      2.1139095e+08  0.5            21702900       32.54656       4568.0026      9136.0002      0.46212158   
  43401000   294.68488      2.2434789     -21640270       2.2011743      874.00764     -21639396       595.70699      595.70699      595.70699      2202.1465      2797.8535      2202.1465      2797.8535      2202.1465      2797.8535      2.1139664e+08  0.5            21703000       32.568521      4553.6057      9107.211       0.44011518   
  43401200   308.17028     -1.6726728     -21640280       2.2010892      914.00409     -21639366       595.71467      595.71467      595.71467      2202.1427      2797.8573      2202.1427      2797.8573      2202.1427      2797.8573      2.1140482e+08  0.5            21703100       32.590532      4543.1472      9086.2866      0.41810949   
  43401400   287.79211     -0.95663964    -21640290       2.2011103      853.56435     -21639436       595.71276      595.71276      595.71276      2202.1436      2797.8564      2202.1436      2797.8564      2202.1436      2797.8564      2.1140279e+08  0.5            21703200       32.612468      4558.6741      9117.3523      0.39610288   
  43401600   307.36945      3.8347338     -21640300       2.201221       911.62889     -21639388       595.70278      595.70278      595.70278      2202.1486      2797.8514      2202.1486      2797.8514      2202.1486      2797.8514      2.1139216e+08  0.5            21703300       32.634419      4555.6544      9111.3081      0.37409654   
  43401800   299.55525      1.835946      -21640310       2.201171       888.45271     -21639422       595.70728      595.70728      595.70728      2202.1464      2797.8536      2202.1464      2797.8536      2202.1464      2797.8536      2.1139696e+08  0.5            21703400       32.656329      4564.1653      9128.3269      0.35208982   
  43402000   299.79877     -2.2562564     -21640321       2.2010741      889.17498     -21639431       595.71603      595.71603      595.71603      2202.142       2797.858       2202.142       2797.858       2202.142       2797.858       2.1140627e+08  0.5            21703500       32.678257      4560.368       9120.721       0.33008343   
  43402200   295.32516      1.5059909     -21640331       2.2011622      875.90666     -21639455       595.70809      595.70809      595.70809      2202.146       2797.854       2202.146       2797.854       2202.146       2797.854       2.1139781e+08  0.5            21703600       32.700062      4586.0759      9172.1417      0.30807598   
  43402400   307.56969      4.4718589     -21640342       2.2012367      912.22277     -21639430       595.70136      595.70136      595.70136      2202.1493      2797.8507      2202.1493      2797.8507      2202.1493      2797.8507      2.1139065e+08  0.5            21703700       32.721785      4603.5003      9207.0366      0.28606808   
  43402600   289.2231       1.8395806     -21640354       2.2011882      857.80851     -21639496       595.70574      595.70574      595.70574      2202.1471      2797.8529      2202.1471      2797.8529      2202.1471      2797.8529      2.1139531e+08  0.5            21703800       32.74356       4592.3386      9184.6662      0.26406099   
  43402800   310.26682     -1.5325796     -21640365       2.2011242      920.22222     -21639445       595.71151      595.71151      595.71151      2202.1442      2797.8558      2202.1442      2797.8558      2202.1442      2797.8558      2.1140145e+08  0.5            21703900       32.765272      4605.7359      9211.4756      0.24205374   
  43403000   294.04325     -3.1345638     -21640375       2.201095       872.10465     -21639503       595.71414      595.71414      595.71414      2202.1429      2797.8571      2202.1429      2797.8571      2202.1429      2797.8571      2.1140426e+08  0.5            21704000       32.787014      4599.4891      9198.9571      0.22004709   
  43403200   305.20117     -0.26662849    -21640385       2.2011565      905.19798     -21639480       595.7086       595.7086       595.7086       2202.1457      2797.8543      2202.1457      2797.8543      2202.1457      2797.8543      2.1139835e+08  0.5            21704100       32.808911      4566.8532      9133.7051      0.19804173   
  43403400   293.47145      5.6451756     -21640395       2.2012803      870.40874     -21639524       595.69743      595.69743      595.69743      2202.1513      2797.8487      2202.1513      2797.8487      2202.1513      2797.8487      2.1138647e+08  0.5            21704200       32.830598      4611.0108      9222.0334      0.17603539   
  43403600   311.50705     -4.6606516     -21640038       2.2010285      923.90063     -21639114       595.72014      595.72014      595.72014      2202.1399      2797.8601      2202.1399      2797.8601      2202.1399      2797.8601      2.1141065e+08  0.5            21704300       32.852699      4524.5306      9049.0736      0.15403142   
  43403800   297.98486     -2.9344906     -21640050       2.2010668      883.7951      -21639166       595.71669      595.71669      595.71669      2202.1417      2797.8583      2202.1417      2797.8583      2202.1417      2797.8583      2.1140697e+08  0.5            21704400       32.874485      4590.2257      9180.4392      0.13202605   
  43404000   301.60292      1.5383745     -21640060       2.2011736      894.5259      -21639166       595.70706      595.70706      595.70706      2202.1465      2797.8535      2202.1465      2797.8535      2202.1465      2797.8535      2.1139671e+08  0.5            21704500       32.896296      4584.9016      9169.8044      0.11002106   
  43404200   295.00283      7.3980764     -21640068       2.2013086      874.95066     -21639193       595.69487      595.69487      595.69487      2202.1526      2797.8474      2202.1526      2797.8474      2202.1526      2797.8474      2.1138374e+08  0.5            21704600       32.918136      4578.7734      9157.5502      0.088016412  
  43404400   303.96437      8.3990128     -21640077       2.2013246      901.52975     -21639175       595.69343      595.69343      595.69343      2202.1533      2797.8467      2202.1533      2797.8467      2202.1533      2797.8467      2.1138221e+08  0.5            21704700       32.93993       4588.3595      9176.7198      0.066011888  
  43404600   302.93936      2.1749416     -21640088       2.2011717      898.48968     -21639189       595.70723      595.70723      595.70723      2202.1464      2797.8536      2202.1464      2797.8536      2202.1464      2797.8536      2.113969e+08   0.5            21704800       32.961707      4591.8717      9183.7489      0.044007623  
  43404800   299.54063     -6.4276547     -21639728       2.2009619      888.40935     -21638839       595.72615      595.72615      595.72615      2202.1369      2797.8631      2202.1369      2797.8631      2202.1369      2797.8631      2.1141705e+08  0.5            21704900       32.983456      4598.0829      9196.1583      0.022003641  
  43405000   298.49051     -6.4066655     -21639737       2.2009586      885.29479     -21638851       595.72645      595.72645      595.72645      2202.1368      2797.8632      2202.1368      2797.8632      2202.1368      2797.8632      2.1141736e+08  0.5            21705000       33.005254      4587.5735      9175.1444      0            
Loop time of 33.0053 on 4 procs for 300000 steps with 996 atoms

Performance: 392.664 ns/day, 0.061 hours/ns, 9089.456 timesteps/s
92.2% CPU use with 4 MPI tasks x no OpenMP threads

MPI task timing breakdown:
Section |  min time  |  avg time  |  max time  |%varavg| %total
---------------------------------------------------------------
Pair    | 12.904     | 14.69      | 15.911     |  29.3 | 44.51
Neigh   | 0.010524   | 0.012212   | 0.013441   |   1.0 |  0.04
Comm    | 10.312     | 11.281     | 12.815     |  30.2 | 34.18
Output  | 0.04705    | 0.052328   | 0.067134   |   3.7 |  0.16
Modify  | 5.1887     | 5.43       | 5.731      |   8.8 | 16.45
Other   |            | 1.54       |            |       |  4.66

Nlocal:            249 ave         271 max         216 min
Histogram: 1 0 0 0 0 0 1 0 1 1
Nghost:         862.25 ave         870 max         851 min
Histogram: 1 0 0 0 0 1 0 1 0 1
Neighs:         1710.5 ave        1862 max        1465 min
Histogram: 1 0 0 0 0 0 1 0 1 1

Total # of neighbors = 6842
Ave neighs/atom = 6.8694779
Neighbor list builds = 62
Dangerous builds = 0

# run_style
run_style verlet

# write restart
write_restart ${write_res}
write_restart ./pgnpmf/73/equpmf62.res
System init for write_restart ...
Generated 0 of 1 mixed pair_coeff terms from geometric mixing rule

Total wall time: 0:01:11
