LAMMPS (23 Jun 2022 - Update 1)
# Read restart
read_restart ${read_res}
read_restart ./pgnpmf/73/equpmf38.res
Reading restart file ...
  restart file = 23 Jun 2022, LAMMPS = 23 Jun 2022
  restoring atom style atomic from restart
  orthogonal box = (2202.2533 2202.2533 2202.2533) to (2797.7467 2797.7467 2797.7467)
  1 by 2 by 2 MPI processor grid
  restoring pair style table from restart
  996 atoms
  read_restart CPU = 0.004 seconds

# Settings

pair_style table spline 9941

pair_coeff 1 1 ./pgnpmf/N20.txt DE_GNP 75.6
pair_coeff 2 2 ./pgnpmf/N100.txt DE_GNP 115.92
WARNING: 3 of 9941 force values in table DE_GNP are inconsistent with -dE/dr.
WARNING:  Should only be flagged at inflection points (../pair_table.cpp:463)
pair_coeff 1 2 ./pgnpmf/mixed_potential.txt DE_GNP 95.66
WARNING: 1562 of 9941 force values in table DE_GNP are inconsistent with -dE/dr.
WARNING:  Should only be flagged at inflection points (../pair_table.cpp:463)

#Neigh_list Calc Frequency

neigh_modify delay 0 every 1 check yes

# Saving Frequency (50 frames)

variable ts_save equal ${steps_equ}
variable ts_save equal 5000

# Dump
#dump 1 all custom ${ts_save} ./pgnpmf/${folder}/equilibration/trajectory/trajectory_${usic}_${trial}.equ.custom type x y z ix iy iz
#dump_modify 1 first no sort id
#dump 2 all cfg 50000 ./equilibration/trajectory/ovito/dumpgen.tens_*.cfg mass type xs ys zs fx fy fz

# thermo_style
thermo_style custom step temp press pe density ke etotal lx ly lz xlo xhi ylo yhi zlo zhi vol dt time cpu tpcpu spcpu cpuremain

# run info
timestep ${ts}
timestep 0.5
thermo 200

# fix

fix 1 all momentum 1000 linear 1 1 1 angular
variable T equal ${temp}
variable T equal 300
fix 2 all nvt temp ${T} 370000 100.0
fix 2 all nvt temp 300 370000 100.0

run 100000
Generated 0 of 1 mixed pair_coeff terms from geometric mixing rule
Unused restart file global fix info:
  fix style: npt, fix ID: 5
Neighbor list info ...
  update every 1 steps, delay 0 steps, check yes
  max neighbors/atom: 2000, page size: 100000
  master list distance cutoff = 117.92
  ghost atom cutoff = 117.92
  binsize = 58.96, bins = 11 11 11
  1 neighbor lists, perpetual/occasional/extra = 1 0 0
  (1) pair table, perpetual
      attributes: half, newton on
      pair build: half/bin/atomonly/newton
      stencil: half/bin/3d
      bin: standard
Per MPI rank memory allocation (min/avg/max) = 3.086 | 3.088 | 3.092 Mbytes
   Step          Temp          Press          PotEng        Density         KinEng         TotEng           Lx             Ly             Lz            Xlo            Xhi            Ylo            Yhi            Zlo            Zhi           Volume           Dt            Time           CPU           T/CPU          S/CPU         CPULeft    
  26605000   300.49367     -2.5588114     -21589084       2.2035439      891.23598     -21588193       595.49338      595.49338      595.49338      2202.2533      2797.7467      2202.2533      2797.7467      2202.2533      2797.7467      2.1116931e+08  0.5            13305000       0              0              0              0            
  26605200   358.347       -2.4297179     -21589093       2.2035439      1062.8235     -21588030       595.49338      595.49338      595.49338      2202.2533      2797.7467      2202.2533      2797.7467      2202.2533      2797.7467      2.1116931e+08  0.5            13305100       0.018479555    5411.1605      10821.826      9.2225245    
  26605400   502.91321     -2.8354837     -21589101       2.2035439      1491.5933     -21587609       595.49338      595.49338      595.49338      2202.2533      2797.7467      2202.2533      2797.7467      2202.2533      2797.7467      2.1116931e+08  0.5            13305200       0.036828001    5450.0956      10900.186      9.1707305    
  26605600   750.63851     -3.5748781     -21589105       2.2035439      2226.3233     -21586879       595.49338      595.49338      595.49338      2202.2533      2797.7467      2202.2533      2797.7467      2202.2533      2797.7467      2.1116931e+08  0.5            13305300       0.055153794    5456.7951      10913.622      9.1375045    
  26605800   1151.0697     -3.2284314     -21588734       2.2035439      3413.9644     -21585320       595.49338      595.49338      595.49338      2202.2533      2797.7467      2202.2533      2797.7467      2202.2533      2797.7467      2.1116931e+08  0.5            13305400       0.073643892    5408.3002      10816.625      9.1321111    
  26606000   1772.1224     -3.0574627     -21588709       2.2035439      5255.9484     -21583453       595.49338      595.49338      595.49338      2202.2533      2797.7467      2202.2533      2797.7467      2202.2533      2797.7467      2.1116931e+08  0.5            13305500       0.092024911    5440.3631      10880.672      9.1106959    
  26606200   2690.6993     -1.825781      -21588646       2.2035439      7980.3612     -21580666       595.49338      595.49338      595.49338      2202.2533      2797.7467      2202.2533      2797.7467      2202.2533      2797.7467      2.1116931e+08  0.5            13305600       0.11044864     5427.8064      10855.635      9.0937896    
  26606400   3946.9793     -0.091400408   -21588156       2.2035439      11706.37      -21576450       595.49338      595.49338      595.49338      2202.2533      2797.7467      2202.2533      2797.7467      2202.2533      2797.7467      2.1116931e+08  0.5            13305700       0.12891958     5413.9451      10827.904      9.0797684    
  26606600   5464.6814      1.7850845     -21587964       2.2035439      16207.731     -21571756       595.49338      595.49338      595.49338      2202.2533      2797.7467      2202.2533      2797.7467      2202.2533      2797.7467      2.1116931e+08  0.5            13305800       0.14734259     5428.0047      10856.014      9.0616922    
  26606800   6951.8968      2.9559909     -21585775       2.2035439      20618.672     -21565156       595.49338      595.49338      595.49338      2202.2533      2797.7467      2202.2533      2797.7467      2202.2533      2797.7467      2.1116931e+08  0.5            13305900       0.16570592     5445.6307      10891.222      9.0402927    
  26607000   7978.9447      4.3905124     -21583477       2.2035439      23664.8       -21559812       595.49338      595.49338      595.49338      2202.2533      2797.7467      2202.2533      2797.7467      2202.2533      2797.7467      2.1116931e+08  0.5            13306000       0.18434192     5365.9408      10731.834      9.0328664    
  26607200   8425.6373      5.8411225     -21582962       2.2035439      24989.648     -21557972       595.49338      595.49338      595.49338      2202.2533      2797.7467      2202.2533      2797.7467      2202.2533      2797.7467      2.1116931e+08  0.5            13306100       0.2027218      5440.7417      10881.563      9.0119983    
  26607400   8857.6207      8.322006      -21582723       2.2035439      26270.87      -21556452       595.49338      595.49338      595.49338      2202.2533      2797.7467      2202.2533      2797.7467      2202.2533      2797.7467      2.1116931e+08  0.5            13306200       0.22105642     5454.1615      10908.346      8.9897092    
  26607600   9747.6506      11.200707     -21581638       2.2035439      28910.615     -21552728       595.49338      595.49338      595.49338      2202.2533      2797.7467      2202.2533      2797.7467      2202.2533      2797.7467      2.1116931e+08  0.5            13306300       0.2393472      5467.253       10934.479      8.9663897    
  26607800   10775.237      13.650711     -21581167       2.2035439      31958.341     -21549208       595.49338      595.49338      595.49338      2202.2533      2797.7467      2202.2533      2797.7467      2202.2533      2797.7467      2.1116931e+08  0.5            13306400       0.25764178     5466.0855      10932.146      8.9439234    
  26608000   11484.863      17.895011     -21578650       2.2035439      34063.023     -21544587       595.49338      595.49338      595.49338      2202.2533      2797.7467      2202.2533      2797.7467      2202.2533      2797.7467      2.1116931e+08  0.5            13306500       0.27625948     5371.2192      10742.441      8.9324611    
  26608200   11988.005      22.600225     -21577914       2.2035439      35555.297     -21542359       595.49338      595.49338      595.49338      2202.2533      2797.7467      2202.2533      2797.7467      2202.2533      2797.7467      2.1116931e+08  0.5            13306600       0.2947044      5421.5567      10843.148      8.9148714    
  26608400   12689.327      27.406376     -21577095       2.2035439      37635.352     -21539459       595.49338      595.49338      595.49338      2202.2533      2797.7467      2202.2533      2797.7467      2202.2533      2797.7467      2.1116931e+08  0.5            13306700       0.3129116      5492.3445      10984.695      8.8904283    
  26608600   13615.598      31.406609     -21573546       2.2035439      40382.585     -21533163       595.49338      595.49338      595.49338      2202.2533      2797.7467      2202.2533      2797.7467      2202.2533      2797.7467      2.1116931e+08  0.5            13306800       0.33118739     5471.7101      10943.406      8.8685168    
  26608800   14447.456      38.125365     -21570645       2.2035439      42849.795     -21527795       595.49338      595.49338      595.49338      2202.2533      2797.7467      2202.2533      2797.7467      2202.2533      2797.7467      2.1116931e+08  0.5            13306900       0.34979018     5375.5129      10751.017      8.8552693    
  26609000   15062.206      47.400757     -21567302       2.2035439      44673.086     -21522629       595.49338      595.49338      595.49338      2202.2533      2797.7467      2202.2533      2797.7467      2202.2533      2797.7467      2.1116931e+08  0.5            13307000       0.36815738     5444.4981      10888.984      8.8358296    
  26609200   15690.877      55.970999     -21565797       2.2035439      46537.668     -21519260       595.49338      595.49338      595.49338      2202.2533      2797.7467      2202.2533      2797.7467      2202.2533      2797.7467      2.1116931e+08  0.5            13307100       0.38643959     5469.8228      10939.681      8.814549     
  26609400   16514.921      59.334049     -21566520       2.2035439      48981.705     -21517538       595.49338      595.49338      595.49338      2202.2533      2797.7467      2202.2533      2797.7467      2202.2533      2797.7467      2.1116931e+08  0.5            13307200       0.40494826     5402.8529      10805.697      8.7984665    
  26609600   17385.426      63.823462     -21564964       2.2035439      51563.539     -21513401       595.49338      595.49338      595.49338      2202.2533      2797.7467      2202.2533      2797.7467      2202.2533      2797.7467      2.1116931e+08  0.5            13307300       0.4234778      5396.7965      10793.599      8.7826045    
  26609800   18095.483      71.078126     -21557546       2.2035439      53669.502     -21503877       595.49338      595.49338      595.49338      2202.2533      2797.7467      2202.2533      2797.7467      2202.2533      2797.7467      2.1116931e+08  0.5            13307400       0.44176835     5467.3101      10934.614      8.7617791    
  26610000   18712.124      79.221827     -21555971       2.2035439      55498.401     -21500473       595.49338      595.49338      595.49338      2202.2533      2797.7467      2202.2533      2797.7467      2202.2533      2797.7467      2.1116931e+08  0.5            13307500       0.46035663     5379.7107      10759.391      8.7468178    
  26610200   19457.802      89.541023     -21553700       2.2035439      57710.012     -21495990       595.49338      595.49338      595.49338      2202.2533      2797.7467      2202.2533      2797.7467      2202.2533      2797.7467      2.1116931e+08  0.5            13307600       0.47899268     5365.9713      10731.956      8.732443     
  26610400   20311.789      96.844439     -21549927       2.2035439      60242.858     -21489684       595.49338      595.49338      595.49338      2202.2533      2797.7467      2202.2533      2797.7467      2202.2533      2797.7467      2.1116931e+08  0.5            13307700       0.49753662     5392.597       10785.182      8.7161409    
  26610600   21079.11       102.92223     -21541044       2.2035439      62518.658     -21478525       595.49338      595.49338      595.49338      2202.2533      2797.7467      2202.2533      2797.7467      2202.2533      2797.7467      2.1116931e+08  0.5            13307800       0.51631496     5325.2645      10650.54       8.7036318    
  26610800   21730.521      110.90903     -21539577       2.2035439      64450.681     -21475126       595.49338      595.49338      595.49338      2202.2533      2797.7467      2202.2533      2797.7467      2202.2533      2797.7467      2.1116931e+08  0.5            13307900       0.53467358     5447.0589      10894.092      8.6838702    
  26611000   22414.427      115.87994     -21536597       2.2035439      66479.082     -21470118       595.49338      595.49338      595.49338      2202.2533      2797.7467      2202.2533      2797.7467      2202.2533      2797.7467      2.1116931e+08  0.5            13308000       0.55303581     5445.948       10891.903      8.6642608    
  26611200   23224.82       124.57455     -21537064       2.2035439      68882.633     -21468181       595.49338      595.49338      595.49338      2202.2533      2797.7467      2202.2533      2797.7467      2202.2533      2797.7467      2.1116931e+08  0.5            13308100       0.5717232      5351.1969      10702.421      8.6496504    
  26611400   24039.775      130.35625     -21535652       2.2035439      71299.712     -21464352       595.49338      595.49338      595.49338      2202.2533      2797.7467      2202.2533      2797.7467      2202.2533      2797.7467      2.1116931e+08  0.5            13308200       0.59004662     5457.5048      10915.013      8.6294619    
  26611600   24733.71       132.92774     -21531984       2.2035439      73357.859     -21458626       595.49338      595.49338      595.49338      2202.2533      2797.7467      2202.2533      2797.7467      2202.2533      2797.7467      2.1116931e+08  0.5            13308300       0.60842768     5440.3895      10880.785      8.610202     
  26611800   25386.975      138.37432     -21534005       2.2035439      75295.383     -21458710       595.49338      595.49338      595.49338      2202.2533      2797.7467      2202.2533      2797.7467      2202.2533      2797.7467      2.1116931e+08  0.5            13308400       0.62712726     5347.6968      10695.36       8.5953626    
  26612000   26149.209      143.64628     -21532627       2.2035439      77556.095     -21455070       595.49338      595.49338      595.49338      2202.2533      2797.7467      2202.2533      2797.7467      2202.2533      2797.7467      2.1116931e+08  0.5            13308500       0.64548592     5447.0298      10894.054      8.5757699    
  26612200   26971.564      149.68126     -21521961       2.2035439      79995.124     -21441966       595.49338      595.49338      595.49338      2202.2533      2797.7467      2202.2533      2797.7467      2202.2533      2797.7467      2.1116931e+08  0.5            13308600       0.66410282     5371.4543      10742.942      8.5595744    
  26612400   27716.046      157.20439     -21526040       2.2035439      82203.186     -21443837       595.49338      595.49338      595.49338      2202.2533      2797.7467      2202.2533      2797.7467      2202.2533      2797.7467      2.1116931e+08  0.5            13308700       0.68249422     5437.3355      10874.656      8.5404268    
  26612600   28376.851      165.7246      -21524621       2.2035439      84163.073     -21440458       595.49338      595.49338      595.49338      2202.2533      2797.7467      2202.2533      2797.7467      2202.2533      2797.7467      2.1116931e+08  0.5            13308800       0.70113114     5365.6828      10731.356      8.5243046    
  26612800   29085.754      172.51669     -21524709       2.2035439      86265.613     -21438443       595.49338      595.49338      595.49338      2202.2533      2797.7467      2202.2533      2797.7467      2202.2533      2797.7467      2.1116931e+08  0.5            13308900       0.71963749     5403.5591      10807.156      8.5065078    
  26613000   29884.088      181.02985     -21521326       2.2035439      88633.396     -21432692       595.49338      595.49338      595.49338      2202.2533      2797.7467      2202.2533      2797.7467      2202.2533      2797.7467      2.1116931e+08  0.5            13309000       0.73808518     5420.7173      10841.404      8.4880042    
  26613200   30668.845      188.61732     -21517511       2.2035439      90960.912     -21426550       595.49338      595.49338      595.49338      2202.2533      2797.7467      2202.2533      2797.7467      2202.2533      2797.7467      2.1116931e+08  0.5            13309100       0.75683819     5332.4924      10665.007      8.4729196    
  26613400   31362.336      197.15485     -21517786       2.2035439      93017.74      -21424768       595.49338      595.49338      595.49338      2202.2533      2797.7467      2202.2533      2797.7467      2202.2533      2797.7467      2.1116931e+08  0.5            13309200       0.77526326     5427.3931      10854.753      8.4540841    
  26613600   32045.377      203.70475     -21513841       2.2035439      95043.576     -21418798       595.49338      595.49338      595.49338      2202.2533      2797.7467      2202.2533      2797.7467      2202.2533      2797.7467      2.1116931e+08  0.5            13309300       0.79390234     5365.0699      10730.132      8.4375427    
  26613800   32803.914      211.28602     -21513591       2.2035439      97293.325     -21416298       595.49338      595.49338      595.49338      2202.2533      2797.7467      2202.2533      2797.7467      2202.2533      2797.7467      2.1116931e+08  0.5            13309400       0.81232306     5428.6642      10857.342      8.4186426    
  26614000   33602.005      219.19533     -21512091       2.2035439      99660.388     -21412431       595.49338      595.49338      595.49338      2202.2533      2797.7467      2202.2533      2797.7467      2202.2533      2797.7467      2.1116931e+08  0.5            13309500       0.8317201      5155.4149      10310.823      8.4096365    
  26614200   34337.409      229.27258     -21508588       2.2035439      101841.53     -21406747       595.49338      595.49338      595.49338      2202.2533      2797.7467      2202.2533      2797.7467      2202.2533      2797.7467      2.1116931e+08  0.5            13309600       0.85083793     5230.7274      10461.472      8.3974211    
  26614400   35015.762      235.24022     -21508390       2.2035439      103853.46     -21404536       595.49338      595.49338      595.49338      2202.2533      2797.7467      2202.2533      2797.7467      2202.2533      2797.7467      2.1116931e+08  0.5            13309700       0.86962112     5323.9138      10647.823      8.3816878    
  26614600   35743.626      242.88154     -21502410       2.2035439      106012.24     -21396398       595.49338      595.49338      595.49338      2202.2533      2797.7467      2202.2533      2797.7467      2202.2533      2797.7467      2.1116931e+08  0.5            13309800       0.88811874     5406.114       10812.242      8.3631373    
  26614800   36539.57       252.61322     -21507140       2.2035439      108372.93     -21398767       595.49338      595.49338      595.49338      2202.2533      2797.7467      2202.2533      2797.7467      2202.2533      2797.7467      2.1116931e+08  0.5            13309900       0.90684737     5339.4046      10678.783      8.3467169    
  26615000   37311.037      257.31548     -21508216       2.2035439      110661.03     -21397555       595.49338      595.49338      595.49338      2202.2533      2797.7467      2202.2533      2797.7467      2202.2533      2797.7467      2.1116931e+08  0.5            13310000       0.92534876     5404.9952      10810.021      8.3281578    
  26615200   38015.074      269.87373     -21501679       2.2035439      112749.14     -21388930       595.49338      595.49338      595.49338      2202.2533      2797.7467      2202.2533      2797.7467      2202.2533      2797.7467      2.1116931e+08  0.5            13310100       0.94424655     5291.6319      10583.261      8.3130911    
  26615400   38711.584      279.10647     -21491502       2.2035439      114814.92     -21376687       595.49338      595.49338      595.49338      2202.2533      2797.7467      2202.2533      2797.7467      2202.2533      2797.7467      2.1116931e+08  0.5            13310200       0.96274146     5406.8936      10813.787      8.2944056    
  26615600   39475.17       287.54904     -21488296       2.2035439      117079.64     -21371216       595.49338      595.49338      595.49338      2202.2533      2797.7467      2202.2533      2797.7467      2202.2533      2797.7467      2.1116931e+08  0.5            13310300       0.98151949     5325.3745      10650.762      8.2781154    
  26615800   40266.366      299.23432     -21478431       2.2035439      119426.26     -21359004       595.49338      595.49338      595.49338      2202.2533      2797.7467      2202.2533      2797.7467      2202.2533      2797.7467      2.1116931e+08  0.5            13310400       1.000249       5339.1671      10678.329      8.2613327    
  26616000   41000.533      307.11456     -21472136       2.2035439      121603.73     -21350533       595.49338      595.49338      595.49338      2202.2533      2797.7467      2202.2533      2797.7467      2202.2533      2797.7467      2.1116931e+08  0.5            13310500       1.0191458      5291.9105      10583.795      8.2458329    
  26616200   41696.291      315.57004     -21462250       2.2035439      123667.28     -21338582       595.49338      595.49338      595.49338      2202.2533      2797.7467      2202.2533      2797.7467      2202.2533      2797.7467      2.1116931e+08  0.5            13310600       1.0376565      5402.2899      10804.571      8.2271494    
  26616400   42434.971      322.4673      -21456754       2.2035439      125858.14     -21330896       595.49338      595.49338      595.49338      2202.2533      2797.7467      2202.2533      2797.7467      2202.2533      2797.7467      2.1116931e+08  0.5            13310700       1.0563968      5336.1036      10672.241      8.210257     
  26616600   43221.607      333.13236     -21456911       2.2035439      128191.22     -21328720       595.49338      595.49338      595.49338      2202.2533      2797.7467      2202.2533      2797.7467      2202.2533      2797.7467      2.1116931e+08  0.5            13310800       1.0749567      5387.9493      10775.882      8.1919267    
  26616800   43986.73       340.34757     -21456392       2.2035439      130460.51     -21325931       595.49338      595.49338      595.49338      2202.2533      2797.7467      2202.2533      2797.7467      2202.2533      2797.7467      2.1116931e+08  0.5            13310900       1.0936784      5341.4001      10682.801      8.1747975    
  26617000   44695.229      345.16645     -21456304       2.2035439      132561.85     -21323742       595.49338      595.49338      595.49338      2202.2533      2797.7467      2202.2533      2797.7467      2202.2533      2797.7467      2.1116931e+08  0.5            13311000       1.1121479      5414.3353      10828.648      8.1557664    
  26617200   45415.861      352.96333     -21455926       2.2035439      134699.18     -21321227       595.49338      595.49338      595.49338      2202.2533      2797.7467      2202.2533      2797.7467      2202.2533      2797.7467      2.1116931e+08  0.5            13311100       1.1309952      5305.8034      10611.625      8.1394715    
  26617400   46184.394      366.68668     -21455259       2.2035439      136978.57     -21318281       595.49338      595.49338      595.49338      2202.2533      2797.7467      2202.2533      2797.7467      2202.2533      2797.7467      2.1116931e+08  0.5            13311200       1.1494908      5406.6925      10813.407      8.1206099    
  26617600   46961.904      372.35756     -21443521       2.2035439      139284.59     -21304237       595.49338      595.49338      595.49338      2202.2533      2797.7467      2202.2533      2797.7467      2202.2533      2797.7467      2.1116931e+08  0.5            13311300       1.1682351      5334.9398      10669.85       8.1034865    
  26617800   47698.875      379.0674      -21444175       2.2035439      141470.38     -21302704       595.49338      595.49338      595.49338      2202.2533      2797.7467      2202.2533      2797.7467      2202.2533      2797.7467      2.1116931e+08  0.5            13311400       1.1870404      5317.6442      10635.298      8.0867269    
  26618000   48401.032      384.57584     -21440374       2.2035439      143552.91     -21296821       595.49338      595.49338      595.49338      2202.2533      2797.7467      2202.2533      2797.7467      2202.2533      2797.7467      2.1116931e+08  0.5            13311500       1.205622       5381.6772      10763.315      8.0684076    
  26618200   49149.647      391.79367     -21440085       2.2035439      145773.23     -21294311       595.49338      595.49338      595.49338      2202.2533      2797.7467      2202.2533      2797.7467      2202.2533      2797.7467      2.1116931e+08  0.5            13311600       1.2244115      5322.1242      10644.264      8.0514469    
  26618400   49934.465      398.03392     -21436805       2.2035439      148100.93     -21288704       595.49338      595.49338      595.49338      2202.2533      2797.7467      2202.2533      2797.7467      2202.2533      2797.7467      2.1116931e+08  0.5            13311700       1.2428827      5413.8305      10827.689      8.0323746    
  26618600   50669.704      403.59382     -21442740       2.2035439      150281.58     -21292459       595.49338      595.49338      595.49338      2202.2533      2797.7467      2202.2533      2797.7467      2202.2533      2797.7467      2.1116931e+08  0.5            13311800       1.2616169      5337.8373      10675.681      8.0149906    
  26618800   51402.949      409.73182     -21462689       2.2035439      152456.31     -21310232       595.49338      595.49338      595.49338      2202.2533      2797.7467      2202.2533      2797.7467      2202.2533      2797.7467      2.1116931e+08  0.5            13311900       1.2801865      5385.1459      10770.286      7.9965397    
  26619000   52161.65       416.50095     -21451845       2.2035439      154706.55     -21297138       595.49338      595.49338      595.49338      2202.2533      2797.7467      2202.2533      2797.7467      2202.2533      2797.7467      2.1116931e+08  0.5            13312000       1.2989956      5316.5611      10633.101      7.9795572    
  26619200   52963.261      422.76517     -21453510       2.2035439      157084.05     -21296426       595.49338      595.49338      595.49338      2202.2533      2797.7467      2202.2533      2797.7467      2202.2533      2797.7467      2.1116931e+08  0.5            13312100       1.3178121      5314.4886      10628.994      7.9625672    
  26619400   53813.7        432.52268     -21451936       2.2035439      159606.38     -21292330       595.49338      595.49338      595.49338      2202.2533      2797.7467      2202.2533      2797.7467      2202.2533      2797.7467      2.1116931e+08  0.5            13312200       1.3363079      5406.6486      10813.301      7.9436197    
  26619600   54822.733      441.49672     -21456355       2.2035439      162599.07     -21293756       595.49338      595.49338      595.49338      2202.2533      2797.7467      2202.2533      2797.7467      2202.2533      2797.7467      2.1116931e+08  0.5            13312300       1.3551721      5301.038       10602.053      7.9268405    
  26619800   56273.871      449.58487     -21455790       2.2035439      166903.01     -21288887       595.49338      595.49338      595.49338      2202.2533      2797.7467      2202.2533      2797.7467      2202.2533      2797.7467      2.1116931e+08  0.5            13312400       1.3737553      5381.2013      10762.425      7.9083866    
  26620000   57838.154      461.53383     -21451173       2.2035439      171542.53     -21279631       595.49338      595.49338      595.49338      2202.2533      2797.7467      2202.2533      2797.7467      2202.2533      2797.7467      2.1116931e+08  0.5            13312500       1.3926087      5304.0853      10608.172      7.8914606    
  26620200   57789.469      469.8882      -21449789       2.2035439      171398.13     -21278391       595.49338      595.49338      595.49338      2202.2533      2797.7467      2202.2533      2797.7467      2202.2533      2797.7467      2.1116931e+08  0.5            13312600       1.4111657      5388.8157      10777.63       7.8728304    
  26620400   55467.291      475.96264     -21455399       2.2035439      164510.77     -21290888       595.49338      595.49338      595.49338      2202.2533      2797.7467      2202.2533      2797.7467      2202.2533      2797.7467      2.1116931e+08  0.5            13312700       1.4299562      5321.8175      10643.632      7.8554848    
  26620600   55604.672      484.74713     -21452218       2.2035439      164918.23     -21287299       595.49338      595.49338      595.49338      2202.2533      2797.7467      2202.2533      2797.7467      2202.2533      2797.7467      2.1116931e+08  0.5            13312800       1.4484179      5416.626       10833.215      7.8363236    
  26620800   58343.63       493.02245     -21446906       2.2035439      173041.72     -21273864       595.49338      595.49338      595.49338      2202.2533      2797.7467      2202.2533      2797.7467      2202.2533      2797.7467      2.1116931e+08  0.5            13312900       1.4669593      5393.3351      10786.7        7.8176042    
  26621000   59230.638      501.84619     -21444892       2.2035439      175672.51     -21269220       595.49338      595.49338      595.49338      2202.2533      2797.7467      2202.2533      2797.7467      2202.2533      2797.7467      2.1116931e+08  0.5            13313000       1.4857581      5319.4933      10638.988      7.8002408    
  26621200   60256.546      511.44022     -21446506       2.2035439      178715.25     -21267791       595.49338      595.49338      595.49338      2202.2533      2797.7467      2202.2533      2797.7467      2202.2533      2797.7467      2.1116931e+08  0.5            13313100       1.5043069      5391.1872      10782.368      7.7815485    
  26621400   61504.608      520.81818     -21457314       2.2035439      182416.89     -21274897       595.49338      595.49338      595.49338      2202.2533      2797.7467      2202.2533      2797.7467      2202.2533      2797.7467      2.1116931e+08  0.5            13313200       1.5227418      5424.4929      10849.018      7.762279     
  26621600   62857.719      529.22106     -21461141       2.2035439      186430.09     -21274711       595.49338      595.49338      595.49338      2202.2533      2797.7467      2202.2533      2797.7467      2202.2533      2797.7467      2.1116931e+08  0.5            13313300       1.5414885      5334.2642      10668.496      7.7445971    
  26621800   65605.084      539.69808     -21467014       2.2035439      194578.51     -21272435       595.49338      595.49338      595.49338      2202.2533      2797.7467      2202.2533      2797.7467      2202.2533      2797.7467      2.1116931e+08  0.5            13313400       1.5599834      5406.912       10813.832      7.7256419    
  26622000   64562.956      548.00017     -21467452       2.2035439      191487.66     -21275965       595.49338      595.49338      595.49338      2202.2533      2797.7467      2202.2533      2797.7467      2202.2533      2797.7467      2.1116931e+08  0.5            13313500       1.5788236      5307.7953      10615.612      7.7083837    
  26622200   60554.981      553.79382     -21466001       2.2035439      179600.38     -21286400       595.49338      595.49338      595.49338      2202.2533      2797.7467      2202.2533      2797.7467      2202.2533      2797.7467      2.1116931e+08  0.5            13313600       1.5974555      5367.1317      10734.256      7.6900863    
  26622400   62013.284      558.91533     -21464173       2.2035439      183925.57     -21280247       595.49338      595.49338      595.49338      2202.2533      2797.7467      2202.2533      2797.7467      2202.2533      2797.7467      2.1116931e+08  0.5            13313700       1.616263       5317.0159      10633.989      7.672615     
  26622600   64096.645      571.77811     -21456767       2.2035439      190104.62     -21266662       595.49338      595.49338      595.49338      2202.2533      2797.7467      2202.2533      2797.7467      2202.2533      2797.7467      2.1116931e+08  0.5            13313800       1.6348225      5388.082       10776.154      7.6539517    
  26622800   65910.071      581.84054     -21463954       2.2035439      195483.08     -21268471       595.49338      595.49338      595.49338      2202.2533      2797.7467      2202.2533      2797.7467      2202.2533      2797.7467      2.1116931e+08  0.5            13313900       1.6535919      5327.8217      10655.698      7.6362596    
  26623000   67271.321      590.91087     -21453890       2.2035439      199520.41     -21254370       595.49338      595.49338      595.49338      2202.2533      2797.7467      2202.2533      2797.7467      2202.2533      2797.7467      2.1116931e+08  0.5            13314000       1.67267        5241.583       10483.123      7.6199512    
  26623200   67855.404      600.19751     -21450982       2.2035439      201252.75     -21249729       595.49338      595.49338      595.49338      2202.2533      2797.7467      2202.2533      2797.7467      2202.2533      2797.7467      2.1116931e+08  0.5            13314100       1.6912071      5394.6191      10789.275      7.6011487    
  26623400   69504.428      611.76087     -21446753       2.2035439      206143.6      -21240609       595.49338      595.49338      595.49338      2202.2533      2797.7467      2202.2533      2797.7467      2202.2533      2797.7467      2.1116931e+08  0.5            13314200       1.7100219      5314.973       10629.934      7.5835844    
  26623600   72145.708      621.17235     -21443499       2.2035439      213977.39     -21229522       595.49338      595.49338      595.49338      2202.2533      2797.7467      2202.2533      2797.7467      2202.2533      2797.7467      2.1116931e+08  0.5            13314300       1.7285736      5390.3265      10780.677      7.5648415    
  26623800   69410.813      628.75092     -21436725       2.2035439      205865.95     -21230859       595.49338      595.49338      595.49338      2202.2533      2797.7467      2202.2533      2797.7467      2202.2533      2797.7467      2.1116931e+08  0.5            13314400       1.7473456      5327.0857      10654.139      7.5470548    
  26624000   65643.164      640.83444     -21428921       2.2035439      194691.45     -21234230       595.49338      595.49338      595.49338      2202.2533      2797.7467      2202.2533      2797.7467      2202.2533      2797.7467      2.1116931e+08  0.5            13314500       1.7659274      5381.621       10763.203      7.5284364    
  26624200   70422.814      653.74912     -21414947       2.2035439      208867.45     -21206080       595.49338      595.49338      595.49338      2202.2533      2797.7467      2202.2533      2797.7467      2202.2533      2797.7467      2.1116931e+08  0.5            13314600       1.7847902      5301.4365      10602.936      7.5110003    
  26624400   71900.726      662.51632     -21404795       2.2035439      213250.79     -21191544       595.49338      595.49338      595.49338      2202.2533      2797.7467      2202.2533      2797.7467      2202.2533      2797.7467      2.1116931e+08  0.5            13314700       1.8033262      5394.9174      10789.836      7.4921779    
  26624600   72982.527      675.55526     -21404779       2.2035439      216459.31     -21188320       595.49338      595.49338      595.49338      2202.2533      2797.7467      2202.2533      2797.7467      2202.2533      2797.7467      2.1116931e+08  0.5            13314800       1.8222164      5293.7325      10587.475      7.4748143    
  26624800   74034.86       686.08025     -21391059       2.2035439      219580.44     -21171479       595.49338      595.49338      595.49338      2202.2533      2797.7467      2202.2533      2797.7467      2202.2533      2797.7467      2.1116931e+08  0.5            13314900       1.8407063      5408.3786      10816.763      7.4557981    
  26625000   74748.625      692.12665     -21392050       2.2035439      221697.4      -21170353       595.49338      595.49338      595.49338      2202.2533      2797.7467      2202.2533      2797.7467      2202.2533      2797.7467      2.1116931e+08  0.5            13315000       1.8592225      5400.6555      10801.303      7.4368979    
  26625200   75657.69       701.63964     -21394586       2.2035439      224393.6      -21170193       595.49338      595.49338      595.49338      2202.2533      2797.7467      2202.2533      2797.7467      2202.2533      2797.7467      2.1116931e+08  0.5            13315100       1.8781661      5278.8413      10557.673      7.4196938    
  26625400   77498.527      718.72121     -21392681       2.2035439      229853.35     -21162828       595.49338      595.49338      595.49338      2202.2533      2797.7467      2202.2533      2797.7467      2202.2533      2797.7467      2.1116931e+08  0.5            13315200       1.8967028      5394.7096      10789.404      7.4008675    
  26625600   78142.414      728.93959     -21395836       2.2035439      231763.06     -21164073       595.49338      595.49338      595.49338      2202.2533      2797.7467      2202.2533      2797.7467      2202.2533      2797.7467      2.1116931e+08  0.5            13315300       1.9155448      5307.2801      10614.597      7.3832239    
  26625800   75626.572      732.11617     -21392298       2.2035439      224301.3      -21167997       595.49338      595.49338      595.49338      2202.2533      2797.7467      2202.2533      2797.7467      2202.2533      2797.7467      2.1116931e+08  0.5            13315400       1.9340985      5389.7751      10779.536      7.3644593    
  26626000   74187.559      744.60374     -21383115       2.2035439      220033.33     -21163082       595.49338      595.49338      595.49338      2202.2533      2797.7467      2202.2533      2797.7467      2202.2533      2797.7467      2.1116931e+08  0.5            13315500       1.9527278      5367.8594      10735.696      7.3459837    
  26626200   78717.802      763.03831     -21373591       2.2035439      233469.6      -21140121       595.49338      595.49338      595.49338      2202.2533      2797.7467      2202.2533      2797.7467      2202.2533      2797.7467      2.1116931e+08  0.5            13315600       1.9715781      5304.968       10609.973      7.3283258    
  26626400   79743.897      767.27375     -21375104       2.2035439      236512.9      -21138591       595.49338      595.49338      595.49338      2202.2533      2797.7467      2202.2533      2797.7467      2202.2533      2797.7467      2.1116931e+08  0.5            13315700       1.99017        5378.667       10757.311      7.3096974    
  26626600   79683.265      779.30484     -21374188       2.2035439      236333.07     -21137855       595.49338      595.49338      595.49338      2202.2533      2797.7467      2202.2533      2797.7467      2202.2533      2797.7467      2.1116931e+08  0.5            13315800       2.0089749      5317.7796      10635.562      7.2918421    
  26626800   81392.151      791.19224     -21365750       2.2035439      241401.47     -21124348       595.49338      595.49338      595.49338      2202.2533      2797.7467      2202.2533      2797.7467      2202.2533      2797.7467      2.1116931e+08  0.5            13315900       2.0275422      5385.8141      10771.619      7.2731173    
  26627000   84277.457      807.32794     -21362918       2.2035439      249959.01     -21112959       595.49338      595.49338      595.49338      2202.2533      2797.7467      2202.2533      2797.7467      2202.2533      2797.7467      2.1116931e+08  0.5            13316000       2.0465449      5262.3998      10524.793      7.2559394    
  26627200   82845.435      815.26663     -21361803       2.2035439      245711.77     -21116091       595.49338      595.49338      595.49338      2202.2533      2797.7467      2202.2533      2797.7467      2202.2533      2797.7467      2.1116931e+08  0.5            13316100       2.0651847      5364.8826      10729.789      7.2374561    
  26627400   76804.559      818.56105     -21357682       2.2035439      227795.1      -21129887       595.49338      595.49338      595.49338      2202.2533      2797.7467      2202.2533      2797.7467      2202.2533      2797.7467      2.1116931e+08  0.5            13316200       2.0840365      5304.5217      10609.057      7.2197047    
  26627600   79114.745      834.88019     -21354693       2.2035439      234646.9      -21120046       595.49338      595.49338      595.49338      2202.2533      2797.7467      2202.2533      2797.7467      2202.2533      2797.7467      2.1116931e+08  0.5            13316300       2.1025625      5397.8266      10795.644      7.2008182    
  26627800   82692.283      848.94913     -21352812       2.2035439      245257.54     -21107555       595.49338      595.49338      595.49338      2202.2533      2797.7467      2202.2533      2797.7467      2202.2533      2797.7467      2.1116931e+08  0.5            13316400       2.1212364      5355.0755      10710.123      7.1824385    
  26628000   85636.239      863.47282     -21350085       2.2035439      253989.03     -21096095       595.49338      595.49338      595.49338      2202.2533      2797.7467      2202.2533      2797.7467      2202.2533      2797.7467      2.1116931e+08  0.5            13316500       2.1400849      5305.4409      10610.889      7.1646388    
  26628200   87083.828      877.69905     -21344638       2.2035439      258282.45     -21086356       595.49338      595.49338      595.49338      2202.2533      2797.7467      2202.2533      2797.7467      2202.2533      2797.7467      2.1116931e+08  0.5            13316600       2.1587515      5357.1872      10714.383      7.1462183    
  26628400   86900.117      888.31758     -21337517       2.2035439      257737.58     -21079779       595.49338      595.49338      595.49338      2202.2533      2797.7467      2202.2533      2797.7467      2202.2533      2797.7467      2.1116931e+08  0.5            13316700       2.1776006      5305.2875      10610.582      7.1283912    
  26628600   87358.543      903.27272     -21337087       2.2035439      259097.23     -21077989       595.49338      595.49338      595.49338      2202.2533      2797.7467      2202.2533      2797.7467      2202.2533      2797.7467      2.1116931e+08  0.5            13316800       2.1961491      5391.2724      10782.537      7.1095737    
  26628800   90555.127      912.16246     -21328682       2.2035439      268578        -21060104       595.49338      595.49338      595.49338      2202.2533      2797.7467      2202.2533      2797.7467      2202.2533      2797.7467      2.1116931e+08  0.5            13316900       2.2147162      5385.8658      10771.721      7.0908204    
  26629000   90844.608      929.23172     -21324785       2.2035439      269436.57     -21055348       595.49338      595.49338      595.49338      2202.2533      2797.7467      2202.2533      2797.7467      2202.2533      2797.7467      2.1116931e+08  0.5            13317000       2.2335503      5309.4944      10619.009      7.072916     
  26629200   86475.102      939.81614     -21317201       2.2035439      256477.02     -21060724       595.49338      595.49338      595.49338      2202.2533      2797.7467      2202.2533      2797.7467      2202.2533      2797.7467      2.1116931e+08  0.5            13317100       2.2521342      5381.0157      10762.036      7.0542117    
  26629400   83885.868      951.4302      -21313616       2.2035439      248797.6      -21064818       595.49338      595.49338      595.49338      2202.2533      2797.7467      2202.2533      2797.7467      2202.2533      2797.7467      2.1116931e+08  0.5            13317200       2.2706731      5394.0726      10788.136      7.0353702    
  26629600   89875.651      964.29637     -21308288       2.2035439      266562.73     -21041725       595.49338      595.49338      595.49338      2202.2533      2797.7467      2202.2533      2797.7467      2202.2533      2797.7467      2.1116931e+08  0.5            13317300       2.2894978      5312.1609      10624.312      7.0174101    
  26629800   92081.11       971.48593     -21307211       2.2035439      273103.92     -21034108       595.49338      595.49338      595.49338      2202.2533      2797.7467      2202.2533      2797.7467      2202.2533      2797.7467      2.1116931e+08  0.5            13317400       2.3079862      5408.8182      10817.669      6.9984156    
  26630000   93602.269      983.74695     -21305088       2.2035439      277615.53     -21027473       595.49338      595.49338      595.49338      2202.2533      2797.7467      2202.2533      2797.7467      2202.2533      2797.7467      2.1116931e+08  0.5            13317500       2.326569       5381.3007      10762.564      6.9797132    
  26630200   94063.832      994.77577     -21307656       2.2035439      278984.48     -21028672       595.49338      595.49338      595.49338      2202.2533      2797.7467      2202.2533      2797.7467      2202.2533      2797.7467      2.1116931e+08  0.5            13317600       2.345424       5303.6203      10607.256      6.9618203    
  26630400   94297.668      1001.7198     -21308816       2.2035439      279678.02     -21029138       595.49338      595.49338      595.49338      2202.2533      2797.7467      2202.2533      2797.7467      2202.2533      2797.7467      2.1116931e+08  0.5            13317700       2.3639576      5395.6233      10791.255      6.9429679    
  26630600   96300.911      1012.608      -21301802       2.2035439      285619.45     -21016183       595.49338      595.49338      595.49338      2202.2533      2797.7467      2202.2533      2797.7467      2202.2533      2797.7467      2.1116931e+08  0.5            13317800       2.3825336      5383.283       10766.523      6.9242442    
  26630800   98215.567      1020.7351     -21299030       2.2035439      291298.14     -21007732       595.49338      595.49338      595.49338      2202.2533      2797.7467      2202.2533      2797.7467      2202.2533      2797.7467      2.1116931e+08  0.5            13317900       2.4016998      5217.5271      10435.06       6.9072203    
  26631000   96074.613      1029.0006     -21297136       2.2035439      284948.27     -21012187       595.49338      595.49338      595.49338      2202.2533      2797.7467      2202.2533      2797.7467      2202.2533      2797.7467      2.1116931e+08  0.5            13318000       2.4208949      5209.6545      10419.333      6.8902453    
  26631200   92089.37       1032.7412     -21300002       2.2035439      273128.41     -21026873       595.49338      595.49338      595.49338      2202.2533      2797.7467      2202.2533      2797.7467      2202.2533      2797.7467      2.1116931e+08  0.5            13318100       2.4398158      5285.1508      10570.291      6.872464     
  26631400   96403.466      1043.2378     -21292983       2.2035439      285923.62     -21007059       595.49338      595.49338      595.49338      2202.2533      2797.7467      2202.2533      2797.7467      2202.2533      2797.7467      2.1116931e+08  0.5            13318200       2.4583219      5403.6397      10807.311      6.8535088    
  26631600   99783.685      1055.8809     -21293369       2.2035439      295949.03     -20997420       595.49338      595.49338      595.49338      2202.2533      2797.7467      2202.2533      2797.7467      2202.2533      2797.7467      2.1116931e+08  0.5            13318300       2.4768924      5384.8988      10769.791      6.8347385    
  26631800   99266.561      1061.5814     -21291908       2.2035439      294415.29     -20997493       595.49338      595.49338      595.49338      2202.2533      2797.7467      2202.2533      2797.7467      2202.2533      2797.7467      2.1116931e+08  0.5            13318400       2.4956901      5319.7833      10639.565      6.8165919    
  26632000   98933.801      1067.4566     -21283664       2.2035439      293428.35     -20990235       595.49338      595.49338      595.49338      2202.2533      2797.7467      2202.2533      2797.7467      2202.2533      2797.7467      2.1116931e+08  0.5            13318500       2.5142624      5384.3514      10768.678      6.7978263    
  26632200   102509.84      1077.7763     -21272521       2.2035439      304034.54     -20968487       595.49338      595.49338      595.49338      2202.2533      2797.7467      2202.2533      2797.7467      2202.2533      2797.7467      2.1116931e+08  0.5            13318600       2.533082       5313.6078      10627.215      6.7797251    
  26632400   105188.02      1092.4091     -21270866       2.2035439      311977.79     -20958888       595.49338      595.49338      595.49338      2202.2533      2797.7467      2202.2533      2797.7467      2202.2533      2797.7467      2.1116931e+08  0.5            13318700       2.551597       5401.0396      10802.091      6.760806     
  26632600   100711.84      1093.3159     -21269390       2.2035439      298701.85     -20970688       595.49338      595.49338      595.49338      2202.2533      2797.7467      2202.2533      2797.7467      2202.2533      2797.7467      2.1116931e+08  0.5            13318800       2.5701253      5397.1484      10794.305      6.7419282    
  26632800   96266.046      1097.8699     -21269359       2.2035439      285516.04     -20983843       595.49338      595.49338      595.49338      2202.2533      2797.7467      2202.2533      2797.7467      2202.2533      2797.7467      2.1116931e+08  0.5            13318900       2.5889376      5315.6629      10631.307      6.7237929    
  26633000   103713.22      1111.277      -21268464       2.2035439      307603.66     -20960861       595.49338      595.49338      595.49338      2202.2533      2797.7467      2202.2533      2797.7467      2202.2533      2797.7467      2.1116931e+08  0.5            13319000       2.6075109      5384.0754      10768.128      6.7050335    
  26633200   104909.85      1121.5168     -21258763       2.2035439      311152.74     -20947610       595.49338      595.49338      595.49338      2202.2533      2797.7467      2202.2533      2797.7467      2202.2533      2797.7467      2.1116931e+08  0.5            13319100       2.6264188      5288.8041      10577.616      6.6871284    
  26633400   104826.32      1130.2203     -21252050       2.2035439      310905        -20941145       595.49338      595.49338      595.49338      2202.2533      2797.7467      2202.2533      2797.7467      2202.2533      2797.7467      2.1116931e+08  0.5            13319200       2.6449277      5402.8126      10805.642      6.6682029    
  26633600   105995.72      1139.4815     -21253058       2.2035439      314373.35     -20938685       595.49338      595.49338      595.49338      2202.2533      2797.7467      2202.2533      2797.7467      2202.2533      2797.7467      2.1116931e+08  0.5            13319300       2.6634325      5403.9919      10808.011      6.6492734    
  26633800   108348.82      1158.6966     -21251215       2.2035439      321352.43     -20929862       595.49338      595.49338      595.49338      2202.2533      2797.7467      2202.2533      2797.7467      2202.2533      2797.7467      2.1116931e+08  0.5            13319400       2.6822795      5305.8907      10611.717      6.6311961    
  26634000   109274.62      1169.6748     -21248053       2.2035439      324098.26     -20923955       595.49338      595.49338      595.49338      2202.2533      2797.7467      2202.2533      2797.7467      2202.2533      2797.7467      2.1116931e+08  0.5            13319500       2.7008335      5389.6821      10779.357      6.6123906    
  26634200   107879.11      1178.7054     -21229640       2.2035439      319959.29     -20909681       595.49338      595.49338      595.49338      2202.2533      2797.7467      2202.2533      2797.7467      2202.2533      2797.7467      2.1116931e+08  0.5            13319600       2.7196945      5301.9489      10603.952      6.5943324    
  26634400   106428.67      1183.6833     -21234678       2.2035439      315657.42     -20919021       595.49338      595.49338      595.49338      2202.2533      2797.7467      2202.2533      2797.7467      2202.2533      2797.7467      2.1116931e+08  0.5            13319700       2.7381901      5406.6726      10813.369      6.5753864    
  26634600   110117.08      1198.3647     -21226563       2.2035439      326596.92     -20899966       595.49338      595.49338      595.49338      2202.2533      2797.7467      2202.2533      2797.7467      2202.2533      2797.7467      2.1116931e+08  0.5            13319800       2.7566675      5412.0426      10824.052      6.5564031    
  26634800   112668.9       1212.3103     -21231438       2.2035439      334165.38     -20897272       595.49338      595.49338      595.49338      2202.2533      2797.7467      2202.2533      2797.7467      2202.2533      2797.7467      2.1116931e+08  0.5            13319900       2.7754748      5317.0643      10634.122      6.5382038    
  26635000   110848.56      1225.2993     -21235724       2.2035439      328766.42     -20906958       595.49338      595.49338      595.49338      2202.2533      2797.7467      2202.2533      2797.7467      2202.2533      2797.7467      2.1116931e+08  0.5            13320000       2.7940143      5393.8861      10787.777      6.5193716    
  26635200   108192.77      1235.795      -21232424       2.2035439      320889.58     -20911534       595.49338      595.49338      595.49338      2202.2533      2797.7467      2202.2533      2797.7467      2202.2533      2797.7467      2.1116931e+08  0.5            13320100       2.8128666      5304.3979      10608.811      6.5012657    
  26635400   112016.99      1243.3077     -21238996       2.2035439      332231.86     -20906764       595.49338      595.49338      595.49338      2202.2533      2797.7467      2202.2533      2797.7467      2202.2533      2797.7467      2.1116931e+08  0.5            13320200       2.8320209      5220.7492      10441.502      6.4838419    
  26635600   116066.42      1256.4027     -21226203       2.2035439      344242.08     -20881961       595.49338      595.49338      595.49338      2202.2533      2797.7467      2202.2533      2797.7467      2202.2533      2797.7467      2.1116931e+08  0.5            13320300       2.8511359      5231.4969      10462.983      6.4663064    
  26635800   114344.27      1261.7543     -21232648       2.2035439      339134.35     -20893514       595.49338      595.49338      595.49338      2202.2533      2797.7467      2202.2533      2797.7467      2202.2533      2797.7467      2.1116931e+08  0.5            13320400       2.8700317      5292.174       10584.339      6.4482577    
  26636000   111349.5       1271.0764     -21226835       2.2035439      330252.16     -20896583       595.49338      595.49338      595.49338      2202.2533      2797.7467      2202.2533      2797.7467      2202.2533      2797.7467      2.1116931e+08  0.5            13320500       2.8886999      5356.7023      10713.419      6.4296915    
  26636200   115047.74      1284.7636     -21231418       2.2035439      341220.78     -20890198       595.49338      595.49338      595.49338      2202.2533      2797.7467      2202.2533      2797.7467      2202.2533      2797.7467      2.1116931e+08  0.5            13320600       2.9075577      5302.8697      10605.719      6.4115419    
  26636400   119793.79      1291.1866     -21229766       2.2035439      355297.12     -20874469       595.49338      595.49338      595.49338      2202.2533      2797.7467      2202.2533      2797.7467      2202.2533      2797.7467      2.1116931e+08  0.5            13320700       2.9264161      5302.6709      10605.362      6.3933847    
  26636600   117072.01      1297.2557     -21225894       2.2035439      347224.57     -20878670       595.49338      595.49338      595.49338      2202.2533      2797.7467      2202.2533      2797.7467      2202.2533      2797.7467      2.1116931e+08  0.5            13320800       2.945287       5299.157       10598.276      6.3752461    
  26636800   114061.3       1306.9863     -21221295       2.2035439      338295.08     -20883000       595.49338      595.49338      595.49338      2202.2533      2797.7467      2202.2533      2797.7467      2202.2533      2797.7467      2.1116931e+08  0.5            13320900       2.9638381      5390.5188      10781.088      6.3564117    
  26637000   119757.18      1315.8762     -21216172       2.2035439      355188.54     -20860984       595.49338      595.49338      595.49338      2202.2533      2797.7467      2202.2533      2797.7467      2202.2533      2797.7467      2.1116931e+08  0.5            13321000       2.9827025      5300.9815      10601.952      6.3382471    
  26637200   123174.01      1327.5784     -21222240       2.2035439      365322.54     -20856918       595.49338      595.49338      595.49338      2202.2533      2797.7467      2202.2533      2797.7467      2202.2533      2797.7467      2.1116931e+08  0.5            13321100       3.0012889      5380.2893      10760.589      6.3194883    
  26637400   118919.67      1334.3834     -21218133       2.2035439      352704.57     -20865428       595.49338      595.49338      595.49338      2202.2533      2797.7467      2202.2533      2797.7467      2202.2533      2797.7467      2.1116931e+08  0.5            13321200       3.0200748      5323.1317      10646.234      6.3011481    
  26637600   116902.06      1340.7678     -21218050       2.2035439      346720.51     -20871330       595.49338      595.49338      595.49338      2202.2533      2797.7467      2202.2533      2797.7467      2202.2533      2797.7467      2.1116931e+08  0.5            13321300       3.0385761      5405.0332      10810.086      6.2822135    
  26637800   123813.94      1347.6686     -21220872       2.2035439      367220.52     -20853651       595.49338      595.49338      595.49338      2202.2533      2797.7467      2202.2533      2797.7467      2202.2533      2797.7467      2.1116931e+08  0.5            13321400       3.0573601      5323.678       10647.331      6.2638639    
  26638000   124943.98      1361.1652     -21222071       2.2035439      370572.11     -20851499       595.49338      595.49338      595.49338      2202.2533      2797.7467      2202.2533      2797.7467      2202.2533      2797.7467      2.1116931e+08  0.5            13321500       3.0760713      5344.3947      10688.8        6.2453611    
  26638200   121511.25      1369.7155     -21228057       2.2035439      360390.94     -20867666       595.49338      595.49338      595.49338      2202.2533      2797.7467      2202.2533      2797.7467      2202.2533      2797.7467      2.1116931e+08  0.5            13321600       3.0949594      5294.3404      10588.658      6.2272117    
  26638400   121114.51      1375.6871     -21224050       2.2035439      359214.25     -20864836       595.49338      595.49338      595.49338      2202.2533      2797.7467      2202.2533      2797.7467      2202.2533      2797.7467      2.1116931e+08  0.5            13321700       3.1135107      5390.4549      10780.928      6.2083817    
  26638600   127859.18      1392.7294     -21216929       2.2035439      379218.31     -20837710       595.49338      595.49338      595.49338      2202.2533      2797.7467      2202.2533      2797.7467      2202.2533      2797.7467      2.1116931e+08  0.5            13321800       3.1325016      5265.6782      10531.373      6.1904239    
  26638800   128012.4       1402.901      -21204982       2.2035439      379672.74     -20825309       595.49338      595.49338      595.49338      2202.2533      2797.7467      2202.2533      2797.7467      2202.2533      2797.7467      2.1116931e+08  0.5            13321900       3.1510408      5393.9658      10787.926      6.1715692    
  26639000   124670.03      1412.0273     -21195822       2.2035439      369759.59     -20826063       595.49338      595.49338      595.49338      2202.2533      2797.7467      2202.2533      2797.7467      2202.2533      2797.7467      2.1116931e+08  0.5            13322000       3.1699083      5300.1254      10600.256      6.1533553    
  26639200   124506.12      1416.3948     -21198590       2.2035439      369273.45     -20829316       595.49338      595.49338      595.49338      2202.2533      2797.7467      2202.2533      2797.7467      2202.2533      2797.7467      2.1116931e+08  0.5            13322100       3.1885989      5350.2733      10700.568      6.1347935    
  26639400   128301.86      1433.5055     -21186677       2.2035439      380531.27     -20806146       595.49338      595.49338      595.49338      2202.2533      2797.7467      2202.2533      2797.7467      2202.2533      2797.7467      2.1116931e+08  0.5            13322200       3.2072156      5371.5343      10743.031      6.1160895    
  26639600   131289.34      1442.5379     -21192274       2.2035439      389391.83     -20802882       595.49338      595.49338      595.49338      2202.2533      2797.7467      2202.2533      2797.7467      2202.2533      2797.7467      2.1116931e+08  0.5            13322300       3.2261225      5289.0816      10578.174      6.0979348    
  26639800   128289.13      1450.4526     -21183849       2.2035439      380493.49     -20803356       595.49338      595.49338      595.49338      2202.2533      2797.7467      2202.2533      2797.7467      2202.2533      2797.7467      2.1116931e+08  0.5            13322400       3.2447239      5375.9366      10751.862      6.0791991    
  26640000   122495.68      1453.9793     -21171919       2.2035439      363310.67     -20808609       595.49338      595.49338      595.49338      2202.2533      2797.7467      2202.2533      2797.7467      2202.2533      2797.7467      2.1116931e+08  0.5            13322500       3.263641       5286.196       10572.367      6.0610517    
  26640200   128428.52      1468.2677     -21169795       2.2035439      380906.91     -20788888       595.49338      595.49338      595.49338      2202.2533      2797.7467      2202.2533      2797.7467      2202.2533      2797.7467      2.1116931e+08  0.5            13322600       3.2823338      5349.676       10699.358      6.0424819    
  26640400   133675.96      1476.2303     -21169595       2.2035439      396470.33     -20773125       595.49338      595.49338      595.49338      2202.2533      2797.7467      2202.2533      2797.7467      2202.2533      2797.7467      2.1116931e+08  0.5            13322700       3.3013001      5272.5116      10545.043      6.0244102    
  26640600   133032.61      1489.1374     -21160913       2.2035439      394562.21     -20766351       595.49338      595.49338      595.49338      2202.2533      2797.7467      2202.2533      2797.7467      2202.2533      2797.7467      2.1116931e+08  0.5            13322800       3.3198639      5386.8252      10773.664      6.0056002    
  26640800   129409.11      1489.7521     -21174281       2.2035439      383815.27     -20790466       595.49338      595.49338      595.49338      2202.2533      2797.7467      2202.2533      2797.7467      2202.2533      2797.7467      2.1116931e+08  0.5            13322900       3.3386914      5311.3698      10622.741      5.987266     
  26641000   130156.09      1500.2853     -21180790       2.2035439      386030.73     -20794760       595.49338      595.49338      595.49338      2202.2533      2797.7467      2202.2533      2797.7467      2202.2533      2797.7467      2.1116931e+08  0.5            13323000       3.3573622      5355.9601      10711.87       5.9686477    
  26641200   138094.72      1511.1144     -21183259       2.2035439      409575.96     -20773683       595.49338      595.49338      595.49338      2202.2533      2797.7467      2202.2533      2797.7467      2202.2533      2797.7467      2.1116931e+08  0.5            13323100       3.3763631      5262.9044      10525.839      5.9506105    
  26641400   136803.93      1516.7648     -21183939       2.2035439      405747.61     -20778192       595.49338      595.49338      595.49338      2202.2533      2797.7467      2202.2533      2797.7467      2202.2533      2797.7467      2.1116931e+08  0.5            13323200       3.394984       5370.3204      10740.664      5.9318986    
  26641600   132273.89      1519.5295     -21180484       2.2035439      392311.93     -20788172       595.49338      595.49338      595.49338      2202.2533      2797.7467      2202.2533      2797.7467      2202.2533      2797.7467      2.1116931e+08  0.5            13323300       3.4139019      5285.9917      10571.952      5.9137025    
  26641800   134075.02      1530.1956     -21185821       2.2035439      397653.89     -20788168       595.49338      595.49338      595.49338      2202.2533      2797.7467      2202.2533      2797.7467      2202.2533      2797.7467      2.1116931e+08  0.5            13323400       3.4324687      5385.9717      10771.959      5.8948954    
  26642000   142744         1543.852      -21171575       2.2035439      423365.29     -20748210       595.49338      595.49338      595.49338      2202.2533      2797.7467      2202.2533      2797.7467      2202.2533      2797.7467      2.1116931e+08  0.5            13323500       3.4513102      5307.4229      10614.862      5.8765587    
  26642200   138587.05      1550.495      -21172560       2.2035439      411036.16     -20761523       595.49338      595.49338      595.49338      2202.2533      2797.7467      2202.2533      2797.7467      2202.2533      2797.7467      2.1116931e+08  0.5            13323600       3.4698863      5383.2778      10766.545      5.8577685    
  26642400   134183.67      1562.9861     -21160627       2.2035439      397976.15     -20762651       595.49338      595.49338      595.49338      2202.2533      2797.7467      2202.2533      2797.7467      2202.2533      2797.7467      2.1116931e+08  0.5            13323700       3.4887605      5298.2241      10596.43       5.8394796    
  26642600   138281.17      1573.7441     -21158731       2.2035439      410128.96     -20748602       595.49338      595.49338      595.49338      2202.2533      2797.7467      2202.2533      2797.7467      2202.2533      2797.7467      2.1116931e+08  0.5            13323800       3.5073328      5384.3859      10768.797      5.8206832    
  26642800   143556.37      1587.2406     -21156236       2.2035439      425774.69     -20730462       595.49338      595.49338      595.49338      2202.2533      2797.7467      2202.2533      2797.7467      2202.2533      2797.7467      2.1116931e+08  0.5            13323900       3.5261882      5303.4966      10607.009      5.8023553    
  26643000   140836.23      1598.6983     -21151451       2.2035439      417707.01     -20733744       595.49338      595.49338      595.49338      2202.2533      2797.7467      2202.2533      2797.7467      2202.2533      2797.7467      2.1116931e+08  0.5            13324000       3.544835       5362.8341      10725.631      5.7836817    
  26643200   138862.95      1611.5293     -21143899       2.2035439      411854.46     -20732045       595.49338      595.49338      595.49338      2202.2533      2797.7467      2202.2533      2797.7467      2202.2533      2797.7467      2.1116931e+08  0.5            13324100       3.5637293      5292.6062      10585.224      5.7654084    
  26643400   143189.76      1629.2858     -21131040       2.2035439      424687.35     -20706353       595.49338      595.49338      595.49338      2202.2533      2797.7467      2202.2533      2797.7467      2202.2533      2797.7467      2.1116931e+08  0.5            13324200       3.582438       5345.1011      10690.218      5.7468309    
  26643600   149007.17      1640.5406     -21123971       2.2035439      441941.25     -20682030       595.49338      595.49338      595.49338      2202.2533      2797.7467      2202.2533      2797.7467      2202.2533      2797.7467      2.1116931e+08  0.5            13324300       3.6013224      5295.3996      10590.787      5.7285316    
  26643800   144647.28      1651.8908     -21129442       2.2035439      429010.25     -20700432       595.49338      595.49338      595.49338      2202.2533      2797.7467      2202.2533      2797.7467      2202.2533      2797.7467      2.1116931e+08  0.5            13324400       3.6200441      5341.3773      10682.752      5.7099697    
  26644000   142147.1       1663.7171     -21126704       2.2035439      421594.93     -20705109       595.49338      595.49338      595.49338      2202.2533      2797.7467      2202.2533      2797.7467      2202.2533      2797.7467      2.1116931e+08  0.5            13324500       3.6389671      5284.5852      10569.185      5.691721     
  26644200   143648.44      1672.3292     -21135646       2.2035439      426047.78     -20709598       595.49338      595.49338      595.49338      2202.2533      2797.7467      2202.2533      2797.7467      2202.2533      2797.7467      2.1116931e+08  0.5            13324600       3.6578699      5290.2202      10580.415      5.673434     
  26644400   147198.71      1684.4715     -21153204       2.2035439      436577.54     -20716627       595.49338      595.49338      595.49338      2202.2533      2797.7467      2202.2533      2797.7467      2202.2533      2797.7467      2.1116931e+08  0.5            13324700       3.6766823      5315.6615      10631.348      5.6550017    
  26644600   149153.4       1689.4125     -21156933       2.2035439      442374.96     -20714558       595.49338      595.49338      595.49338      2202.2533      2797.7467      2202.2533      2797.7467      2202.2533      2797.7467      2.1116931e+08  0.5            13324800       3.6956025      5285.331       10570.626      5.6367385    
  26644800   148072.49      1703.7507     -21148780       2.2035439      439169.07     -20709611       595.49338      595.49338      595.49338      2202.2533      2797.7467      2202.2533      2797.7467      2202.2533      2797.7467      2.1116931e+08  0.5            13324900       3.7143126      5344.7314      10689.507      5.6181341    
  26645000   144404.57      1712.8209     -21140518       2.2035439      428290.38     -20712227       595.49338      595.49338      595.49338      2202.2533      2797.7467      2202.2533      2797.7467      2202.2533      2797.7467      2.1116931e+08  0.5            13325000       3.7330303      5342.519       10684.995      5.5995487    
  26645200   146801.94      1723.6135     -21128760       2.2035439      435400.74     -20693359       595.49338      595.49338      595.49338      2202.2533      2797.7467      2202.2533      2797.7467      2202.2533      2797.7467      2.1116931e+08  0.5            13325100       3.7519316      5290.6582      10581.343      5.5812345    
  26645400   153237.71      1740.633      -21125684       2.2035439      454488.65     -20671195       595.49338      595.49338      595.49338      2202.2533      2797.7467      2202.2533      2797.7467      2202.2533      2797.7467      2.1116931e+08  0.5            13325200       3.7705203      5379.6089      10759.211      5.5624537    
  26645600   152628.26      1744.4218     -21131031       2.2035439      452681.07     -20678350       595.49338      595.49338      595.49338      2202.2533      2797.7467      2202.2533      2797.7467      2202.2533      2797.7467      2.1116931e+08  0.5            13325300       3.7894318      5287.7761      10575.566      5.5441471    
  26645800   145903.64      1743.1847     -21144733       2.2035439      432736.47     -20711997       595.49338      595.49338      595.49338      2202.2533      2797.7467      2202.2533      2797.7467      2202.2533      2797.7467      2.1116931e+08  0.5            13325400       3.8080926      5358.8457      10717.695      5.5254705    
  26646000   143061.65      1747.276      -21151625       2.2035439      424307.39     -20727318       595.49338      595.49338      595.49338      2202.2533      2797.7467      2202.2533      2797.7467      2202.2533      2797.7467      2.1116931e+08  0.5            13325500       3.8268681      5326.0768      10652.109      5.5069596    
  26646200   154952.3       1766.7675     -21150066       2.2035439      459573.95     -20690492       595.49338      595.49338      595.49338      2202.2533      2797.7467      2202.2533      2797.7467      2202.2533      2797.7467      2.1116931e+08  0.5            13325600       3.8458163      5277.5492      10555.141      5.4886922    
  26646400   156120.75      1773.4403     -21145574       2.2035439      463039.48     -20682535       595.49338      595.49338      595.49338      2202.2533      2797.7467      2202.2533      2797.7467      2202.2533      2797.7467      2.1116931e+08  0.5            13325700       3.864409       5378.4466      10756.887      5.4699152    
  26646600   151752.2       1778.0965     -21144650       2.2035439      450082.76     -20694567       595.49338      595.49338      595.49338      2202.2533      2797.7467      2202.2533      2797.7467      2202.2533      2797.7467      2.1116931e+08  0.5            13325800       3.8834341      5256.2238      10512.422      5.4517469    
  26646800   150329.03      1793.369      -21134248       2.2035439      445861.77     -20688386       595.49338      595.49338      595.49338      2202.2533      2797.7467      2202.2533      2797.7467      2202.2533      2797.7467      2.1116931e+08  0.5            13325900       3.9021288      5349.1134      10698.234      5.4331104    
  26647000   158802.54      1806.6143     -21132502       2.2035439      470993.4      -20661509       595.49338      595.49338      595.49338      2202.2533      2797.7467      2202.2533      2797.7467      2202.2533      2797.7467      2.1116931e+08  0.5            13326000       3.9208531      5340.6536      10681.313      5.4145142    
  26647200   160299.64      1811.5518     -21125795       2.2035439      475433.67     -20650361       595.49338      595.49338      595.49338      2202.2533      2797.7467      2202.2533      2797.7467      2202.2533      2797.7467      2.1116931e+08  0.5            13326100       3.9398779      5256.2899      10512.584      5.3963284    
  26647400   155555.51      1819.9063     -21124746       2.2035439      461363.02     -20663383       595.49338      595.49338      595.49338      2202.2533      2797.7467      2202.2533      2797.7467      2202.2533      2797.7467      2.1116931e+08  0.5            13326200       3.958494       5371.699       10743.382      5.3775796    
  26647600   154503.95      1832.8549     -21127132       2.2035439      458244.2      -20668888       595.49338      595.49338      595.49338      2202.2533      2797.7467      2202.2533      2797.7467      2202.2533      2797.7467      2.1116931e+08  0.5            13326300       3.9774597      5272.6712      10545.361      5.3593029    
  26647800   157826.53      1846.948      -21126819       2.2035439      468098.67     -20658720       595.49338      595.49338      595.49338      2202.2533      2797.7467      2202.2533      2797.7467      2202.2533      2797.7467      2.1116931e+08  0.5            13326400       3.9961223      5358.3254      10716.635      5.3406147    
  26648000   158591.26      1861.4118     -21097812       2.2035439      470366.78     -20627445       595.49338      595.49338      595.49338      2202.2533      2797.7467      2202.2533      2797.7467      2202.2533      2797.7467      2.1116931e+08  0.5            13326500       4.0148061      5352.2059      10704.414      5.3219551    
  26648200   158883.63      1871.0815     -21095345       2.2035439      471233.91     -20624111       595.49338      595.49338      595.49338      2202.2533      2797.7467      2202.2533      2797.7467      2202.2533      2797.7467      2.1116931e+08  0.5            13326600       4.03383        5256.5388      10513.066      5.3037423    
  26648400   161560.74      1890.8547     -21094415       2.2035439      479173.96     -20615241       595.49338      595.49338      595.49338      2202.2533      2797.7467      2202.2533      2797.7467      2202.2533      2797.7467      2.1116931e+08  0.5            13326700       4.0524766      5362.9264      10725.88       5.2850297    
  26648600   165224.32      1900.1674     -21089715       2.2035439      490039.79     -20599675       595.49338      595.49338      595.49338      2202.2533      2797.7467      2202.2533      2797.7467      2202.2533      2797.7467      2.1116931e+08  0.5            13326800       4.0711371      5358.9095      10717.805      5.2663359    
  26648800   165393.26      1914.1438     -21099566       2.2035439      490540.86     -20609025       595.49338      595.49338      595.49338      2202.2533      2797.7467      2202.2533      2797.7467      2202.2533      2797.7467      2.1116931e+08  0.5            13326900       4.0900877      5276.8608      10553.708      5.2480148    
  26649000   158023.95      1926.7196     -21086148       2.2035439      468684.18     -20617464       595.49338      595.49338      595.49338      2202.2533      2797.7467      2202.2533      2797.7467      2202.2533      2797.7467      2.1116931e+08  0.5            13327000       4.1087866      5347.9333      10695.901      5.2293673    
  26649200   156801         1936.7788     -21075751       2.2035439      465057.02     -20610694       595.49338      595.49338      595.49338      2202.2533      2797.7467      2202.2533      2797.7467      2202.2533      2797.7467      2.1116931e+08  0.5            13327100       4.1277902      5262.165       10524.306      5.2111042    
  26649400   166162.07      1956.1941     -21064131       2.2035439      492821.09     -20571309       595.49338      595.49338      595.49338      2202.2533      2797.7467      2202.2533      2797.7467      2202.2533      2797.7467      2.1116931e+08  0.5            13327200       4.1464342      5363.6654      10727.355      5.192384     
  26649600   167031.31      1970.6201     -21072170       2.2035439      495399.17     -20576771       595.49338      595.49338      595.49338      2202.2533      2797.7467      2202.2533      2797.7467      2202.2533      2797.7467      2.1116931e+08  0.5            13327300       4.165397       5273.4589      10546.887      5.1740608    
  26649800   164285.89      1976.242      -21079398       2.2035439      487256.5      -20592142       595.49338      595.49338      595.49338      2202.2533      2797.7467      2202.2533      2797.7467      2202.2533      2797.7467      2.1116931e+08  0.5            13327400       4.1843546      5274.9493      10549.936      5.155725     
[...]
  27294400   296.01691     -0.21839162    -21657706       2.2045877      877.95834     -21656828       595.39938      595.39938      595.39938      2202.3003      2797.6997      2202.3003      2797.6997      2202.3003      2797.6997      2.1106933e+08  0.5            13649700       31.101765      4651.5845      9303.1771      1.1391802    
  27294600   301.46996     -6.7064027     -21657712       2.2044302      894.13156     -21656818       595.41356      595.41356      595.41356      2202.2932      2797.7068      2202.2932      2797.7068      2202.2932      2797.7068      2.1108442e+08  0.5            13649800       31.123244      4655.7685      9311.5314      1.1176856    
  27294800   297.07234      8.7331632     -21657719       2.2047897      881.08865     -21656838       595.3812       595.3812       595.3812       2202.3094      2797.6906      2202.3094      2797.6906      2202.3094      2797.6906      2.1105e+08     0.5            13649900       31.144788      4641.5709      9283.1406      1.0961935    
  27295000   290.88876     -4.6057827     -21657728       2.2044808      862.74873     -21656865       595.409        595.409        595.409        2202.2955      2797.7045      2202.2955      2797.7045      2202.2955      2797.7045      2.1107957e+08  0.5            13650000       31.166325      4643.2421      9286.4833      1.074701     
  27295200   305.51771      6.6333332     -21657736       2.2047452      906.13682     -21656830       595.38521      595.38521      595.38521      2202.3074      2797.6926      2202.3074      2797.6926      2202.3074      2797.6926      2.1105426e+08  0.5            13650100       31.187939      4626.6424      9253.2849      1.053211     
  27295400   290.73601     -5.8952984     -21657745       2.2044564      862.29566     -21656883       595.41121      595.41121      595.41121      2202.2944      2797.7056      2202.2944      2797.7056      2202.2944      2797.7056      2.1108191e+08  0.5            13650200       31.209505      4636.8769      9273.7542      1.0317193    
  27295600   316.87608      4.0867079     -21657755       2.2046833      939.82467     -21656815       595.39078      595.39078      595.39078      2202.3046      2797.6954      2202.3046      2797.6954      2202.3046      2797.6954      2.1106019e+08  0.5            13650300       31.231357      4576.2911      9152.5804      1.0102367    
  27295800   297.42831      5.9857574     -21657764       2.2047223      882.14442     -21656882       595.38727      595.38727      595.38727      2202.3064      2797.6936      2202.3064      2797.6936      2202.3064      2797.6936      2.1105645e+08  0.5            13650400       31.252852      4652.1778      9304.344       0.98874231   
  27296000   303.95253      1.7752648     -21657774       2.2046246      901.49462     -21656872       595.39606      595.39606      595.39606      2202.302       2797.698       2202.302       2797.698       2202.302       2797.698       2.110658e+08   0.5            13650500       31.274385      4644.0738      9288.1346      0.96724911   
  27296200   299.08637     -1.2381535     -21657782       2.2045575      887.06206     -21656895       595.4021       595.4021       595.4021       2202.2989      2797.7011      2202.2989      2797.7011      2202.2989      2797.7011      2.1107223e+08  0.5            13650600       31.29593       4641.4449      9282.9092      0.94575621   
  27296400   299.82968     -1.8213416     -21657790       2.204544       889.26664     -21656901       595.40332      595.40332      595.40332      2202.2983      2797.7017      2202.2983      2797.7017      2202.2983      2797.7017      2.1107352e+08  0.5            13650700       31.317518      4632.3018      9264.6315      0.92426449   
  27296600   296.58482      0.74631819    -21657798       2.2045983      879.64269     -21656918       595.39843      595.39843      595.39843      2202.3008      2797.6992      2202.3008      2797.6992      2202.3008      2797.6992      2.1106832e+08  0.5            13650800       31.339071      4639.6084      9279.2048      0.90277167   
  27296800   299.34174      3.0925025     -21657807       2.2046451      887.81945     -21656919       595.39422      595.39422      595.39422      2202.3029      2797.6971      2202.3029      2797.6971      2202.3029      2797.6971      2.1106384e+08  0.5            13650900       31.36079       4604.2585      9208.5076      0.88128341   
  27297000   301.17164      1.3740028     -21657817       2.2046008      893.24676     -21656924       595.39821      595.39821      595.39821      2202.3009      2797.6991      2202.3009      2797.6991      2202.3009      2797.6991      2.1106808e+08  0.5            13651000       31.382334      4641.6864      9283.3676      0.85979005   
  27297200   296.97161     -0.49481633    -21657828       2.2045598      880.78988     -21656948       595.4019       595.4019       595.4019       2202.2991      2797.7009      2202.2991      2797.7009      2202.2991      2797.7009      2.1107201e+08  0.5            13651100       31.403894      4638.3119      9276.6388      0.83829702   
  27297400   336.81891     -0.79538918    -21657840       2.2045604      998.97322     -21656841       595.40184      595.40184      595.40184      2202.2991      2797.7009      2202.2991      2797.7009      2202.2991      2797.7009      2.1107195e+08  0.5            13651200       31.425435      4642.218       9284.4002      0.81680344   
  27297600   299.15755     -0.70786904    -21657851       2.2045716      887.27318     -21656964       595.40083      595.40083      595.40083      2202.2996      2797.7004      2202.2996      2797.7004      2202.2996      2797.7004      2.1107087e+08  0.5            13651300       31.447033      4630.0939      9260.2264      0.79531122   
  27297800   299.1199      -0.62090648    -21657862       2.2045789      887.16151     -21656975       595.40017      595.40017      595.40017      2202.2999      2797.7001      2202.2999      2797.7001      2202.2999      2797.7001      2.1107018e+08  0.5            13651400       31.468545      4648.5803      9297.1577      0.77381674   
  27298000   302.76708     -0.68030132    -21657874       2.2045794      897.97871     -21656976       595.40013      595.40013      595.40013      2202.2999      2797.7001      2202.2999      2797.7001      2202.2999      2797.7001      2.1107013e+08  0.5            13651500       31.490088      4641.9885      9283.9602      0.75232297   
  27298200   296.80922     -0.92944963    -21657886       2.2045731      880.30825     -21657006       595.4007       595.4007       595.4007       2202.2997      2797.7003      2202.2997      2797.7003      2202.2997      2797.7003      2.1107073e+08  0.5            13651600       31.511676      4632.1245      9264.2499      0.73083019   
  27298400   303.32293     -1.0387168     -21657898       2.2045698      899.62729     -21656999       595.401        595.401        595.401        2202.2995      2797.7005      2202.2995      2797.7005      2202.2995      2797.7005      2.1107105e+08  0.5            13651700       31.533216      4642.4107      9284.8153      0.70933621   
  27298600   300.10538     -0.82049586    -21657908       2.2045802      890.08434     -21657018       595.40006      595.40006      595.40006      2202.3         2797.7         2202.3         2797.7         2202.3         2797.7         2.1107005e+08  0.5            13651800       31.554732      4647.7952      9295.574       0.68784162   
  27298800   299.90693     -0.81894196    -21657917       2.2045951      889.49577     -21657027       595.39872      595.39872      595.39872      2202.3006      2797.6994      2202.3006      2797.6994      2202.3006      2797.6994      2.1106863e+08  0.5            13651900       31.576295      4637.6136      9275.25        0.666348     
  27299000   286.87888     -1.6289372     -21657926       2.2045917      850.8558      -21657075       595.39903      595.39903      595.39903      2202.3005      2797.6995      2202.3005      2797.6995      2202.3005      2797.6995      2.1106895e+08  0.5            13652000       31.597865      4635.9979      9272.004       0.64485444   
  27299200   311.27568     -2.1560049     -21657935       2.2045839      923.2144      -21657012       595.39973      595.39973      595.39973      2202.3001      2797.6999      2202.3001      2797.6999      2202.3001      2797.6999      2.110697e+08   0.5            13652100       31.619361      4652.1436      9304.2933      0.6233593    
  27299400   296.6947       2.5681511     -21657944       2.2046844      879.96858     -21657064       595.39068      595.39068      595.39068      2202.3047      2797.6953      2202.3047      2797.6953      2202.3047      2797.6953      2.1106008e+08  0.5            13652200       31.640855      4652.3451      9304.7024      0.60186414   
  27299600   302.61         3.5969644     -21657954       2.2047007      897.51283     -21657056       595.38921      595.38921      595.38921      2202.3054      2797.6946      2202.3054      2797.6946      2202.3054      2797.6946      2.1105852e+08  0.5            13652300       31.662367      4648.5118      9296.9826      0.5803693    
  27299800   282.80036      5.7282654     -21658332       2.2047587      838.75927     -21657493       595.38399      595.38399      595.38399      2202.308       2797.692       2202.308       2797.692       2202.308       2797.692       2.1105297e+08  0.5            13652400       31.683864      4651.8314      9303.6844      0.55887418   
  27300000   307.60219     -0.95640653    -21658343       2.2046144      912.31918     -21657431       595.39698      595.39698      595.39698      2202.3015      2797.6985      2202.3015      2797.6985      2202.3015      2797.6985      2.1106678e+08  0.5            13652500       31.705341      4656.1988      9312.3864      0.5373787    
  27300200   295.8874      -0.24143541    -21658353       2.2046391      877.57421     -21657476       595.39475      595.39475      595.39475      2202.3026      2797.6974      2202.3026      2797.6974      2202.3026      2797.6974      2.1106441e+08  0.5            13652600       31.726838      4651.7442      9303.5         0.51588359   
  27300400   314.72798      4.7891835     -21658363       2.2047564      933.45361     -21657430       595.3842       595.3842       595.3842       2202.3079      2797.6921      2202.3079      2797.6921      2202.3079      2797.6921      2.1105319e+08  0.5            13652700       31.748569      4601.7992      9203.5912      0.49439211   
  27300600   301.69331     -5.3587979     -21658375       2.2045206      894.794       -21657480       595.40542      595.40542      595.40542      2202.2973      2797.7027      2202.2973      2797.7027      2202.2973      2797.7027      2.1107576e+08  0.5            13652800       31.770075      4649.85        9299.6953      0.47289696   
  27300800   298.43679      7.5992847     -21658388       2.2048278      885.13546     -21657502       595.37777      595.37777      595.37777      2202.3111      2797.6889      2202.3111      2797.6889      2202.3111      2797.6889      2.1104635e+08  0.5            13652900       31.791536      4659.5839      9319.1742      0.45140116   
  27301000   304.66533      4.5889959     -21658402       2.2047658      903.60874     -21657498       595.38335      595.38335      595.38335      2202.3083      2797.6917      2202.3083      2797.6917      2202.3083      2797.6917      2.1105229e+08  0.5            13653000       31.813199      4616.1733      9232.3491      0.42990813   
  27301200   291.6835      -4.7487724     -21658413       2.2045551      865.10583     -21657548       595.40232      595.40232      595.40232      2202.2988      2797.7012      2202.2988      2797.7012      2202.2988      2797.7012      2.1107246e+08  0.5            13653100       31.834718      4647.0954      9294.1938      0.40841302   
  27301400   312.97473     -4.8119223     -21658424       2.204553       928.25363     -21657496       595.40251      595.40251      595.40251      2202.2987      2797.7013      2202.2987      2797.7013      2202.2987      2797.7013      2.1107266e+08  0.5            13653200       31.856159      4663.873       9327.7195      0.38691695   
  27301600   299.0638       7.6282212     -21658435       2.204836       886.99511     -21657548       595.37703      595.37703      595.37703      2202.3115      2797.6885      2202.3115      2797.6885      2202.3115      2797.6885      2.1104556e+08  0.5            13653300       31.877678      4647.1146      9294.2681      0.36542183   
  27301800   301.02273      4.7709159     -21658448       2.2047622      892.80511     -21657555       595.38367      595.38367      595.38367      2202.3082      2797.6918      2202.3082      2797.6918      2202.3082      2797.6918      2.1105263e+08  0.5            13653400       31.89913       4661.6044      9323.1952      0.34392596   
  27302000   291.62294     -6.4211296     -21658459       2.2045023      864.92624     -21657594       595.40707      595.40707      595.40707      2202.2965      2797.7035      2202.2965      2797.7035      2202.2965      2797.7035      2.1107751e+08  0.5            13653500       31.920665      4643.5099      9287.0348      0.32243099   
  27302200   314.8692      -4.2660461     -21658471       2.204549       933.87246     -21657537       595.40286      595.40286      595.40286      2202.2986      2797.7014      2202.2986      2797.7014      2202.2986      2797.7014      2.1107304e+08  0.5            13653600       31.94219       4645.743       9291.4788      0.30093587   
  27302400   296.57839      6.7452092     -21658481       2.2047873      879.62362     -21657601       595.38142      595.38142      595.38142      2202.3093      2797.6907      2202.3093      2797.6907      2202.3093      2797.6907      2.1105023e+08  0.5            13653700       31.963679      4653.7044      9307.4187      0.27944039   
  27302600   304.77784      7.8265366     -21658490       2.2047983      903.94243     -21657586       595.38042      595.38042      595.38042      2202.3098      2797.6902      2202.3098      2797.6902      2202.3098      2797.6902      2.1104917e+08  0.5            13653800       31.985141      4659.332       9318.651       0.25794471   
  27302800   287.31294     -3.6150473     -21658502       2.2045366      852.14318     -21657650       595.40398      595.40398      595.40398      2202.298       2797.702       2202.298       2797.702       2202.298       2797.702       2.1107423e+08  0.5            13653900       32.006704      4637.6683      9275.3219      0.23644981   
  27303000   311.56653     -7.7796882     -21658514       2.2044514      924.07703     -21657590       595.41165      595.41165      595.41165      2202.2942      2797.7058      2202.2942      2797.7058      2202.2942      2797.7058      2.1108238e+08  0.5            13654000       32.028208      4650.1095      9300.2203      0.21495444   
  27303200   299.58688     -7.7198659     -21658526       2.2044622      888.54652     -21657637       595.41068      595.41068      595.41068      2202.2947      2797.7053      2202.2947      2797.7053      2202.2947      2797.7053      2.1108135e+08  0.5            13654100       32.049753      4641.6381      9283.2698      0.19345929   
  27303400   299.36775     -7.544195      -21658538       2.2044695      887.89661     -21657651       595.41002      595.41002      595.41002      2202.295       2797.705       2202.295       2797.705       2202.295       2797.705       2.1108065e+08  0.5            13654200       32.071259      4649.7352      9299.47        0.17196387   
  27303600   301.88726     -3.9445279     -21658552       2.2045511      895.36923     -21657657       595.40268      595.40268      595.40268      2202.2987      2797.7013      2202.2987      2797.7013      2202.2987      2797.7013      2.1107284e+08  0.5            13654300       32.092723      4658.9803      9317.9906      0.15046824   
  27303800   293.90406      4.6223226     -21658564       2.2047499      871.69181     -21657692       595.38478      595.38478      595.38478      2202.3076      2797.6924      2202.3076      2797.6924      2202.3076      2797.6924      2.1105381e+08  0.5            13654400       32.114265      4642.026       9284.0304      0.12897296   
  27304000   314.91778      8.4505184     -21658573       2.2048449      934.01655     -21657639       595.37623      595.37623      595.37623      2202.3119      2797.6881      2202.3119      2797.6881      2202.3119      2797.6881      2.1104472e+08  0.5            13654500       32.136059      4588.4089      9176.8212      0.10747847   
  27304200   295.40902      6.9481713     -21658583       2.2048156      876.15538     -21657707       595.37887      595.37887      595.37887      2202.3106      2797.6894      2202.3106      2797.6894      2202.3106      2797.6894      2.1104752e+08  0.5            13654600       32.157546      4654.049       9308.0762      0.08598275   
  27304400   306.8466       5.0125885     -21658592       2.2047715      910.07817     -21657682       595.38284      595.38284      595.38284      2202.3086      2797.6914      2202.3086      2797.6914      2202.3086      2797.6914      2.1105174e+08  0.5            13654700       32.179117      4635.9031      9271.8466      0.064487213  
  27304600   288.71182      6.8369476     -21658971       2.2048193      856.29212     -21658115       595.37853      595.37853      595.37853      2202.3107      2797.6893      2202.3107      2797.6893      2202.3107      2797.6893      2.1104716e+08  0.5            13654800       32.200562      4663.0721      9326.1446      0.042991408  
  27304800   305.93072      6.1114466     -21658984       2.2048072      907.36174     -21658076       595.37963      595.37963      595.37963      2202.3102      2797.6898      2202.3102      2797.6898      2202.3102      2797.6898      2.1104832e+08  0.5            13654900       32.222071      4649.2002      9298.4012      0.021495713  
  27305000   297.40024      2.5971151     -21658995       2.2047337      882.06116     -21658113       595.38624      595.38624      595.38624      2202.3069      2797.6931      2202.3069      2797.6931      2202.3069      2797.6931      2.1105536e+08  0.5            13655000       32.243961      4568.3574      9136.696       0            
Loop time of 32.244 on 4 procs for 300000 steps with 996 atoms

Performance: 401.935 ns/day, 0.060 hours/ns, 9304.061 timesteps/s
91.3% CPU use with 4 MPI tasks x no OpenMP threads

MPI task timing breakdown:
Section |  min time  |  avg time  |  max time  |%varavg| %total
---------------------------------------------------------------
Pair    | 12.68      | 14.545     | 15.74      |  30.8 | 45.11
Neigh   | 0.010342   | 0.012575   | 0.014325   |   1.3 |  0.04
Comm    | 9.8008     | 10.871     | 12.647     |  34.0 | 33.71
Output  | 0.042173   | 0.056935   | 0.095167   |   9.3 |  0.18
Modify  | 5.1212     | 5.226      | 5.4417     |   5.6 | 16.21
Other   |            | 1.533      |            |       |  4.75

Nlocal:            249 ave         269 max         214 min
Histogram: 1 0 0 0 0 1 0 0 0 2
Nghost:         870.25 ave         882 max         845 min
Histogram: 1 0 0 0 0 0 0 1 0 2
Neighs:         1703.5 ave        1874 max        1460 min
Histogram: 1 0 0 0 1 0 0 0 0 2

Total # of neighbors = 6814
Ave neighs/atom = 6.8413655
Neighbor list builds = 64
Dangerous builds = 0

# run_style
run_style verlet

# write restart
write_restart ${write_res}
write_restart ./pgnpmf/73/equpmf39.res
System init for write_restart ...
Generated 0 of 1 mixed pair_coeff terms from geometric mixing rule

Total wall time: 0:01:10
