LAMMPS (23 Jun 2022 - Update 1)
# Read restart
read_restart ${read_res}
read_restart ./pgnpmf/73/equpmf4.res
Reading restart file ...
  restart file = 23 Jun 2022, LAMMPS = 23 Jun 2022
  restoring atom style atomic from restart
  orthogonal box = (1777.8911 1777.8911 1777.8911) to (3222.1089 3222.1089 3222.1089)
  1 by 2 by 2 MPI processor grid
  restoring pair style table from restart
  996 atoms
  read_restart CPU = 0.004 seconds

# Settings

pair_style table spline 9941

pair_coeff 1 1 ./pgnpmf/N20.txt DE_GNP 75.6
pair_coeff 2 2 ./pgnpmf/N100.txt DE_GNP 115.92
WARNING: 3 of 9941 force values in table DE_GNP are inconsistent with -dE/dr.
WARNING:  Should only be flagged at inflection points (../pair_table.cpp:463)
pair_coeff 1 2 ./pgnpmf/mixed_potential.txt DE_GNP 95.66
WARNING: 1562 of 9941 force values in table DE_GNP are inconsistent with -dE/dr.
WARNING:  Should only be flagged at inflection points (../pair_table.cpp:463)

#Neigh_list Calc Frequency

neigh_modify delay 0 every 1 check yes

# Saving Frequency (50 frames)

variable ts_save equal ${steps_equ}
variable ts_save equal 5000

# Dump
#dump 1 all custom ${ts_save} ./pgnpmf/${folder}/equilibration/trajectory/trajectory_${usic}_${trial}.equ.custom type x y z ix iy iz
#dump_modify 1 first no sort id
#dump 2 all cfg 50000 ./equilibration/trajectory/ovito/dumpgen.tens_*.cfg mass type xs ys zs fx fy fz

# thermo_style
thermo_style custom step temp press pe density ke etotal lx ly lz xlo xhi ylo yhi zlo zhi vol dt time cpu tpcpu spcpu cpuremain

# run info
timestep ${ts}
timestep 0.5
thermo 200

# fix

fix 1 all momentum 1000 linear 1 1 1 angular
variable T equal ${temp}
variable T equal 300
fix 2 all nvt temp ${T} 370000 100.0
fix 2 all nvt temp 300 370000 100.0

run 100000
Generated 0 of 1 mixed pair_coeff terms from geometric mixing rule
Unused restart file global fix info:
  fix style: npt, fix ID: 5
Neighbor list info ...
  update every 1 steps, delay 0 steps, check yes
  max neighbors/atom: 2000, page size: 100000
  master list distance cutoff = 117.92
  ghost atom cutoff = 117.92
  binsize = 58.96, bins = 25 25 25
  1 neighbor lists, perpetual/occasional/extra = 1 0 0
  (1) pair table, perpetual
      attributes: half, newton on
      pair build: half/bin/atomonly/newton
      stencil: half/bin/3d
      bin: standard
Per MPI rank memory allocation (min/avg/max) = 3.098 | 3.098 | 3.098 Mbytes
   Step          Temp          Press          PotEng        Density         KinEng         TotEng           Lx             Ly             Lz            Xlo            Xhi            Ylo            Yhi            Zlo            Zhi           Volume           Dt            Time           CPU           T/CPU          S/CPU         CPULeft    
   2805000   309.58845      0.9675895     -2644103.1      0.15447365     918.21025     -2643184.9      1444.2178      1444.2178      1444.2178      1777.8911      3222.1089      1777.8911      3222.1089      1777.8911      3222.1089      3.0122992e+09  0.5            1405000        0              0              0              0            
   2805200   407.53724      0.78789902    -2644226.2      0.15447365     1208.7171     -2643017.4      1444.2178      1444.2178      1444.2178      1777.8911      3222.1089      1777.8911      3222.1089      1777.8911      3222.1089      3.0122992e+09  0.5            1405100        0.00610886     16367.59       32730.257      3.0496126    
   2805400   615.47306      0.56846686    -2644369.4      0.15447365     1825.4352     -2642544        1444.2178      1444.2178      1444.2178      1777.8911      3222.1089      1777.8911      3222.1089      1777.8911      3222.1089      3.0122992e+09  0.5            1405200        0.01223176     16332.557      32665.359      3.0462934    
   2805600   965.76111      0.27736787    -2644544        0.15447365     2864.3567     -2641679.6      1444.2178      1444.2178      1444.2178      1777.8911      3222.1089      1777.8911      3222.1089      1777.8911      3222.1089      3.0122992e+09  0.5            1405300        0.018301619    16475.018      32950.232      3.0323267    
   2805800   1521.9947     -0.043632667   -2644757        0.15447365     4514.0931     -2640242.9      1444.2178      1444.2178      1444.2178      1777.8911      3222.1089      1777.8911      3222.1089      1777.8911      3222.1089      3.0122992e+09  0.5            1405400        0.024404587    16385.658      32771.16       3.0264399    
   2806000   2356.8676     -0.42351872    -2645013        0.15447365     6990.2478     -2638022.7      1444.2178      1444.2178      1444.2178      1777.8911      3222.1089      1777.8911      3222.1089      1777.8911      3222.1089      3.0122992e+09  0.5            1405500        0.03055532     16257.939      32515.873      3.0252014    
   2806200   3513.3803     -0.79799906    -2647211.9      0.15447365     10420.356     -2636791.5      1444.2178      1444.2178      1444.2178      1777.8911      3222.1089      1777.8911      3222.1089      1777.8911      3222.1089      3.0122992e+09  0.5            1405600        0.03665793     16386.523      32773.083      3.0183487    
   2806400   4921.939      -1.1592209     -2647926.2      0.15447365     14598.008     -2633328.2      1444.2178      1444.2178      1444.2178      1777.8911      3222.1089      1777.8911      3222.1089      1777.8911      3222.1089      3.0122992e+09  0.5            1405700        0.042757378    16394.883      32789.761      3.0114949    
   2806600   6315.8172     -1.4645735     -2648310.8      0.15447365     18732.12      -2629578.7      1444.2178      1444.2178      1444.2178      1777.8911      3222.1089      1777.8911      3222.1089      1777.8911      3222.1089      3.0122992e+09  0.5            1405800        0.048833259    16458.578      32917.227      3.0033806    
   2806800   7270.7081     -1.7957703     -2648711.8      0.15447365     21564.237     -2627147.6      1444.2178      1444.2178      1444.2178      1777.8911      3222.1089      1777.8911      3222.1089      1777.8911      3222.1089      3.0122992e+09  0.5            1405900        0.054860549    16591.24       33182.634      2.993066     
   2807000   7666.182      -2.2402752     -2649099        0.15447365     22737.175     -2626361.8      1444.2178      1444.2178      1444.2178      1777.8911      3222.1089      1777.8911      3222.1089      1777.8911      3222.1089      3.0122992e+09  0.5            1406000        0.060988455    16307.531      32615.047      2.9887472    
   2807200   8109.473      -2.7661005     -2649464.6      0.15447365     24051.935     -2625412.6      1444.2178      1444.2178      1444.2178      1777.8911      3222.1089      1777.8911      3222.1089      1777.8911      3222.1089      3.0122992e+09  0.5            1406100        0.067401208    15603.896      31207.553      2.9963929    
   2807400   9081.4319     -3.4726233     -2649797        0.15447365     26934.673     -2622862.3      1444.2178      1444.2178      1444.2178      1777.8911      3222.1089      1777.8911      3222.1089      1777.8911      3222.1089      3.0122992e+09  0.5            1406200        0.073576418    16194.036      32388.139      2.9921971    
   2807600   10163.032     -4.3930631     -2650470.1      0.15447365     30142.598     -2620327.5      1444.2178      1444.2178      1444.2178      1777.8911      3222.1089      1777.8911      3222.1089      1777.8911      3222.1089      3.0122992e+09  0.5            1406300        0.079668205    16415.752      32831.574      2.9845729    
   2807800   10800.235     -5.254229      -2650726.5      0.15447365     32032.48      -2618694        1444.2178      1444.2178      1444.2178      1777.8911      3222.1089      1777.8911      3222.1089      1777.8911      3222.1089      3.0122992e+09  0.5            1406400        0.085748375    16446.757      32893.601      2.9767689    
   2808000   11183.47      -5.7586679     -2650930.4      0.15447365     33169.12      -2617761.2      1444.2178      1444.2178      1444.2178      1777.8911      3222.1089      1777.8911      3222.1089      1777.8911      3222.1089      3.0122992e+09  0.5            1406500        0.091876457    16318.343      32636.474      2.9707462    
   2808200   11914.71      -6.1969877     -2651087.4      0.15447365     35337.91      -2615749.5      1444.2178      1444.2178      1444.2178      1777.8911      3222.1089      1777.8911      3222.1089      1777.8911      3222.1089      3.0122992e+09  0.5            1406600        0.098286738    15599.913      31200.065      2.9732381    
   2808400   12999.683     -6.6141502     -2651213.1      0.15447365     38555.839     -2612657.3      1444.2178      1444.2178      1444.2178      1777.8911      3222.1089      1777.8911      3222.1089      1777.8911      3222.1089      3.0122992e+09  0.5            1406700        0.10466886     15668.794      31337.549      2.9738885    
   2808600   13850.419     -7.2288585     -2651291.2      0.15447365     41079.042     -2610212.1      1444.2178      1444.2178      1444.2178      1777.8911      3222.1089      1777.8911      3222.1089      1777.8911      3222.1089      3.0122992e+09  0.5            1406800        0.11078626     16346.934      32693.858      2.9666672    
   2808800   14287.9       -7.8046309     -2651304.6      0.15447365     42376.567     -2608928        1444.2178      1444.2178      1444.2178      1777.8911      3222.1089      1777.8911      3222.1089      1777.8911      3222.1089      3.0122992e+09  0.5            1406900        0.11687677     16419.021      32838.048      2.9588808    
   2809000   14824.88      -8.4546039     -2651257.4      0.15447365     43969.2       -2607288.2      1444.2178      1444.2178      1444.2178      1777.8911      3222.1089      1777.8911      3222.1089      1777.8911      3222.1089      3.0122992e+09  0.5            1407000        0.12301812     16282.983      32565.727      2.9524879    
   2809200   15801.851     -9.0233888     -2651525.8      0.15447365     46866.806     -2604659        1444.2178      1444.2178      1444.2178      1777.8911      3222.1089      1777.8911      3222.1089      1777.8911      3222.1089      3.0122992e+09  0.5            1407100        0.12909629     16452.502      32905.22       2.9446725    
   2809400   16805.441     -9.3368519     -2651357.6      0.15447365     49843.358     -2601514.3      1444.2178      1444.2178      1444.2178      1777.8911      3222.1089      1777.8911      3222.1089      1777.8911      3222.1089      3.0122992e+09  0.5            1407200        0.13533115     16038.662      32077.479      2.940423     
   2809600   17403.743     -9.7496437     -2651147.7      0.15447365     51617.865     -2599529.8      1444.2178      1444.2178      1444.2178      1777.8911      3222.1089      1777.8911      3222.1089      1777.8911      3222.1089      3.0122992e+09  0.5            1407300        0.14144779     16348.997      32697.845      2.9335478    
   2809800   17839.577     -10.258225     -2650885.8      0.15447365     52910.508     -2597975.3      1444.2178      1444.2178      1444.2178      1777.8911      3222.1089      1777.8911      3222.1089      1777.8911      3222.1089      3.0122992e+09  0.5            1407400        0.14753814     16419.447      32838.943      2.9262135    
   2810000   18625.925     -10.832062     -2650578.4      0.15447365     55242.743     -2595335.6      1444.2178      1444.2178      1444.2178      1777.8911      3222.1089      1777.8911      3222.1089      1777.8911      3222.1089      3.0122992e+09  0.5            1407500        0.15373786     16129.74       32259.407      2.9210589    
   2810200   19677.5       -11.275019     -2650231        0.15447365     58361.616     -2591869.4      1444.2178      1444.2178      1444.2178      1777.8911      3222.1089      1777.8911      3222.1089      1777.8911      3222.1089      3.0122992e+09  0.5            1407600        0.15984237     16381.422      32763.129      2.9140863    
   2810400   20470.457     -11.789753     -2649851.1      0.15447365     60713.451     -2589137.6      1444.2178      1444.2178      1444.2178      1777.8911      3222.1089      1777.8911      3222.1089      1777.8911      3222.1089      3.0122992e+09  0.5            1407700        0.16589894     16510.922      33021.68       2.9063394    
   2810600   20930.202     -12.178406     -2649464.7      0.15447365     62077.011     -2587387.7      1444.2178      1444.2178      1444.2178      1777.8911      3222.1089      1777.8911      3222.1089      1777.8911      3222.1089      3.0122992e+09  0.5            1407800        0.17210417     16115.386      32230.939      2.901219     
   2810800   21538.43      -12.542719     -2649097.3      0.15447365     63880.957     -2585216.4      1444.2178      1444.2178      1444.2178      1777.8911      3222.1089      1777.8911      3222.1089      1777.8911      3222.1089      3.0122992e+09  0.5            1407900        0.17818843     16435.998      32871.705      2.8940586    
   2811000   22517.49      -12.722115     -2649122.9      0.15447365     66784.76      -2582338.1      1444.2178      1444.2178      1444.2178      1777.8911      3222.1089      1777.8911      3222.1089      1777.8911      3222.1089      3.0122992e+09  0.5            1408000        0.18432357     16299.533      32599.088      2.8877684    
   2811200   23466.165     -13.007825     -2648825.9      0.15447365     69598.441     -2579227.5      1444.2178      1444.2178      1444.2178      1777.8911      3222.1089      1777.8911      3222.1089      1777.8911      3222.1089      3.0122992e+09  0.5            1408100        0.19056127     16031.488      32063.275      2.8830379    
   2811400   24038.616     -13.363222     -2648590        0.15447365     71296.275     -2577293.7      1444.2178      1444.2178      1444.2178      1777.8911      3222.1089      1777.8911      3222.1089      1777.8911      3222.1089      3.0122992e+09  0.5            1408200        0.19663221     16471.99       32943.296      2.875777     
   2811600   24519.535     -13.701159     -2648421.6      0.15447365     72722.635     -2575698.9      1444.2178      1444.2178      1444.2178      1777.8911      3222.1089      1777.8911      3222.1089      1777.8911      3222.1089      3.0122992e+09  0.5            1408300        0.20286642     16040.35       32081.194      2.8708962    
   2811800   25355.586     -14.06509      -2650605.6      0.15447365     75202.284     -2575403.3      1444.2178      1444.2178      1444.2178      1777.8911      3222.1089      1777.8911      3222.1089      1777.8911      3222.1089      3.0122992e+09  0.5            1408400        0.20897939     16358.818      32717.385      2.8642758    
   2812000   26389.292     -14.307119     -2650618.3      0.15447365     78268.159     -2572350.1      1444.2178      1444.2178      1444.2178      1777.8911      3222.1089      1777.8911      3222.1089      1777.8911      3222.1089      3.0122992e+09  0.5            1408500        0.21510682     16319.949      32639.813      2.8578765    
   2812200   27124.136     -14.501442     -2650729.1      0.15447365     80447.637     -2570281.4      1444.2178      1444.2178      1444.2178      1777.8911      3222.1089      1777.8911      3222.1089      1777.8911      3222.1089      3.0122992e+09  0.5            1408600        0.22127907     16201.487      32403.499      2.8520674    
   2812400   27559.032     -14.760535     -2650932.5      0.15447365     81737.499     -2569195        1444.2178      1444.2178      1444.2178      1777.8911      3222.1089      1777.8911      3222.1089      1777.8911      3222.1089      3.0122992e+09  0.5            1408700        0.22744987     16205.407      32410.693      2.846222     
   2812600   28205.893     -14.97817      -2651220.2      0.15447365     83656.026     -2567564.2      1444.2178      1444.2178      1444.2178      1777.8911      3222.1089      1777.8911      3222.1089      1777.8911      3222.1089      3.0122992e+09  0.5            1408800        0.2337344      15912.094      31824.208      2.841743     
   2812800   29230.749     -15.098594     -2651582.2      0.15447365     86695.653     -2564886.6      1444.2178      1444.2178      1444.2178      1777.8911      3222.1089      1777.8911      3222.1089      1777.8911      3222.1089      3.0122992e+09  0.5            1408900        0.23987507     16284.828      32569.662      2.8354709    
   2813000   30153.079     -15.280176     -2652377.5      0.15447365     89431.199     -2562946.3      1444.2178      1444.2178      1444.2178      1777.8911      3222.1089      1777.8911      3222.1089      1777.8911      3222.1089      3.0122992e+09  0.5            1409000        0.2460005      16325.361      32650.407      2.8290303    
   2813200   30646.029     -15.366823     -2652841.2      0.15447365     90893.242     -2561947.9      1444.2178      1444.2178      1444.2178      1777.8911      3222.1089      1777.8911      3222.1089      1777.8911      3222.1089      3.0122992e+09  0.5            1409100        0.25219494     16143.799      32287.477      2.8233764    
   2813400   31106.73      -15.425731     -2653312.9      0.15447365     92259.637     -2561053.3      1444.2178      1444.2178      1444.2178      1777.8911      3222.1089      1777.8911      3222.1089      1777.8911      3222.1089      3.0122992e+09  0.5            1409200        0.25843335     16029.417      32059.168      2.8181774    
   2813600   32015.84      -15.473864     -2653791.4      0.15447365     94955.972     -2558835.5      1444.2178      1444.2178      1444.2178      1777.8911      3222.1089      1777.8911      3222.1089      1777.8911      3222.1089      3.0122992e+09  0.5            1409300        0.26453952     16377.114      32754.217      2.8115228    
   2813800   33096.847     -15.496766     -2654618.6      0.15447365     98162.137     -2556456.4      1444.2178      1444.2178      1444.2178      1777.8911      3222.1089      1777.8911      3222.1089      1777.8911      3222.1089      3.0122992e+09  0.5            1409400        0.27067891     16288.165      32576.16       2.8052397    
   2814000   33759.885     -15.548172     -2655398.2      0.15447365     100128.65     -2555269.5      1444.2178      1444.2178      1444.2178      1777.8911      3222.1089      1777.8911      3222.1089      1777.8911      3222.1089      3.0122992e+09  0.5            1409500        0.27688481     16113.771      32227.739      2.7996337    
   2814200   34113.71      -15.399499     -2657647.8      0.15447365     101178.06     -2556469.8      1444.2178      1444.2178      1444.2178      1777.8911      3222.1089      1777.8911      3222.1089      1777.8911      3222.1089      3.0122992e+09  0.5            1409600        0.28324591     15720.391      31440.831      2.7955341    
   2814400   34804.473     -15.252522     -2665291.1      0.15447365     103226.8      -2562064.3      1444.2178      1444.2178      1444.2178      1777.8911      3222.1089      1777.8911      3222.1089      1777.8911      3222.1089      3.0122992e+09  0.5            1409700        0.28937111     16326.171      32652.144      2.7890648    
   2814600   35941.687     -15.028621     -2665490.2      0.15447365     106599.66     -2558890.6      1444.2178      1444.2178      1444.2178      1777.8911      3222.1089      1777.8911      3222.1089      1777.8911      3222.1089      3.0122992e+09  0.5            1409800        0.29564824     15930.715      31861.634      2.7840403    
   2814800   36855.396     -14.731801     -2665613.4      0.15447365     109309.64     -2556303.8      1444.2178      1444.2178      1444.2178      1777.8911      3222.1089      1777.8911      3222.1089      1777.8911      3222.1089      3.0122992e+09  0.5            1409900        0.30176486     16348.976      32697.733      2.7774877    
   2815000   37237.474     -14.50763      -2665651.3      0.15447365     110442.85     -2555208.4      1444.2178      1444.2178      1444.2178      1777.8911      3222.1089      1777.8911      3222.1089      1777.8911      3222.1089      3.0122992e+09  0.5            1410000        0.30819913     15541.655      31083.243      2.7738115    
   2815200   37691.503     -14.185928     -2665633        0.15447365     111789.46     -2553843.6      1444.2178      1444.2178      1444.2178      1777.8911      3222.1089      1777.8911      3222.1089      1777.8911      3222.1089      3.0122992e+09  0.5            1410100        0.31439147     16149.013      32298.318      2.7678967    
   2815400   38730.693     -13.77538      -2665576.6      0.15447365     114871.59     -2550705        1444.2178      1444.2178      1444.2178      1777.8911      3222.1089      1777.8911      3222.1089      1777.8911      3222.1089      3.0122992e+09  0.5            1410200        0.3205733      16176.471      32352.869      2.7618804    
   2815600   39861.203     -13.368576     -2667380.4      0.15447365     118224.58     -2549155.8      1444.2178      1444.2178      1444.2178      1777.8911      3222.1089      1777.8911      3222.1089      1777.8911      3222.1089      3.0122992e+09  0.5            1410300        0.32704004     15463.68       30926.887      2.758262     
   2815800   40425.295     -12.910629     -2667278.6      0.15447365     119897.62     -2547381        1444.2178      1444.2178      1444.2178      1777.8911      3222.1089      1777.8911      3222.1089      1777.8911      3222.1089      3.0122992e+09  0.5            1410400        0.33320917     16209.788      32420.071      2.7520776    
   2816000   40704.318     -12.520167     -2667173.8      0.15447365     120725.18     -2546448.7      1444.2178      1444.2178      1444.2178      1777.8911      3222.1089      1777.8911      3222.1089      1777.8911      3222.1089      3.0122992e+09  0.5            1410500        0.33937137     16228.06       32455.841      2.74584      
   2816200   41517.666     -12.119457     -2667107.9      0.15447365     123137.49     -2543970.4      1444.2178      1444.2178      1444.2178      1777.8911      3222.1089      1777.8911      3222.1089      1777.8911      3222.1089      3.0122992e+09  0.5            1410600        0.3455286      16241.077      32482.429      2.7395643    
   2816400   42792.056     -11.565861     -2674457        0.15447365     126917.22     -2547539.8      1444.2178      1444.2178      1444.2178      1777.8911      3222.1089      1777.8911      3222.1089      1777.8911      3222.1089      3.0122992e+09  0.5            1410700        0.3519115      15666.617      31333.003      2.7350481    
   2816600   43618.769     -10.952636     -2674462.2      0.15447365     129369.17     -2545093.1      1444.2178      1444.2178      1444.2178      1777.8911      3222.1089      1777.8911      3222.1089      1777.8911      3222.1089      3.0122992e+09  0.5            1410800        0.35811241     16126.816      32253.554      2.7290806    
   2816800   43825.729     -10.278418     -2674512.9      0.15447365     129982.99     -2544529.9      1444.2178      1444.2178      1444.2178      1777.8911      3222.1089      1777.8911      3222.1089      1777.8911      3222.1089      3.0122992e+09  0.5            1410900        0.3643476      16038.001      32076.64       2.7233592    
   2817000   44325.152     -9.5274741     -2674589.6      0.15447365     131464.23     -2543125.4      1444.2178      1444.2178      1444.2178      1777.8911      3222.1089      1777.8911      3222.1089      1777.8911      3222.1089      3.0122992e+09  0.5            1411000        0.37076984     15570.741      31141.128      2.7189948    
   2817200   45988.077     -8.7754216     -2674697.3      0.15447365     136396.31     -2538301        1444.2178      1444.2178      1444.2178      1777.8911      3222.1089      1777.8911      3222.1089      1777.8911      3222.1089      3.0122992e+09  0.5            1411100        0.37697594     16113.462      32226.727      2.713006     
   2817400   47315.658     -8.0230874     -2674823.3      0.15447365     140333.79     -2534489.5      1444.2178      1444.2178      1444.2178      1777.8911      3222.1089      1777.8911      3222.1089      1777.8911      3222.1089      3.0122992e+09  0.5            1411200        0.38318744     16099.189      32198.679      2.7070481    
   2817600   46521.202     -7.2815373     -2674929.8      0.15447365     137977.51     -2536952.3      1444.2178      1444.2178      1444.2178      1777.8911      3222.1089      1777.8911      3222.1089      1777.8911      3222.1089      3.0122992e+09  0.5            1411300        0.38956303     15684.786      31369.228      2.7022218    
   2817800   44635.468     -6.5726188     -2675015.2      0.15447365     132384.6      -2542630.6      1444.2178      1444.2178      1444.2178      1777.8911      3222.1089      1777.8911      3222.1089      1777.8911      3222.1089      3.0122992e+09  0.5            1411400        0.39576264     16129.969      32260.307      2.6961469    
   2818000   47343.788     -5.5885431     -2675074.9      0.15447365     140417.22     -2534657.7      1444.2178      1444.2178      1444.2178      1777.8911      3222.1089      1777.8911      3222.1089      1777.8911      3222.1089      3.0122992e+09  0.5            1411500        0.40201547     15992.766      31985.404      2.6904255    
   2818200   49221.119     -4.7190484     -2675076.1      0.15447365     145985.21     -2529090.9      1444.2178      1444.2178      1444.2178      1777.8911      3222.1089      1777.8911      3222.1089      1777.8911      3222.1089      3.0122992e+09  0.5            1411600        0.40836197     15756.731      31513.398      2.6853031    
   2818400   49940.464     -3.8524153     -2675001.4      0.15447365     148118.72     -2526882.6      1444.2178      1444.2178      1444.2178      1777.8911      3222.1089      1777.8911      3222.1089      1777.8911      3222.1089      3.0122992e+09  0.5            1411700        0.41459421     16045.672      32091.365      2.6794055    
   2818600   50696.581     -2.8584021     -2674830.2      0.15447365     150361.29     -2524468.9      1444.2178      1444.2178      1444.2178      1777.8911      3222.1089      1777.8911      3222.1089      1777.8911      3222.1089      3.0122992e+09  0.5            1411800        0.42083094     16033.989      32067.984      2.6735276    
   2818800   52154.704     -1.7241824     -2674519.7      0.15447365     154685.95     -2519833.7      1444.2178      1444.2178      1444.2178      1777.8911      3222.1089      1777.8911      3222.1089      1777.8911      3222.1089      3.0122992e+09  0.5            1411900        0.42718019     15749.894      31499.734      2.6683415    
   2819000   53644.887     -0.67977415    -2674065.9      0.15447365     159105.69     -2514960.2      1444.2178      1444.2178      1444.2178      1777.8911      3222.1089      1777.8911      3222.1089      1777.8911      3222.1089      3.0122992e+09  0.5            1412000        0.4333629      16174.048      32348.222      2.6620993    
   2819200   52848.213      0.22573773    -2673483.9      0.15447365     156742.83     -2516741        1444.2178      1444.2178      1444.2178      1777.8911      3222.1089      1777.8911      3222.1089      1777.8911      3222.1089      3.0122992e+09  0.5            1412100        0.43956538     16122.815      32245.692      2.6559775    
   2819400   50647.54       1.0293769     -2672816.2      0.15447365     150215.84     -2522600.3      1444.2178      1444.2178      1444.2178      1777.8911      3222.1089      1777.8911      3222.1089      1777.8911      3222.1089      3.0122992e+09  0.5            1412200        0.44588279     15829.014      31657.882      2.6505382    
   2819600   53065.456      2.0173681     -2673982.5      0.15447365     157387.15     -2516595.3      1444.2178      1444.2178      1444.2178      1777.8911      3222.1089      1777.8911      3222.1089      1777.8911      3222.1089      3.0122992e+09  0.5            1412300        0.4520512      16211.73       32423.655      2.6442022    
   2819800   55151.348      3.0061796     -2673560        0.15447365     163573.71     -2509986.3      1444.2178      1444.2178      1444.2178      1777.8911      3222.1089      1777.8911      3222.1089      1777.8911      3222.1089      3.0122992e+09  0.5            1412400        0.45817561     16328.138      32656.122      2.6376175    
   2820000   55677.63       3.8961951     -2672738.5      0.15447365     165134.62     -2507603.9      1444.2178      1444.2178      1444.2178      1777.8911      3222.1089      1777.8911      3222.1089      1777.8911      3222.1089      3.0122992e+09  0.5            1412500        0.46445815     15917.071      31834.218      2.6319415    
   2820200   56598.621      4.7819391     -2673804.5      0.15447365     167866.19     -2505938.3      1444.2178      1444.2178      1444.2178      1777.8911      3222.1089      1777.8911      3222.1089      1777.8911      3222.1089      3.0122992e+09  0.5            1412600        0.4706708      16096.168      32192.48       2.6258592    
   2820400   58519.151      5.7537895     -2673010.7      0.15447365     173562.3      -2499448.4      1444.2178      1444.2178      1444.2178      1777.8911      3222.1089      1777.8911      3222.1089      1777.8911      3222.1089      3.0122992e+09  0.5            1412700        0.47699506     15812.204      31624.208      2.6203868    
   2820600   59811.354      6.7407072     -2672231        0.15447365     177394.85     -2494836.2      1444.2178      1444.2178      1444.2178      1777.8911      3222.1089      1777.8911      3222.1089      1777.8911      3222.1089      3.0122992e+09  0.5            1412800        0.48321136     16086.82       32173.381      2.6143087    
   2820800   57880.619      7.4142187     -2671518.1      0.15447365     171668.47     -2499849.6      1444.2178      1444.2178      1444.2178      1777.8911      3222.1089      1777.8911      3222.1089      1777.8911      3222.1089      3.0122992e+09  0.5            1412900        0.48951517     15863.369      31726.94       2.6086932    
   2821000   55998.39       8.0935501     -2672804.5      0.15447365     166085.96     -2506718.5      1444.2178      1444.2178      1444.2178      1777.8911      3222.1089      1777.8911      3222.1089      1777.8911      3222.1089      3.0122992e+09  0.5            1413000        0.49572101     16113.802      32227.713      2.6025463    
   2821200   59508.454      9.0200787     -2679682.6      0.15447365     176496.48     -2503186.1      1444.2178      1444.2178      1444.2178      1777.8911      3222.1089      1777.8911      3222.1089      1777.8911      3222.1089      3.0122992e+09  0.5            1413100        0.5019284      16109.799      32219.837      2.5964056    
   2821400   61129.346      9.8652239     -2679269        0.15447365     181303.89     -2497965.1      1444.2178      1444.2178      1444.2178      1777.8911      3222.1089      1777.8911      3222.1089      1777.8911      3222.1089      3.0122992e+09  0.5            1413200        0.50831303     15662.568      31324.935      2.5911672    
   2821600   61708.009      10.607192     -2678930.1      0.15447365     183020.15     -2495909.9      1444.2178      1444.2178      1444.2178      1777.8911      3222.1089      1777.8911      3222.1089      1777.8911      3222.1089      3.0122992e+09  0.5            1413300        0.51445873     16271.77       32543.084      2.5847008    
   2821800   62596.241      11.409103     -2678652.1      0.15447365     185654.57     -2492997.5      1444.2178      1444.2178      1444.2178      1777.8911      3222.1089      1777.8911      3222.1089      1777.8911      3222.1089      3.0122992e+09  0.5            1413400        0.520648       16156.736      32313.649      2.578458     
   2822000   64694.731      12.162015     -2678421.5      0.15447365     191878.49     -2486543        1444.2178      1444.2178      1444.2178      1777.8911      3222.1089      1777.8911      3222.1089      1777.8911      3222.1089      3.0122992e+09  0.5            1413500        0.52697811     15797.746      31595.442      2.5729033    
   2822200   65884.535      12.807846     -2685569.6      0.15447365     195407.34     -2490162.2      1444.2178      1444.2178      1444.2178      1777.8911      3222.1089      1777.8911      3222.1089      1777.8911      3222.1089      3.0122992e+09  0.5            1413600        0.53334041     15717.446      31435.025      2.5674859    
   2822400   63014.937      13.364689     -2685333.7      0.15447365     186896.38     -2498437.3      1444.2178      1444.2178      1444.2178      1777.8911      3222.1089      1777.8911      3222.1089      1777.8911      3222.1089      3.0122992e+09  0.5            1413700        0.53956075     16076.387      32152.831      2.5613729    
   2822600   61947.004      13.944184     -2685105.9      0.15447365     183728.99     -2501376.9      1444.2178      1444.2178      1444.2178      1777.8911      3222.1089      1777.8911      3222.1089      1777.8911      3222.1089      3.0122992e+09  0.5            1413800        0.54584508     15912.547      31825.14       2.5555573    
   2822800   65962.517      14.707448     -2684853.5      0.15447365     195638.62     -2489214.8      1444.2178      1444.2178      1444.2178      1777.8911      3222.1089      1777.8911      3222.1089      1777.8911      3222.1089      3.0122992e+09  0.5            1413900        0.55212755     15917.309      31834.679      2.5497222    
   2823000   66983.166      15.364808     -2684550.9      0.15447365     198665.77     -2485885.2      1444.2178      1444.2178      1444.2178      1777.8911      3222.1089      1777.8911      3222.1089      1777.8911      3222.1089      3.0122992e+09  0.5            1414000        0.55835414     16060.16       32120.346      2.5436228    
   2823200   67335.591      15.945709     -2684157.8      0.15447365     199711.03     -2484446.8      1444.2178      1444.2178      1444.2178      1777.8911      3222.1089      1777.8911      3222.1089      1777.8911      3222.1089      3.0122992e+09  0.5            1414100        0.56460359     16001.362      32002.852      2.5376227    
   2823400   68590.757      16.579087     -2683690.5      0.15447365     203433.74     -2480256.8      1444.2178      1444.2178      1444.2178      1777.8911      3222.1089      1777.8911      3222.1089      1777.8911      3222.1089      3.0122992e+09  0.5            1414200        0.57082955     16061.881      32123.828      2.5315138    
   2823600   71153.645      17.212464     -2683130.3      0.15447365     211035.02     -2472095.3      1444.2178      1444.2178      1444.2178      1777.8911      3222.1089      1777.8911      3222.1089      1777.8911      3222.1089      3.0122992e+09  0.5            1414300        0.57717862     15750.175      31499.788      2.5259418    
   2823800   71550.014      17.674562     -2682492.6      0.15447365     212210.62     -2470282        1444.2178      1444.2178      1444.2178      1777.8911      3222.1089      1777.8911      3222.1089      1777.8911      3222.1089      3.0122992e+09  0.5            1414400        0.58334384     16220.14       32440.495      2.5195579    
   2824000   67469.537      17.973385     -2681808        0.15447365     200108.3      -2481699.7      1444.2178      1444.2178      1444.2178      1777.8911      3222.1089      1777.8911      3222.1089      1777.8911      3222.1089      3.0122992e+09  0.5            1414500        0.58955811     16091.876      32183.705      2.5133886    
   2824200   67917.549      18.385674     -2681138.1      0.15447365     201437.07     -2479701        1444.2178      1444.2178      1444.2178      1777.8911      3222.1089      1777.8911      3222.1089      1777.8911      3222.1089      3.0122992e+09  0.5            1414600        0.59595165     15640.819      31281.839      2.507972     
   2824400   71661.767      18.880762     -2680490.8      0.15447365     212542.06     -2467948.7      1444.2178      1444.2178      1444.2178      1777.8911      3222.1089      1777.8911      3222.1089      1777.8911      3222.1089      3.0122992e+09  0.5            1414700        0.60218796     16035.239      32070.55       2.5018822    
   2824600   72771.725      19.263767     -2679878        0.15447365     215834.09     -2464043.9      1444.2178      1444.2178      1444.2178      1777.8911      3222.1089      1777.8911      3222.1089      1777.8911      3222.1089      3.0122992e+09  0.5            1414800        0.60836223     16196.276      32392.31       2.4955356    
   2824800   73771.739      19.628893     -2679319.3      0.15447365     218800.04     -2460519.2      1444.2178      1444.2178      1444.2178      1777.8911      3222.1089      1777.8911      3222.1089      1777.8911      3222.1089      3.0122992e+09  0.5            1414900        0.61455249     16154.327      32308.643      2.4892564    
   2825000   75107.711      19.912024     -2679206.3      0.15447365     222762.41     -2456443.9      1444.2178      1444.2178      1444.2178      1777.8911      3222.1089      1777.8911      3222.1089      1777.8911      3222.1089      3.0122992e+09  0.5            1415000        0.62097771     15563.522      31126.811      2.4839197    
   2825200   76674.647      20.163283     -2678820.3      0.15447365     227409.8      -2451410.5      1444.2178      1444.2178      1444.2178      1777.8911      3222.1089      1777.8911      3222.1089      1777.8911      3222.1089      3.0122992e+09  0.5            1415100        0.62724924     15945.253      31890.75       2.4779535    
   2825400   76436.058      20.211862     -2678534.4      0.15447365     226702.16     -2451832.2      1444.2178      1444.2178      1444.2178      1777.8911      3222.1089      1777.8911      3222.1089      1777.8911      3222.1089      3.0122992e+09  0.5            1415200        0.63340151     16254.256      32508.411      2.4715156    
   2825600   74004.532      20.070609     -2685781.9      0.15447365     219490.49     -2466291.5      1444.2178      1444.2178      1444.2178      1777.8911      3222.1089      1777.8911      3222.1089      1777.8911      3222.1089      3.0122992e+09  0.5            1415300        0.63977294     15694.901      31389.999      2.465929     
   2825800   75185.032      20.082256     -2686223.6      0.15447365     222991.74     -2463231.8      1444.2178      1444.2178      1444.2178      1777.8911      3222.1089      1777.8911      3222.1089      1777.8911      3222.1089      3.0122992e+09  0.5            1415400        0.64599776     16064.753      32129.613      2.4597685    
   2826000   79882.21       20.236029     -2686511.5      0.15447365     236923.13     -2449588.4      1444.2178      1444.2178      1444.2178      1777.8911      3222.1089      1777.8911      3222.1089      1777.8911      3222.1089      3.0122992e+09  0.5            1415500        0.6522582      15973.374      31946.345      2.4537412    
   2826200   79658.054      20.122934     -2694315.9      0.15447365     236258.3      -2458057.6      1444.2178      1444.2178      1444.2178      1777.8911      3222.1089      1777.8911      3222.1089      1777.8911      3222.1089      3.0122992e+09  0.5            1415600        0.65869927     15525.376      31050.852      2.4483803    
   2826400   78090.424      19.90966      -2694889.1      0.15447365     231608.86     -2463280.3      1444.2178      1444.2178      1444.2178      1777.8911      3222.1089      1777.8911      3222.1089      1777.8911      3222.1089      3.0122992e+09  0.5            1415700        0.66499241     15890.369      31781.026      2.4424559    
   2826600   78996.252      19.825182     -2697474.4      0.15447365     234295.46     -2463178.9      1444.2178      1444.2178      1444.2178      1777.8911      3222.1089      1777.8911      3222.1089      1777.8911      3222.1089      3.0122992e+09  0.5            1415800        0.67127144     15925.999      31851.739      2.4364742    
   2826800   85226.96       19.864892     -2698259.7      0.15447365     252775.15     -2445484.5      1444.2178      1444.2178      1444.2178      1777.8911      3222.1089      1777.8911      3222.1089      1777.8911      3222.1089      3.0122992e+09  0.5            1415900        0.67748826     16085.379      32170.959      2.4302633    
   2827000   83632.935      19.693976     -2699069.5      0.15447365     248047.42     -2451022        1444.2178      1444.2178      1444.2178      1777.8911      3222.1089      1777.8911      3222.1089      1777.8911      3222.1089      3.0122992e+09  0.5            1416000        0.68392673     15531.515      31062.673      2.424839     
   2827200   80766.915      19.35924      -2699861.3      0.15447365     239547.08     -2460314.2      1444.2178      1444.2178      1444.2178      1777.8911      3222.1089      1777.8911      3222.1089      1777.8911      3222.1089      3.0122992e+09  0.5            1416100        0.69015668     16051.581      32103.744      2.4186642    
   2827400   81774.97       19.108406     -2700997.8      0.15447365     242536.88     -2458460.9      1444.2178      1444.2178      1444.2178      1777.8911      3222.1089      1777.8911      3222.1089      1777.8911      3222.1089      3.0122992e+09  0.5            1416200        0.69642686     15948.46       31896.502      2.412629     
   2827600   84739.102      19.133251     -2701729        0.15447365     251328.21     -2450400.8      1444.2178      1444.2178      1444.2178      1777.8911      3222.1089      1777.8911      3222.1089      1777.8911      3222.1089      3.0122992e+09  0.5            1416300        0.70281917     15643.716      31287.467      2.4070078    
   2827800   86011.562      19.036793     -2701970.8      0.15447365     255102.21     -2446868.6      1444.2178      1444.2178      1444.2178      1777.8911      3222.1089      1777.8911      3222.1089      1777.8911      3222.1089      3.0122992e+09  0.5            1416400        0.70905119     16046.249      32092.735      2.4008295    
   2828000   81996.369      18.623315     -2702408.2      0.15447365     243193.52     -2459214.6      1444.2178      1444.2178      1444.2178      1777.8911      3222.1089      1777.8911      3222.1089      1777.8911      3222.1089      3.0122992e+09  0.5            1416500        0.71531037     15976.552      31952.955      2.3947418    
   2828200   80351.626      18.328216     -2710009.9      0.15447365     238315.37     -2471694.6      1444.2178      1444.2178      1444.2178      1777.8911      3222.1089      1777.8911      3222.1089      1777.8911      3222.1089      3.0122992e+09  0.5            1416600        0.72173428     15566.947      31133.788      2.3891961    
   2828400   86058.49       18.402472     -2710019.3      0.15447365     255241.39     -2454777.9      1444.2178      1444.2178      1444.2178      1777.8911      3222.1089      1777.8911      3222.1089      1777.8911      3222.1089      3.0122992e+09  0.5            1416700        0.72789794     16224.2        32448.343      2.3827839    
   2828600   88591.711      18.339773     -2709742.8      0.15447365     262754.69     -2446988.1      1444.2178      1444.2178      1444.2178      1777.8911      3222.1089      1777.8911      3222.1089      1777.8911      3222.1089      3.0122992e+09  0.5            1416800        0.73406559     16213.405      32426.978      2.3763888    
   2828800   88754.936      18.266862     -2709096        0.15447365     263238.8      -2445857.2      1444.2178      1444.2178      1444.2178      1777.8911      3222.1089      1777.8911      3222.1089      1777.8911      3222.1089      3.0122992e+09  0.5            1416900        0.7405035      15532.955      31065.905      2.3708625    
   2829000   87731.108      18.238274     -2707723.1      0.15447365     260202.22     -2447520.9      1444.2178      1444.2178      1444.2178      1777.8911      3222.1089      1777.8911      3222.1089      1777.8911      3222.1089      3.0122992e+09  0.5            1417000        0.74673166     16056.31       32112.301      2.364657     
   2829200   88969.249      18.223308     -2706372.8      0.15447365     263874.43     -2442498.3      1444.2178      1444.2178      1444.2178      1777.8911      3222.1089      1777.8911      3222.1089      1777.8911      3222.1089      3.0122992e+09  0.5            1417100        0.7531113      15674.657      31349.594      2.3589255    
   2829400   93087.715      18.416998     -2704673.3      0.15447365     276089.41     -2428583.9      1444.2178      1444.2178      1444.2178      1777.8911      3222.1089      1777.8911      3222.1089      1777.8911      3222.1089      3.0122992e+09  0.5            1417200        0.75941818     15855.914      31711.924      2.3529578    
   2829600   92369.377      18.385363     -2702634.9      0.15447365     273958.89     -2428676        1444.2178      1444.2178      1444.2178      1777.8911      3222.1089      1777.8911      3222.1089      1777.8911      3222.1089      3.0122992e+09  0.5            1417300        0.76575645     15777.158      31554.257      2.3470809    
   2829800   88318.616      18.304289     -2700385.7      0.15447365     261944.71     -2438441        1444.2178      1444.2178      1444.2178      1777.8911      3222.1089      1777.8911      3222.1089      1777.8911      3222.1089      3.0122992e+09  0.5            1417400        0.77194902     16148.251      32296.56       2.3407551    
   2830000   87910.006      18.410119     -2698052.6      0.15447365     260732.82     -2437319.8      1444.2178      1444.2178      1444.2178      1777.8911      3222.1089      1777.8911      3222.1089      1777.8911      3222.1089      3.0122992e+09  0.5            1417500        0.77817719     16056.024      32112.125      2.3345379    
   2830200   94211.277      18.731702     -2695545.3      0.15447365     279421.79     -2416123.5      1444.2178      1444.2178      1444.2178      1777.8911      3222.1089      1777.8911      3222.1089      1777.8911      3222.1089      3.0122992e+09  0.5            1417600        0.78457208     15637.635      31275.147      2.3288153    
   2830400   95055.484      18.77592      -2692896.8      0.15447365     281925.63     -2410971.2      1444.2178      1444.2178      1444.2178      1777.8911      3222.1089      1777.8911      3222.1089      1777.8911      3222.1089      3.0122992e+09  0.5            1417700        0.7908027      16049.584      32099.405      2.3225998    
   2830600   94350.844      18.883981     -2690236.2      0.15447365     279835.74     -2410400.5      1444.2178      1444.2178      1444.2178      1777.8911      3222.1089      1777.8911      3222.1089      1777.8911      3222.1089      3.0122992e+09  0.5            1417800        0.79720048     15630.463      31260.848      2.3168698    
   2830800   95157.535      19.071614     -2687618        0.15447365     282228.3      -2405389.7      1444.2178      1444.2178      1444.2178      1777.8911      3222.1089      1777.8911      3222.1089      1777.8911      3222.1089      3.0122992e+09  0.5            1417900        0.80335496     16248.308      32496.357      2.3104301    
   2831000   98874.136      19.195421     -2683159.4      0.15447365     293251.39     -2389908        1444.2178      1444.2178      1444.2178      1777.8911      3222.1089      1777.8911      3222.1089      1777.8911      3222.1089      3.0122992e+09  0.5            1418000        0.80967306     15827.541      31655.151      2.3044603    
   2831200   99160.632      19.338841     -2680631.3      0.15447365     294101.11     -2386530.2      1444.2178      1444.2178      1444.2178      1777.8911      3222.1089      1777.8911      3222.1089      1777.8911      3222.1089      3.0122992e+09  0.5            1418100        0.81625678     15188.981      30378.115      2.2992329    
   2831400   93621.09       19.168956     -2678262.6      0.15447365     277671.35     -2400591.3      1444.2178      1444.2178      1444.2178      1777.8911      3222.1089      1777.8911      3222.1089      1777.8911      3222.1089      3.0122992e+09  0.5            1418200        0.82260188     15760.354      31520.724      2.29332      
   2831600   91900.233      19.048185     -2676139.1      0.15447365     272567.45     -2403571.7      1444.2178      1444.2178      1444.2178      1777.8911      3222.1089      1777.8911      3222.1089      1777.8911      3222.1089      3.0122992e+09  0.5            1418300        0.82933256     14857.278      29714.3        2.288465     
   2831800   98140.748      19.2649       -2674166.2      0.15447365     291076.23     -2383089.9      1444.2178      1444.2178      1444.2178      1777.8911      3222.1089      1777.8911      3222.1089      1777.8911      3222.1089      3.0122992e+09  0.5            1418400        0.83573945     15608.328      31216.861      2.2826968    
   2832000   100254.64      19.378925     -2672320.4      0.15447365     297345.84     -2374974.6      1444.2178      1444.2178      1444.2178      1777.8911      3222.1089      1777.8911      3222.1089      1777.8911      3222.1089      3.0122992e+09  0.5            1418500        0.84203222     15891          31781.748      2.2766116    
   2832200   101953.78      19.449094     -2670611.4      0.15447365     302385.34     -2368226.1      1444.2178      1444.2178      1444.2178      1777.8911      3222.1089      1777.8911      3222.1089      1777.8911      3222.1089      3.0122992e+09  0.5            1418600        0.84823606     16119.158      32238.487      2.2702846    
   2832400   102288.4       19.496187     -2668679.5      0.15447365     303377.79     -2365301.7      1444.2178      1444.2178      1444.2178      1777.8911      3222.1089      1777.8911      3222.1089      1777.8911      3222.1089      3.0122992e+09  0.5            1418700        0.8545471      15845.151      31690.382      2.2642435    
   2832600   101558.75      19.292207     -2667288.7      0.15447365     301213.72     -2366075        1444.2178      1444.2178      1444.2178      1777.8911      3222.1089      1777.8911      3222.1089      1777.8911      3222.1089      3.0122992e+09  0.5            1418800        0.86070022     16251.981      32503.952      2.2577844    
   2832800   102371.75      19.019065     -2680848.7      0.15447365     303624.98     -2377223.7      1444.2178      1444.2178      1444.2178      1777.8911      3222.1089      1777.8911      3222.1089      1777.8911      3222.1089      3.0122992e+09  0.5            1418900        0.86698004     15923.927      31847.717      2.2516589    
   2833000   106270.23      19.005039     -2683639        0.15447365     315187.52     -2368451.5      1444.2178      1444.2178      1444.2178      1777.8911      3222.1089      1777.8911      3222.1089      1777.8911      3222.1089      3.0122992e+09  0.5            1419000        0.87314572     16219.04       32438.043      2.2452373    
   2833200   106947.24      19.011734     -2682813.4      0.15447365     317195.46     -2365617.9      1444.2178      1444.2178      1444.2178      1777.8911      3222.1089      1777.8911      3222.1089      1777.8911      3222.1089      3.0122992e+09  0.5            1419100        0.87953635     15647.741      31295.736      2.2393923    
   2833400   101697.22      18.535779     -2682182.2      0.15447365     301624.4      -2380557.8      1444.2178      1444.2178      1444.2178      1777.8911      3222.1089      1777.8911      3222.1089      1777.8911      3222.1089      3.0122992e+09  0.5            1419200        0.88563977     16384.391      32768.594      2.2328154    
   2833600   100600.18      18.266299     -2681792.4      0.15447365     298370.69     -2383421.7      1444.2178      1444.2178      1444.2178      1777.8911      3222.1089      1777.8911      3222.1089      1777.8911      3222.1089      3.0122992e+09  0.5            1419300        0.89187756     16031.275      32062.694      2.2265806    
   2833800   108037.86      18.321035     -2681300.7      0.15447365     320430.14     -2360870.6      1444.2178      1444.2178      1444.2178      1777.8911      3222.1089      1777.8911      3222.1089      1777.8911      3222.1089      3.0122992e+09  0.5            1419400        0.89799751     16340.051      32680.192      2.2200544    
   2834000   108445.6       18.105682     -2681349.5      0.15447365     321639.47     -2359710.1      1444.2178      1444.2178      1444.2178      1777.8911      3222.1089      1777.8911      3222.1089      1777.8911      3222.1089      3.0122992e+09  0.5            1419500        0.90433628     15775.817      31550.992      2.2140701    
   2834200   107032.78      17.917932     -2676059        0.15447365     317449.15     -2358609.9      1444.2178      1444.2178      1444.2178      1777.8911      3222.1089      1777.8911      3222.1089      1777.8911      3222.1089      3.0122992e+09  0.5            1419600        0.91047813     16281.784      32563.918      2.2076029    
   2834400   107437.27      17.620164     -2674500.1      0.15447365     318648.85     -2355851.2      1444.2178      1444.2178      1444.2178      1777.8911      3222.1089      1777.8911      3222.1089      1777.8911      3222.1089      3.0122992e+09  0.5            1419700        0.91670671     16055.068      32110.316      2.2013483    
   2834600   112558.63      17.426666     -2674566.7      0.15447365     333838.32     -2340728.4      1444.2178      1444.2178      1444.2178      1777.8911      3222.1089      1777.8911      3222.1089      1777.8911      3222.1089      3.0122992e+09  0.5            1419800        0.92285696     16259.56       32518.522      2.1949082    
   2834800   114465.15      17.178138     -2675023.5      0.15447365     339492.88     -2335530.6      1444.2178      1444.2178      1444.2178      1777.8911      3222.1089      1777.8911      3222.1089      1777.8911      3222.1089      3.0122992e+09  0.5            1419900        0.92910271     16010.764      32022.18       2.1886966    
   2835000   107755.86      16.619597     -2675075        0.15447365     319593.74     -2355481.2      1444.2178      1444.2178      1444.2178      1777.8911      3222.1089      1777.8911      3222.1089      1777.8911      3222.1089      3.0122992e+09  0.5            1420000        0.93527661     16197.241      32394.209      2.1823172    
   2835200   107350.43      16.25458      -2677365.9      0.15447365     318391.29     -2358974.6      1444.2178      1444.2178      1444.2178      1777.8911      3222.1089      1777.8911      3222.1089      1777.8911      3222.1089      3.0122992e+09  0.5            1420100        0.94160724     15796.246      31592.497      2.1763024    
   2835400   111420.94      16.013214     -2677700.7      0.15447365     330464.05     -2347236.7      1444.2178      1444.2178      1444.2178      1777.8911      3222.1089      1777.8911      3222.1089      1777.8911      3222.1089      3.0122992e+09  0.5            1420200        0.94779378     16164.229      32328.353      2.1699539    
   2835600   114438.23      15.890684     -2677918.6      0.15447365     339413.03     -2338505.6      1444.2178      1444.2178      1444.2178      1777.8911      3222.1089      1777.8911      3222.1089      1777.8911      3222.1089      3.0122992e+09  0.5            1420300        0.95402351     16051.911      32104.192      2.163705     
   2835800   115148.33      15.654316     -2673802.2      0.15447365     341519.11     -2332283.1      1444.2178      1444.2178      1444.2178      1777.8911      3222.1089      1777.8911      3222.1089      1777.8911      3222.1089      3.0122992e+09  0.5            1420400        0.96012558     16388.016      32775.758      2.1571701    
   2836000   113132.39      15.357401     -2673669.2      0.15447365     335540.03     -2338129.2      1444.2178      1444.2178      1444.2178      1777.8911      3222.1089      1777.8911      3222.1089      1777.8911      3222.1089      3.0122992e+09  0.5            1420500        0.96641814     15891.584      31783.046      2.1510646    
   2836200   110528.42      14.953827     -2673353.1      0.15447365     327816.91     -2345536.2      1444.2178      1444.2178      1444.2178      1777.8911      3222.1089      1777.8911      3222.1089      1777.8911      3222.1089      3.0122992e+09  0.5            1420600        0.9725681      16260.311      32521.013      2.144642     
   2836400   116223.06      15.10314      -2672863.1      0.15447365     344706.66     -2328156.4      1444.2178      1444.2178      1444.2178      1777.8911      3222.1089      1777.8911      3222.1089      1777.8911      3222.1089      3.0122992e+09  0.5            1420700        0.97887005     15868.137      31736.083      2.1385551    
   2836600   119870.35      15.083961     -2681069.6      0.15447365     355524.18     -2325545.4      1444.2178      1444.2178      1444.2178      1777.8911      3222.1089      1777.8911      3222.1089      1777.8911      3222.1089      3.0122992e+09  0.5            1420800        0.98496499     16407.281      32814.627      2.1320172    
   2836800   117660.22      14.965288     -2680160.4      0.15447365     348969.14     -2331191.3      1444.2178      1444.2178      1444.2178      1777.8911      3222.1089      1777.8911      3222.1089      1777.8911      3222.1089      3.0122992e+09  0.5            1420900        0.99124182     15931.464      31862.979      2.1258753    
   2837000   114713.91      14.678617     -2679090.3      0.15447365     340230.66     -2338859.6      1444.2178      1444.2178      1444.2178      1777.8911      3222.1089      1777.8911      3222.1089      1777.8911      3222.1089      3.0122992e+09  0.5            1421000        0.9974206      16184.294      32368.231      2.1195236    
   2837200   119097.3       14.802207     -2677881.7      0.15447365     353231.4      -2324650.3      1444.2178      1444.2178      1444.2178      1777.8911      3222.1089      1777.8911      3222.1089      1777.8911      3222.1089      3.0122992e+09  0.5            1421100        1.0036835      15967.159      31934.542      2.1133504    
   2837400   124264.23      14.99623      -2676134.7      0.15447365     368556.03     -2307578.6      1444.2178      1444.2178      1444.2178      1777.8911      3222.1089      1777.8911      3222.1089      1777.8911      3222.1089      3.0122992e+09  0.5            1421200        1.0098621      16184.988      32370.091      2.1070004    
   2837600   120670.34      14.877206     -2674613.3      0.15447365     357896.89     -2316716.4      1444.2178      1444.2178      1444.2178      1777.8911      3222.1089      1777.8911      3222.1089      1777.8911      3222.1089      3.0122992e+09  0.5            1421300        1.0160738      16098.588      32197.295      2.1007213    
   2837800   117249.36      14.76566      -2673041        0.15447365     347750.58     -2325290.4      1444.2178      1444.2178      1444.2178      1777.8911      3222.1089      1777.8911      3222.1089      1777.8911      3222.1089      3.0122992e+09  0.5            1421400        1.0222023      16317.233      32634.488      2.0942724    
   2838000   122932.66      15.15072      -2671101.8      0.15447365     364606.73     -2306495.1      1444.2178      1444.2178      1444.2178      1777.8911      3222.1089      1777.8911      3222.1089      1777.8911      3222.1089      3.0122992e+09  0.5            1421500        1.0285263      15812.707      31625.078      2.0882245    
   2838200   126962.82      15.398539     -2667579.4      0.15447365     376559.79     -2291019.6      1444.2178      1444.2178      1444.2178      1777.8911      3222.1089      1777.8911      3222.1089      1777.8911      3222.1089      3.0122992e+09  0.5            1421600        1.0347109      16169.38       32338.875      2.0818924    
   2838400   123359.38      15.314752     -2662166.7      0.15447365     365872.32     -2296294.4      1444.2178      1444.2178      1444.2178      1777.8911      3222.1089      1777.8911      3222.1089      1777.8911      3222.1089      3.0122992e+09  0.5            1421700        1.040936       16063.651      32127.482      2.0756431    
   2838600   121286.74      15.318763     -2659853.4      0.15447365     359725.07     -2300128.3      1444.2178      1444.2178      1444.2178      1777.8911      3222.1089      1777.8911      3222.1089      1777.8911      3222.1089      3.0122992e+09  0.5            1421800        1.0470155      16448.994      32897.724      2.0691062    
   2838800   126364.47      15.459009     -2660201.1      0.15447365     374785.13     -2285416        1444.2178      1444.2178      1444.2178      1777.8911      3222.1089      1777.8911      3222.1089      1777.8911      3222.1089      3.0122992e+09  0.5            1421900        1.0532646      16002.437      32005.116      2.0629067    
   2839000   130778.46      15.683967     -2658622.7      0.15447365     387876.62     -2270746.1      1444.2178      1444.2178      1444.2178      1777.8911      3222.1089      1777.8911      3222.1089      1777.8911      3222.1089      3.0122992e+09  0.5            1422000        1.0593945      16313.336      32626.523      2.0564758    
   2839200   127354.83      15.729631     -2650997.2      0.15447365     377722.46     -2273274.8      1444.2178      1444.2178      1444.2178      1777.8911      3222.1089      1777.8911      3222.1089      1777.8911      3222.1089      3.0122992e+09  0.5            1422100        1.0656678      15940.594      31881.274      2.0503238    
   2839400   125542.92      15.732892     -2649462.2      0.15447365     372348.49     -2277113.7      1444.2178      1444.2178      1444.2178      1777.8911      3222.1089      1777.8911      3222.1089      1777.8911      3222.1089      3.0122992e+09  0.5            1422200        1.071885       16084.318      32168.522      2.0440638    
   2839600   127270.54      15.812555     -2647947.4      0.15447365     377472.44     -2270475        1444.2178      1444.2178      1444.2178      1777.8911      3222.1089      1777.8911      3222.1089      1777.8911      3222.1089      3.0122992e+09  0.5            1422300        1.0780056      16338.43       32676.765      2.0376215    
   2839800   131828.19      16.058765     -2642655.8      0.15447365     390990.02     -2251665.7      1444.2178      1444.2178      1444.2178      1777.8911      3222.1089      1777.8911      3222.1089      1777.8911      3222.1089      3.0122992e+09  0.5            1422400        1.0842225      16085.239      32170.731      2.031363     
   2840000   137657.55      16.402497     -2641110.4      0.15447365     408279.35     -2232831.1      1444.2178      1444.2178      1444.2178      1777.8911      3222.1089      1777.8911      3222.1089      1777.8911      3222.1089      3.0122992e+09  0.5            1422500        1.090371       16263.741      32527.169      2.0249788    
   2840200   136215.37      16.42483      -2639499.2      0.15447365     404002        -2235497.2      1444.2178      1444.2178      1444.2178      1777.8911      3222.1089      1777.8911      3222.1089      1777.8911      3222.1089      3.0122992e+09  0.5            1422600        1.0966896      15826.519      31653.047      2.0189097    
   2840400   127224.77      16.002252     -2639771.7      0.15447365     377336.72     -2262435        1444.2178      1444.2178      1444.2178      1777.8911      3222.1089      1777.8911      3222.1089      1777.8911      3222.1089      3.0122992e+09  0.5            1422700        1.1028512      16229.559      32459.144      2.0125515    
   2840600   128616.37      16.064798     -2638241.8      0.15447365     381464.07     -2256777.7      1444.2178      1444.2178      1444.2178      1777.8911      3222.1089      1777.8911      3222.1089      1777.8911      3222.1089      3.0122992e+09  0.5            1422800        1.1091473      15882.755      31765.52       2.006439     
   2840800   134515.07      16.349855     -2637100.9      0.15447365     398959.06     -2238141.8      1444.2178      1444.2178      1444.2178      1777.8911      3222.1089      1777.8911      3222.1089      1777.8911      3222.1089      3.0122992e+09  0.5            1422900        1.1152438      16403.107      32806.532      1.9999658    
   2841000   135157.71      16.421177     -2635243.9      0.15447365     400865.05     -2234378.8      1444.2178      1444.2178      1444.2178      1777.8911      3222.1089      1777.8911      3222.1089      1777.8911      3222.1089      3.0122992e+09  0.5            1423000        1.1215149      15946.072      31891.869      1.9938081    
   2841200   132402.27      16.09865      -2629693.9      0.15447365     392692.69     -2237001.2      1444.2178      1444.2178      1444.2178      1777.8911      3222.1089      1777.8911      3222.1089      1777.8911      3222.1089      3.0122992e+09  0.5            1423100        1.127664       16262.394      32524.635      1.9874337    
   2841400   129700.02      15.965613     -2621093.1      0.15447365     384678.06     -2236415        1444.2178      1444.2178      1444.2178      1777.8911      3222.1089      1777.8911      3222.1089      1777.8911      3222.1089      3.0122992e+09  0.5            1423200        1.1339187      15988.069      31976.578      1.9812461    
   2841600   134652.83      16.137191     -2620036.4      0.15447365     399367.63     -2220668.7      1444.2178      1444.2178      1444.2178      1777.8911      3222.1089      1777.8911      3222.1089      1777.8911      3222.1089      3.0122992e+09  0.5            1423300        1.1400378      16342.337      32684.31       1.9748232    
   2841800   140247.95      16.116031     -2617233.3      0.15447365     415962.23     -2201271.1      1444.2178      1444.2178      1444.2178      1777.8911      3222.1089      1777.8911      3222.1089      1777.8911      3222.1089      3.0122992e+09  0.5            1423400        1.1463293      15894.552      31789.295      1.9686994    
   2842000   137922.06      15.778477     -2612691.3      0.15447365     409063.88     -2203627.5      1444.2178      1444.2178      1444.2178      1777.8911      3222.1089      1777.8911      3222.1089      1777.8911      3222.1089      3.0122992e+09  0.5            1423500        1.1527057      15682.757      31365.366      1.9627187    
   2842200   133023.77      15.382067     -2612121.3      0.15447365     394535.99     -2217585.3      1444.2178      1444.2178      1444.2178      1777.8911      3222.1089      1777.8911      3222.1089      1777.8911      3222.1089      3.0122992e+09  0.5            1423600        1.1590539      15752.134      31504.547      1.9566861    
   2842400   136601.4       15.233023     -2612129.8      0.15447365     405146.91     -2206982.9      1444.2178      1444.2178      1444.2178      1777.8911      3222.1089      1777.8911      3222.1089      1777.8911      3222.1089      3.0122992e+09  0.5            1423700        1.16545        15634.63       31268.854      1.9507301    
   2842600   144822.25      15.365456     -2610043.4      0.15447365     429529.17     -2180514.2      1444.2178      1444.2178      1444.2178      1777.8911      3222.1089      1777.8911      3222.1089      1777.8911      3222.1089      3.0122992e+09  0.5            1423800        1.1716677      16083.423      32167.156      1.9444731    
   2842800   141258.13      14.981946     -2609999.7      0.15447365     418958.32     -2191041.3      1444.2178      1444.2178      1444.2178      1777.8911      3222.1089      1777.8911      3222.1089      1777.8911      3222.1089      3.0122992e+09  0.5            1423900        1.1779739      15857.274      31714.403      1.9383626    
   2843000   137507.92      14.619652     -2601187        0.15447365     407835.57     -2193351.4      1444.2178      1444.2178      1444.2178      1777.8911      3222.1089      1777.8911      3222.1089      1777.8911      3222.1089      3.0122992e+09  0.5            1424000        1.1841621      16159.767      32319.67       1.9320576    
   2843200   140143.43      14.387464     -2601402.4      0.15447365     415652.23     -2185750.2      1444.2178      1444.2178      1444.2178      1777.8911      3222.1089      1777.8911      3222.1089      1777.8911      3222.1089      3.0122992e+09  0.5            1424100        1.1905731      15598.176      31196.289      1.9261139    
   2843400   149229.24      14.535926     -2600956.6      0.15447365     442599.88     -2158356.7      1444.2178      1444.2178      1444.2178      1777.8911      3222.1089      1777.8911      3222.1089      1777.8911      3222.1089      3.0122992e+09  0.5            1424200        1.1966939      16337.763      32675.36       1.9196999    
   2843600   147557.61      14.058742     -2601250.9      0.15447365     437642        -2163609        1444.2178      1444.2178      1444.2178      1777.8911      3222.1089      1777.8911      3222.1089      1777.8911      3222.1089      3.0122992e+09  0.5            1424300        1.2030651      15695.537      31391.113      1.9136873    
   2843800   143709.38      13.651568     -2596039.8      0.15447365     426228.5      -2169811.3      1444.2178      1444.2178      1444.2178      1777.8911      3222.1089      1777.8911      3222.1089      1777.8911      3222.1089      3.0122992e+09  0.5            1424400        1.2093577      15891.814      31783.779      1.9075469    
   2844000   143276.81      13.435651     -2594794.8      0.15447365     424945.55     -2169849.2      1444.2178      1444.2178      1444.2178      1777.8911      3222.1089      1777.8911      3222.1089      1777.8911      3222.1089      3.0122992e+09  0.5            1424500        1.2156239      15958.574      31916.99       1.9013639    
   2844200   145232.95      13.114841     -2595024.7      0.15447365     430747.28     -2164277.4      1444.2178      1444.2178      1444.2178      1777.8911      3222.1089      1777.8911      3222.1089      1777.8911      3222.1089      3.0122992e+09  0.5            1424600        1.2220748      15501.831      31004.017      1.8954659    
   2844400   148822.36      13.03814      -2594800.8      0.15447365     441393.14     -2153407.7      1444.2178      1444.2178      1444.2178      1777.8911      3222.1089      1777.8911      3222.1089      1777.8911      3222.1089      3.0122992e+09  0.5            1424700        1.2283123      16031.987      32064.082      1.8892347    
   2844600   149209.99      12.88212      -2594842.9      0.15447365     442542.81     -2152300.1      1444.2178      1444.2178      1444.2178      1777.8911      3222.1089      1777.8911      3222.1089      1777.8911      3222.1089      3.0122992e+09  0.5            1424800        1.2346375      15809.829      31619.569      1.8831371    
   2844800   142621.38      12.321469     -2592886.6      0.15447365     423001.61     -2169885        1444.2178      1444.2178      1444.2178      1777.8911      3222.1089      1777.8911      3222.1089      1777.8911      3222.1089      3.0122992e+09  0.5            1424900        1.2408482      16101.208      32202.536      1.8768639    
   2845000   142239.51      12.157917     -2591996        0.15447365     421869.01     -2170127        1444.2178      1444.2178      1444.2178      1777.8911      3222.1089      1777.8911      3222.1089      1777.8911      3222.1089      3.0122992e+09  0.5            1425000        1.2473813      15306.704      30613.043      1.871075     
   2845200   151519.93      12.357374     -2591728.6      0.15447365     449393.86     -2142334.7      1444.2178      1444.2178      1444.2178      1777.8911      3222.1089      1777.8911      3222.1089      1777.8911      3222.1089      3.0122992e+09  0.5            1425100        1.2538512      15456.161      30912.336      1.8651847    
   2845400   151742.47      12.159998     -2589401.9      0.15447365     450053.89     -2139348        1444.2178      1444.2178      1444.2178      1777.8911      3222.1089      1777.8911      3222.1089      1777.8911      3222.1089      3.0122992e+09  0.5            1425200        1.2602416      15648.372      31295.99       1.8591717    
   2845600   148622.01      12.024855     -2588801.9      0.15447365     440798.9      -2148003        1444.2178      1444.2178      1444.2178      1777.8911      3222.1089      1777.8911      3222.1089      1777.8911      3222.1089      3.0122992e+09  0.5            1425300        1.2667705      15316.645      30633.815      1.8533569    
   2845800   148286.39      11.758844     -2588774.4      0.15447365     439803.49     -2148970.9      1444.2178      1444.2178      1444.2178      1777.8911      3222.1089      1777.8911      3222.1089      1777.8911      3222.1089      3.0122992e+09  0.5            1425400        1.2732003      15552.629      31105.297      1.8473916    
   2846000   157523.08      12.103986     -2580468.6      0.15447365     467198.65     -2113269.9      1444.2178      1444.2178      1444.2178      1777.8911      3222.1089      1777.8911      3222.1089      1777.8911      3222.1089      3.0122992e+09  0.5            1425500        1.2797488      15270.535      30541.387      1.8415927    
   2846200   158007.1       12.009817     -2578968        0.15447365     468634.2      -2110333.8      1444.2178      1444.2178      1444.2178      1777.8911      3222.1089      1777.8911      3222.1089      1777.8911      3222.1089      3.0122992e+09  0.5            1425600        1.2860687      15823.068      31646.07       1.8354602    
   2846400   150957.24      11.615393     -2577642.7      0.15447365     447724.98     -2129917.8      1444.2178      1444.2178      1444.2178      1777.8911      3222.1089      1777.8911      3222.1089      1777.8911      3222.1089      3.0122992e+09  0.5            1425700        1.2925883      15338.338      30676.376      1.8296088    
   2846600   150705.51      11.620674     -2575826.2      0.15447365     446978.37     -2128847.8      1444.2178      1444.2178      1444.2178      1777.8911      3222.1089      1777.8911      3222.1089      1777.8911      3222.1089      3.0122992e+09  0.5            1425800        1.2991333      15278.867      30557.836      1.8237862    
   2846800   154074.44      11.641443     -2574213.4      0.15447365     456970.3      -2117243.1      1444.2178      1444.2178      1444.2178      1777.8911      3222.1089      1777.8911      3222.1089      1777.8911      3222.1089      3.0122992e+09  0.5            1425900        1.305408       15937.007      31873.988      1.8175806    
   2847000   156214.66      11.719713     -2572083.6      0.15447365     463318.01     -2108765.6      1444.2178      1444.2178      1444.2178      1777.8911      3222.1089      1777.8911      3222.1089      1777.8911      3222.1089      3.0122992e+09  0.5            1426000        1.3120507      15054.154      30108.361      1.8118824    
   2847200   156328.73      11.61836      -2569835.8      0.15447365     463656.31     -2106179.5      1444.2178      1444.2178      1444.2178      1777.8911      3222.1089      1777.8911      3222.1089      1777.8911      3222.1089      3.0122992e+09  0.5            1426100        1.3184928      15522.537      31045.03       1.8059009    
   2847400   156461.54      11.728724     -2565974.9      0.15447365     464050.22     -2101924.7      1444.2178      1444.2178      1444.2178      1777.8911      3222.1089      1777.8911      3222.1089      1777.8911      3222.1089      3.0122992e+09  0.5            1426200        1.3250489      15253.378      30506.858      1.8000692    
   2847600   164149.58      11.961839     -2562074.2      0.15447365     486852.23     -2075222        1444.2178      1444.2178      1444.2178      1777.8911      3222.1089      1777.8911      3222.1089      1777.8911      3222.1089      3.0122992e+09  0.5            1426300        1.3314868      15533.047      31066.18       1.7940718    
   2847800   165102.81      11.967352     -2559988.5      0.15447365     489679.43     -2070309        1444.2178      1444.2178      1444.2178      1777.8911      3222.1089      1777.8911      3222.1089      1777.8911      3222.1089      3.0122992e+09  0.5            1426400        1.337882       15636.49       31273.01       1.7880133    
   2848000   155687.4       11.494908     -2557192.6      0.15447365     461754.18     -2095438.4      1444.2178      1444.2178      1444.2178      1777.8911      3222.1089      1777.8911      3222.1089      1777.8911      3222.1089      3.0122992e+09  0.5            1426500        1.3444287      15275.014      30549.883      1.7821525    
   2848200   155150.35      11.440942     -2552929.5      0.15447365     460161.36     -2092768.1      1444.2178      1444.2178      1444.2178      1777.8911      3222.1089      1777.8911      3222.1089      1777.8911      3222.1089      3.0122992e+09  0.5            1426600        1.3507306      15868.283      31736.44       1.7759634    
   2848400   161975.9       11.759653     -2552508.8      0.15447365     480405.3      -2072103.5      1444.2178      1444.2178      1444.2178      1777.8911      3222.1089      1777.8911      3222.1089      1777.8911      3222.1089      3.0122992e+09  0.5            1426700        1.3572514      15335.603      30671.356      1.7700586    
   2848600   163380.75      11.697326     -2550260.5      0.15447365     484571.96     -2065688.6      1444.2178      1444.2178      1444.2178      1777.8911      3222.1089      1777.8911      3222.1089      1777.8911      3222.1089      3.0122992e+09  0.5            1426800        1.3636057      15737.216      31474.546      1.7639329    
   2848800   161531.44      11.426792     -2548110.5      0.15447365     479087.08     -2069023.4      1444.2178      1444.2178      1444.2178      1777.8911      3222.1089      1777.8911      3222.1089      1777.8911      3222.1089      3.0122992e+09  0.5            1426900        1.3700689      15472.231      30944.309      1.7579449    
   2849000   161373.64      11.321574     -2539476.3      0.15447365     478619.05     -2060857.2      1444.2178      1444.2178      1444.2178      1777.8911      3222.1089      1777.8911      3222.1089      1777.8911      3222.1089      3.0122992e+09  0.5            1427000        1.3766979      15085.154      30170.372      1.7521636    
   2849200   166574.33      11.429747     -2538026.2      0.15447365     494043.81     -2043982.4      1444.2178      1444.2178      1444.2178      1777.8911      3222.1089      1777.8911      3222.1089      1777.8911      3222.1089      3.0122992e+09  0.5            1427100        1.3829394      16021.956      32043.81       1.7458854    
   2849400   176085.97      11.632768     -2529311.7      0.15447365     522254.43     -2007057.2      1444.2178      1444.2178      1444.2178      1777.8911      3222.1089      1777.8911      3222.1089      1777.8911      3222.1089      3.0122992e+09  0.5            1427200        1.3895904      15035.102      30070.426      1.7401203    
   2849600   167388.32      11.1677       -2516259.8      0.15447365     496458.01     -2019801.8      1444.2178      1444.2178      1444.2178      1777.8911      3222.1089      1777.8911      3222.1089      1777.8911      3222.1089      3.0122992e+09  0.5            1427300        1.3961563      15230.351      30460.363      1.7342417    
   2849800   163508.02      10.845066     -2513423.9      0.15447365     484949.41     -2028474.5      1444.2178      1444.2178      1444.2178      1777.8911      3222.1089      1777.8911      3222.1089      1777.8911      3222.1089      3.0122992e+09  0.5            1427400        1.4024645      15852.521      31705.454      1.728039     
[...]
   3494400   309.17921      0.88773893    -3283963.3      0.20745781     916.99646     -3283046.3      1309.0038      1309.0038      1309.0038      1845.4981      3154.5019      1845.4981      3154.5019      1845.4981      3154.5019      2.2429662e+09  0.5            1749700        12.71161       11195.161      22381.847      0.46559477   
   3494600   308.96546      0.99411504    -3284065.5      0.20750481     916.36251     -3283149.1      1308.905       1308.905       1308.905       1845.5475      3154.4525      1845.5475      3154.4525      1845.5475      3154.4525      2.2424582e+09  0.5            1749800        12.720658      11051.729      22111.595      0.4568193    
   3494800   308.80916      1.108117      -3284166.6      0.20755418     915.89894     -3283250.7      1308.8012      1308.8012      1308.8012      1845.5994      3154.4006      1845.5994      3154.4006      1845.5994      3154.4006      2.2419248e+09  0.5            1749900        12.729894      10827.632      21655.259      0.44805018   
   3495000   308.92072      0.99986565    -3284272.9      0.20757421     916.22981     -3283356.7      1308.7591      1308.7591      1308.7591      1845.6205      3154.3795      1845.6205      3154.3795      1845.6205      3154.3795      2.2417084e+09  0.5            1750000        12.739066      10902.161      21804.316      0.43927824   
   3495200   309.0254       0.92873315    -3284378.6      0.20759894     916.5403      -3283462        1308.7071      1308.7071      1308.7071      1845.6464      3154.3536      1845.6464      3154.3536      1845.6464      3154.3536      2.2414414e+09  0.5            1750100        12.748201      10947.562      21895.088      0.43050445   
   3495400   309.0355       0.89093416    -3286377.9      0.20763236     916.57024     -3285461.3      1308.6369      1308.6369      1308.6369      1845.6816      3154.3184      1845.6816      3154.3184      1845.6816      3154.3184      2.2410806e+09  0.5            1750200        12.757282      11012.259      22024.668      0.4217284    
   3495600   309.11105      1.0105423     -3286480.1      0.20768443     916.79433     -3285563.4      1308.5275      1308.5275      1308.5275      1845.7362      3154.2638      1845.7362      3154.2638      1845.7362      3154.2638      2.2405188e+09  0.5            1750300        12.766392      10976.003      21951.976      0.41295289   
   3495800   309.17307      1.1303836     -3286582.8      0.20773514     916.97826     -3285665.8      1308.421       1308.421       1308.421       1845.7895      3154.2105      1845.7895      3154.2105      1845.7895      3154.2105      2.2399718e+09  0.5            1750400        12.775496      10984.505      21969.02       0.40417671   
   3496000   309.03818      1.0296986     -3286690.5      0.20775491     916.57819     -3285773.9      1308.3795      1308.3795      1308.3795      1845.8102      3154.1898      1845.8102      3154.1898      1845.8102      3154.1898      2.2397587e+09  0.5            1750500        12.784668      10902.755      21805.412      0.39540218   
   3496200   308.9237       0.85853572    -3286798.9      0.20776549     916.23866     -3285882.7      1308.3573      1308.3573      1308.3573      1845.8213      3154.1787      1845.8213      3154.1787      1845.8213      3154.1787      2.2396446e+09  0.5            1750600        12.793815      10933.074      21866.204      0.38662634   
   3496400   308.98045      0.91236837    -3286902.7      0.20780696     916.40697     -3285986.3      1308.2703      1308.2703      1308.2703      1845.8649      3154.1351      1845.8649      3154.1351      1845.8649      3154.1351      2.2391977e+09  0.5            1750700        12.803174      10684.354      21368.629      0.37785628   
   3496600   309.07012      1.0949989     -3287003.7      0.20786596     916.67292     -3286087        1308.1465      1308.1465      1308.1465      1845.9267      3154.0733      1845.9267      3154.0733      1845.9267      3154.0733      2.2385621e+09  0.5            1750800        12.812271      10992.967      21985.927      0.36907783   
   3496800   309.09487      1.1832856     -3287106.4      0.20791347     916.74633     -3286189.6      1308.0468      1308.0468      1308.0468      1845.9766      3154.0234      1845.9766      3154.0234      1845.9766      3154.0234      2.2380506e+09  0.5            1750900        12.821392      10963.113      21926.29       0.36029965   
   3497000   309.19424      1.1907966     -3287211.5      0.20795099     917.04104     -3286294.5      1307.9682      1307.9682      1307.9682      1846.0159      3153.9841      1846.0159      3153.9841      1846.0159      3153.9841      2.2376467e+09  0.5            1751000        12.830654      10796.878      21593.634      0.35152485   
   3497200   309.22036      1.1468556     -3287318.6      0.20797969     917.11853     -3286401.5      1307.908       1307.908       1307.908       1846.046       3153.954       1846.046       3153.954       1846.046       3153.954       2.237338e+09   0.5            1751100        12.839804      10928.81       21857.89       0.34274638   
   3497400   309.08215      1.062027      -3287426.5      0.20800197     916.70862     -3286509.8      1307.8613      1307.8613      1307.8613      1846.0693      3153.9307      1846.0693      3153.9307      1846.0693      3153.9307      2.2370983e+09  0.5            1751200        12.8489        10994.835      21989.483      0.33396599   
   3497600   308.97674      1.0135637     -3287533.1      0.20802988     916.39597     -3286616.7      1307.8028      1307.8028      1307.8028      1846.0986      3153.9014      1846.0986      3153.9014      1846.0986      3153.9014      2.2367982e+09  0.5            1751300        12.858073      10901.583      21803.268      0.32518713   
   3497800   309.04134      1.068015      -3287636.9      0.20807392     916.58756     -3286720.3      1307.7105      1307.7105      1307.7105      1846.1447      3153.8553      1846.1447      3153.8553      1846.1447      3153.8553      2.2363248e+09  0.5            1751400        12.867367      10758.669      21517.345      0.31641073   
   3498000   309.22921      1.1905308     -3287739        0.20812955     917.14476     -3286821.8      1307.594       1307.594       1307.594       1846.203       3153.797       1846.203       3153.797       1846.203       3153.797       2.235727e+09   0.5            1751500        12.876514      10933.152      21866.084      0.30763009   
   3498200   309.46734      1.2591748     -3287843.4      0.20817811     917.85103     -3286925.6      1307.4923      1307.4923      1307.4923      1846.2538      3153.7462      1846.2538      3153.7462      1846.2538      3153.7462      2.2352055e+09  0.5            1751600        12.885679      10910.451      21821.147      0.29884937   
   3498400   309.58435      1.2544415     -3287951.7      0.20821384     918.19807     -3287033.5      1307.4176      1307.4176      1307.4176      1846.2912      3153.7088      1846.2912      3153.7088      1846.2912      3153.7088      2.234822e+09   0.5            1751700        12.894806      10956.881      21913.697      0.29006727   
   3498600   309.32553      0.97239613    -3288067.6      0.2082072      917.43046     -3287150.2      1307.4314      1307.4314      1307.4314      1846.2843      3153.7157      1846.2843      3153.7157      1846.2843      3153.7157      2.2348932e+09  0.5            1751800        12.903884      11016.101      22032.258      0.28128362   
   3498800   308.92054      0.74287189    -3288179.6      0.20820699     916.22927     -3287263.3      1307.4319      1307.4319      1307.4319      1846.2841      3153.7159      1846.2841      3153.7159      1846.2841      3153.7159      2.2348955e+09  0.5            1751900        12.913001      10968.357      21936.651      0.27250041   
   3499000   308.99061      1.1759638     -3288277.5      0.20829751     916.43711     -3287361        1307.2425      1307.2425      1307.2425      1846.3788      3153.6212      1846.3788      3153.6212      1846.3788      3153.6212      2.2339243e+09  0.5            1752000        12.922115      10972.44       21944.801      0.26371668   
   3499200   309.21043      1.2002567     -3288383.8      0.20833346     917.08906     -3287466.7      1307.1673      1307.1673      1307.1673      1846.4164      3153.5836      1846.4164      3153.5836      1846.4164      3153.5836      2.2335388e+09  0.5            1752100        12.931057      11182.908      22365.951      0.25492911   
   3499400   309.07241      0.80220547    -3288499        0.20831161     916.67971     -3287582.4      1307.213       1307.213       1307.213       1846.3935      3153.6065      1846.3935      3153.6065      1846.3935      3153.6065      2.233773e+09   0.5            1752200        12.940177      10964.752      21929.435      0.24614472   
   3499600   308.88341      0.7665536     -3288605        0.20834027     916.11916     -3287688.9      1307.153       1307.153       1307.153       1846.4235      3153.5765      1846.4235      3153.5765      1846.4235      3153.5765      2.2334657e+09  0.5            1752300        12.949103      11203.431      22406.93       0.23735631   
   3499800   309.13131      0.93823817    -3288707.3      0.20840119     916.85441     -3287790.4      1307.0256      1307.0256      1307.0256      1846.4872      3153.5128      1846.4872      3153.5128      1846.4872      3153.5128      2.2328128e+09  0.5            1752400        12.958193      11000.925      22001.903      0.22857061   
   3500000   309.48963      1.2029087     -3288808.3      0.20847327     917.91714     -3287890.4      1306.875       1306.875       1306.875       1846.5625      3153.4375      1846.5625      3153.4375      1846.5625      3153.4375      2.2320409e+09  0.5            1752500        12.967329      10945.428      21890.664      0.21978528   
   3500200   309.41162      1.1351888     -3288917.9      0.2084975      917.68578     -3288000.2      1306.8244      1306.8244      1306.8244      1846.5878      3153.4122      1846.5878      3153.4122      1846.5878      3153.4122      2.2317815e+09  0.5            1752600        12.976273      11180.386      22360.952      0.21099635   
   3500400   309.08356      0.75912046    -3289032.9      0.20847992     916.71278     -3288116.2      1306.8611      1306.8611      1306.8611      1846.5695      3153.4305      1846.5695      3153.4305      1846.5695      3153.4305      2.2319696e+09  0.5            1752700        12.98524       11153.159      22306.175      0.20220756   
   3500600   308.99254      1.0563126     -3289134        0.20855209     916.44282     -3288217.6      1306.7103      1306.7103      1306.7103      1846.6448      3153.3552      1846.6448      3153.3552      1846.6448      3153.3552      2.2311973e+09  0.5            1752800        12.994281      11059.832      22119.778      0.19341965   
   3500800   309.02811      1.1621868     -3289238.1      0.20859829     916.54833     -3288321.5      1306.6139      1306.6139      1306.6139      1846.6931      3153.3069      1846.6931      3153.3069      1846.6931      3153.3069      2.2307032e+09  0.5            1752900        13.003397      10970.133      21940.191      0.18463244   
   3501000   308.93583      0.77771307    -3289351.9      0.20857872     916.27462     -3288435.7      1306.6547      1306.6547      1306.6547      1846.6726      3153.3274      1846.6726      3153.3274      1846.6726      3153.3274      2.2309124e+09  0.5            1753000        13.01271       10737.119      21474.16       0.17584747   
   3501200   308.89788      1.0403958     -3289451.8      0.20864605     916.16208     -3288535.6      1306.5141      1306.5141      1306.5141      1846.7429      3153.2571      1846.7429      3153.2571      1846.7429      3153.2571      2.2301925e+09  0.5            1753100        13.021777      11029.964      22060.044      0.16705861   
   3501400   308.95723      1.1995387     -3289552        0.20870266     916.33811     -3288635.7      1306.396       1306.396       1306.396       1846.802       3153.198       1846.802       3153.198       1846.802       3153.198       2.2295876e+09  0.5            1753200        13.030642      11280.05       22559.97       0.15826693   
   3501600   309.10498      1.1447214     -3289657.7      0.20873233     916.77632     -3288740.9      1306.3341      1306.3341      1306.3341      1846.8329      3153.1671      1846.8329      3153.1671      1846.8329      3153.1671      2.2292707e+09  0.5            1753300        13.039654      11096.128      22192.373      0.14947684   
   3501800   309.2631       1.0856562     -3289764.2      0.20876243     917.24529     -3288847        1306.2713      1306.2713      1306.2713      1846.8643      3153.1357      1846.8643      3153.1357      1846.8643      3153.1357      2.2289493e+09  0.5            1753400        13.048663      11100.381      22200.84       0.14068642   
   3502000   309.28405      1.0519506     -3290239.4      0.20879677     917.30741     -3289322        1306.1997      1306.1997      1306.1997      1846.9001      3153.0999      1846.9001      3153.0999      1846.9001      3153.0999      2.2285826e+09  0.5            1753500        13.057739      11017.509      22034.913      0.13189638   
   3502200   309.16599      1.1394786     -3290343.9      0.20884242     916.95725     -3289427        1306.1045      1306.1045      1306.1045      1846.9477      3153.0523      1846.9477      3153.0523      1846.9477      3153.0523      2.2280955e+09  0.5            1753600        13.066793      11044.511      22089.167      0.12310575   
   3502400   308.97183      0.96295839    -3290454.2      0.20885085     916.38141     -3289537.8      1306.087       1306.087       1306.087       1846.9565      3153.0435      1846.9565      3153.0435      1846.9565      3153.0435      2.2280056e+09  0.5            1753700        13.075811      11089.771      22179.571      0.11431444   
   3502600   308.79123      0.93976546    -3290559.9      0.20887876     915.84577     -3289644.1      1306.0288      1306.0288      1306.0288      1846.9856      3153.0144      1846.9856      3153.0144      1846.9856      3153.0144      2.2277079e+09  0.5            1753800        13.084875      11032.839      22065.591      0.1055232    
   3502800   308.76331      1.0921757     -3290660.3      0.20893256     915.76295     -3289744.6      1305.9167      1305.9167      1305.9167      1847.0417      3152.9583      1847.0417      3152.9583      1847.0417      3152.9583      2.2271343e+09  0.5            1753900        13.093929      11044.941      22089.84       0.096731524  
   3503000   309.09233      1.0566488     -3290765        0.20896639     916.7388      -3289848.2      1305.8462      1305.8462      1305.8462      1847.0769      3152.9231      1847.0769      3152.9231      1847.0769      3152.9231      2.2267737e+09  0.5            1754000        13.102808      11262.01       22523.649      0.087938326  
   3503200   309.40178      1.0306998     -3298247.6      0.20900861     917.65661     -3297330        1305.7583      1305.7583      1305.7583      1847.1209      3152.8791      1847.1209      3152.8791      1847.1209      3152.8791      2.2263239e+09  0.5            1754100        13.111693      11255.495      22511.145      0.07914504   
   3503400   309.24712      1.1020881     -3300246.3      0.20905642     917.19789     -3299329.1      1305.6587      1305.6587      1305.6587      1847.1706      3152.8294      1847.1706      3152.8294      1847.1706      3152.8294      2.2258148e+09  0.5            1754200        13.120513      11337.831      22675.763      0.070351287  
   3503600   309.00947      1.123515      -3300351.6      0.20909356     916.49303     -3299435.1      1305.5814      1305.5814      1305.5814      1847.2093      3152.7907      1847.2093      3152.7907      1847.2093      3152.7907      2.2254194e+09  0.5            1754300        13.129424      11221.931      22443.88       0.061557925  
   3503800   309.08662      0.92595771    -3300461.8      0.20910294     916.72185     -3299545.1      1305.5619      1305.5619      1305.5619      1847.2191      3152.7809      1847.2191      3152.7809      1847.2191      3152.7809      2.2253196e+09  0.5            1754400        13.138449      11080.367      22160.802      0.052764863  
   3504000   309.3204       0.91996512    -3300569.3      0.2091366      917.41524     -3299651.9      1305.4918      1305.4918      1305.4918      1847.2541      3152.7459      1847.2541      3152.7459      1847.2541      3152.7459      2.2249613e+09  0.5            1754500        13.147557      10978.907      21957.748      0.043971771  
   3504200   309.25693      1.1246923     -3300672        0.2091962      917.22698     -3299754.8      1305.3678      1305.3678      1305.3678      1847.3161      3152.6839      1847.3161      3152.6839      1847.3161      3152.6839      2.2243275e+09  0.5            1754600        13.1568        10819.129      21638.298      0.035178616  
   3504400   308.96072      0.93575353    -3300782.5      0.20920302     916.34846     -3299866.1      1305.3537      1305.3537      1305.3537      1847.3232      3152.6768      1847.3232      3152.6768      1847.3232      3152.6768      2.224255e+09   0.5            1754700        13.165703      11232.245      22464.462      0.026384179  
   3504600   308.80385      0.94242551    -3300887.6      0.20923669     915.88321     -3299971.7      1305.2836      1305.2836      1305.2836      1847.3582      3152.6418      1847.3582      3152.6418      1847.3582      3152.6418      2.2238971e+09  0.5            1754800        13.174563      11287.005      22574.105      0.017589539  
   3504800   308.97582      1.106852      -3300988.9      0.20929366     916.39323     -3300072.5      1305.1652      1305.1652      1305.1652      1847.4174      3152.5826      1847.4174      3152.5826      1847.4174      3152.5826      2.2232917e+09  0.5            1754900        13.183626      11033.43       22066.662      0.0087949489 
   3505000   309.16933      1.022699      -3301096.2      0.20931775     916.96716     -3300179.2      1305.1151      1305.1151      1305.1151      1847.4424      3152.5576      1847.4424      3152.5576      1847.4424      3152.5576      2.2230358e+09  0.5            1755000        13.192588      11158.63       22317.234      0            
Loop time of 13.1926 on 4 procs for 300000 steps with 996 atoms

Performance: 982.368 ns/day, 0.024 hours/ns, 22739.997 timesteps/s
99.8% CPU use with 4 MPI tasks x no OpenMP threads

MPI task timing breakdown:
Section |  min time  |  avg time  |  max time  |%varavg| %total
---------------------------------------------------------------
Pair    | 2.0876     | 2.4144     | 3.021      |  23.1 | 18.30
Neigh   | 0.018079   | 0.02158    | 0.02653    |   2.1 |  0.16
Comm    | 4.157      | 4.6934     | 4.9666     |  14.6 | 35.58
Output  | 0.041471   | 0.050739   | 0.073376   |   5.8 |  0.38
Modify  | 4.8341     | 4.9782     | 5.1372     |   4.9 | 37.73
Other   |            | 1.034      |            |       |  7.84

Nlocal:            249 ave         290 max         218 min
Histogram: 1 0 0 1 1 0 0 0 0 1
Nghost:            330 ave         353 max         310 min
Histogram: 2 0 0 0 0 0 0 0 1 1
Neighs:            218 ave         282 max         185 min
Histogram: 2 0 1 0 0 0 0 0 0 1

Total # of neighbors = 872
Ave neighs/atom = 0.87550201
Neighbor list builds = 291
Dangerous builds = 39

# run_style
run_style verlet

# write restart
write_restart ${write_res}
write_restart ./pgnpmf/73/equpmf5.res
System init for write_restart ...
Generated 0 of 1 mixed pair_coeff terms from geometric mixing rule

Total wall time: 0:00:25
