LAMMPS (23 Jun 2022 - Update 1)
# Read restart
read_restart ${read_res}
read_restart ./pgnpmf/73/equpmf32.res
Reading restart file ...
  restart file = 23 Jun 2022, LAMMPS = 23 Jun 2022
  restoring atom style atomic from restart
  orthogonal box = (2202.1767 2202.1767 2202.1767) to (2797.8233 2797.8233 2797.8233)
  1 by 2 by 2 MPI processor grid
  restoring pair style table from restart
  996 atoms
  read_restart CPU = 0.004 seconds

# Settings

pair_style table spline 9941

pair_coeff 1 1 ./pgnpmf/N20.txt DE_GNP 75.6
pair_coeff 2 2 ./pgnpmf/N100.txt DE_GNP 115.92
WARNING: 3 of 9941 force values in table DE_GNP are inconsistent with -dE/dr.
WARNING:  Should only be flagged at inflection points (../pair_table.cpp:463)
pair_coeff 1 2 ./pgnpmf/mixed_potential.txt DE_GNP 95.66
WARNING: 1562 of 9941 force values in table DE_GNP are inconsistent with -dE/dr.
WARNING:  Should only be flagged at inflection points (../pair_table.cpp:463)

#Neigh_list Calc Frequency

neigh_modify delay 0 every 1 check yes

# Saving Frequency (50 frames)

variable ts_save equal ${steps_equ}
variable ts_save equal 5000

# Dump
#dump 1 all custom ${ts_save} ./pgnpmf/${folder}/equilibration/trajectory/trajectory_${usic}_${trial}.equ.custom type x y z ix iy iz
#dump_modify 1 first no sort id
#dump 2 all cfg 50000 ./equilibration/trajectory/ovito/dumpgen.tens_*.cfg mass type xs ys zs fx fy fz

# thermo_style
thermo_style custom step temp press pe density ke etotal lx ly lz xlo xhi ylo yhi zlo zhi vol dt time cpu tpcpu spcpu cpuremain

# run info
timestep ${ts}
timestep 0.5
thermo 200

# fix

fix 1 all momentum 1000 linear 1 1 1 angular
variable T equal ${temp}
variable T equal 300
fix 2 all nvt temp ${T} 370000 100.0
fix 2 all nvt temp 300 370000 100.0

run 100000
Generated 0 of 1 mixed pair_coeff terms from geometric mixing rule
Unused restart file global fix info:
  fix style: npt, fix ID: 5
Neighbor list info ...
  update every 1 steps, delay 0 steps, check yes
  max neighbors/atom: 2000, page size: 100000
  master list distance cutoff = 117.92
  ghost atom cutoff = 117.92
  binsize = 58.96, bins = 11 11 11
  1 neighbor lists, perpetual/occasional/extra = 1 0 0
  (1) pair table, perpetual
      attributes: half, newton on
      pair build: half/bin/atomonly/newton
      stencil: half/bin/3d
      bin: standard
Per MPI rank memory allocation (min/avg/max) = 3.086 | 3.089 | 3.091 Mbytes
   Step          Temp          Press          PotEng        Density         KinEng         TotEng           Lx             Ly             Lz            Xlo            Xhi            Ylo            Yhi            Zlo            Zhi           Volume           Dt            Time           CPU           T/CPU          S/CPU         CPULeft    
  22405000   311.62337      2.5219381     -21558533       2.2018429      924.24564     -21557609       595.64669      595.64669      595.64669      2202.1767      2797.8233      2202.1767      2797.8233      2202.1767      2797.8233      2.1133245e+08  0.5            11205000       0              0              0              0            
  22405200   366.58826      2.9566225     -21558534       2.2018429      1087.2663     -21557447       595.64669      595.64669      595.64669      2202.1767      2797.8233      2202.1767      2797.8233      2202.1767      2797.8233      2.1133245e+08  0.5            11205100       0.018571601    5384.3381      10768.16       9.2685033    
  22405400   509.07959      3.3237545     -21558532       2.2018429      1509.8822     -21557022       595.64669      595.64669      595.64669      2202.1767      2797.8233      2202.1767      2797.8233      2202.1767      2797.8233      2.1133245e+08  0.5            11205200       0.036998332    5426.9363      10853.872      9.213193     
  22405600   754.44156      3.3413622     -21558528       2.2018429      2237.6027     -21556291       595.64669      595.64669      595.64669      2202.1767      2797.8233      2202.1767      2797.8233      2202.1767      2797.8233      2.1133245e+08  0.5            11205300       0.055346769    5450.081       10900.196      9.1694751    
  22405800   1149.7289      3.5507091     -21558144       2.2018429      3409.9878     -21554734       595.64669      595.64669      595.64669      2202.1767      2797.8233      2202.1767      2797.8233      2202.1767      2797.8233      2.1133245e+08  0.5            11205400       0.073736233    5437.8911      10875.767      9.1435781    
  22406000   1762.6759      3.6733205     -21559632       2.2018429      5227.9309     -21554404       595.64669      595.64669      595.64669      2202.1767      2797.8233      2202.1767      2797.8233      2202.1767      2797.8233      2.1133245e+08  0.5            11205500       0.092129263    5436.8158      10873.627      9.1210304    
  22406200   2673.0095      3.8661995     -21559561       2.2018429      7927.8951     -21551633       595.64669      595.64669      595.64669      2202.1767      2797.8233      2202.1767      2797.8233      2202.1767      2797.8233      2.1133245e+08  0.5            11205600       0.11048027     5449.2973      10898.612      9.0963994    
  22406400   3920.2869      4.0340879     -21559431       2.2018429      11627.203     -21547804       595.64669      595.64669      595.64669      2202.1767      2797.8233      2202.1767      2797.8233      2202.1767      2797.8233      2.1133245e+08  0.5            11205700       0.12883202     5449.1019      10898.193      9.0736132    
  22406600   5431.141       4.5815383     -21566598       2.2018429      16108.254     -21550490       595.64669      595.64669      595.64669      2202.1767      2797.8233      2202.1767      2797.8233      2202.1767      2797.8233      2.1133245e+08  0.5            11205800       0.14773416     5290.4211      10580.884      9.0857754    
  22406800   6923.0361      7.4424152     -21566649       2.2018429      20533.074     -21546116       595.64669      595.64669      595.64669      2202.1767      2797.8233      2202.1767      2797.8233      2202.1767      2797.8233      2.1133245e+08  0.5            11205900       0.16608313     5449.8856      10899.758      9.0608763    
  22407000   7970.048       8.0368853     -21575851       2.2018429      23638.413     -21552212       595.64669      595.64669      595.64669      2202.1767      2797.8233      2202.1767      2797.8233      2202.1767      2797.8233      2.1133245e+08  0.5            11206000       0.18442044     5453.3483      10906.696      9.036708     
  22407200   8441.6148      9.4333364     -21575666       2.2018429      25037.036     -21550629       595.64669      595.64669      595.64669      2202.1767      2797.8233      2202.1767      2797.8233      2202.1767      2797.8233      2.1133245e+08  0.5            11206100       0.20297748     5388.7852      10777.574      9.0233711    
  22407400   8869.5138      12.799491     -21574650       2.2018429      26306.144     -21548344       595.64669      595.64669      595.64669      2202.1767      2797.8233      2202.1767      2797.8233      2202.1767      2797.8233      2.1133245e+08  0.5            11206200       0.22128469     5462.341       10924.664      8.9990009    
  22407600   9732.469       16.20259      -21573880       2.2018429      28865.588     -21545014       595.64669      595.64669      595.64669      2202.1767      2797.8233      2202.1767      2797.8233      2202.1767      2797.8233      2.1133245e+08  0.5            11206300       0.23954629     5475.9813      10951.978      8.9738528    
  22407800   10752.648      19.877732     -21573715       2.2018429      31891.343     -21541823       595.64669      595.64669      595.64669      2202.1767      2797.8233      2202.1767      2797.8233      2202.1767      2797.8233      2.1133245e+08  0.5            11206400       0.25789286     5450.6143      10901.213      8.9526389    
  22408000   11485.829      24.910098     -21576461       2.2018429      34065.889     -21542395       595.64669      595.64669      595.64669      2202.1767      2797.8233      2202.1767      2797.8233      2202.1767      2797.8233      2.1133245e+08  0.5            11206500       0.27647927     5380.2723      10760.551      8.9395651    
  22408200   12003.904      27.83132      -21575300       2.2018429      35602.452     -21539698       595.64669      595.64669      595.64669      2202.1767      2797.8233      2202.1767      2797.8233      2202.1767      2797.8233      2.1133245e+08  0.5            11206600       0.2950202      5393.4628      10786.94       8.9244282    
  22408400   12683.738      33.422882     -21575558       2.2018429      37618.776     -21537940       595.64669      595.64669      595.64669      2202.1767      2797.8233      2202.1767      2797.8233      2202.1767      2797.8233      2.1133245e+08  0.5            11206700       0.31341978     5434.925       10869.823      8.9048695    
  22408600   13580.614      37.932328     -21574146       2.2018429      40278.824     -21533867       595.64669      595.64669      595.64669      2202.1767      2797.8233      2202.1767      2797.8233      2202.1767      2797.8233      2.1133245e+08  0.5            11206800       0.33178522     5445.0068      10890.001      8.8845288    
  22408800   14422.857      41.829154     -21572621       2.2018429      42776.838     -21529844       595.64669      595.64669      595.64669      2202.1767      2797.8233      2202.1767      2797.8233      2202.1767      2797.8233      2.1133245e+08  0.5            11206900       0.35042916     5363.6593      10727.339      8.8714474    
  22409000   15066.577      47.328166     -21571365       2.2018429      44686.051     -21526679       595.64669      595.64669      595.64669      2202.1767      2797.8233      2202.1767      2797.8233      2202.1767      2797.8233      2.1133245e+08  0.5            11207000       0.36890068     5413.7264      10827.426      8.8536721    
  22409200   15690.807      54.94824      -21568896       2.2018429      46537.46      -21522358       595.64669      595.64669      595.64669      2202.1767      2797.8233      2202.1767      2797.8233      2202.1767      2797.8233      2.1133245e+08  0.5            11207100       0.38731856     5429.5222      10859.04       8.8346042    
  22409400   16487.285      60.400684     -21567099       2.2018429      48899.736     -21518199       595.64669      595.64669      595.64669      2202.1767      2797.8233      2202.1767      2797.8233      2202.1767      2797.8233      2.1133245e+08  0.5            11207200       0.40570107     5439.9452      10879.934      8.8148257    
  22409600   17341.793      69.388739     -21565228       2.2018429      51434.129     -21513794       595.64669      595.64669      595.64669      2202.1767      2797.8233      2202.1767      2797.8233      2202.1767      2797.8233      2.1133245e+08  0.5            11207300       0.42433949     5365.2605      10730.487      8.8004787    
  22409800   18074.551      77.460868     -21563304       2.2018429      53607.419     -21509697       595.64669      595.64669      595.64669      2202.1767      2797.8233      2202.1767      2797.8233      2202.1767      2797.8233      2.1133245e+08  0.5            11207400       0.44271746     5441.3083      10882.634      8.7806065    
  22410000   18717.819      84.491386     -21560976       2.2018429      55515.29      -21505461       595.64669      595.64669      595.64669      2202.1767      2797.8233      2202.1767      2797.8233      2202.1767      2797.8233      2.1133245e+08  0.5            11207500       0.46118255     5415.6146      10831.194      8.7625129    
  22410200   19442.969      92.870729     -21550088       2.2018429      57666.018     -21492422       595.64669      595.64669      595.64669      2202.1767      2797.8233      2202.1767      2797.8233      2202.1767      2797.8233      2.1133245e+08  0.5            11207600       0.47994334     5330.2821      10660.61       8.7497755    
  22410400   20277.372      97.46295      -21553603       2.2018429      60140.778     -21493462       595.64669      595.64669      595.64669      2202.1767      2797.8233      2202.1767      2797.8233      2202.1767      2797.8233      2.1133245e+08  0.5            11207700       0.49836008     5429.8314      10859.656      8.7305689    
  22410600   21067.76       104.38559     -21550145       2.2018429      62484.997     -21487660       595.64669      595.64669      595.64669      2202.1767      2797.8233      2202.1767      2797.8233      2202.1767      2797.8233      2.1133245e+08  0.5            11207800       0.51683352     5413.1884      10826.392      8.7123713    
  22410800   21741.14       111.27179     -21556353       2.2018429      64482.179     -21491871       595.64669      595.64669      595.64669      2202.1767      2797.8233      2202.1767      2797.8233      2202.1767      2797.8233      2.1133245e+08  0.5            11207900       0.53553256     5347.8633      10695.681      8.6978234    
  22411000   22426.716      120.55109     -21550728       2.2018429      66515.532     -21484212       595.64669      595.64669      595.64669      2202.1767      2797.8233      2202.1767      2797.8233      2202.1767      2797.8233      2.1133245e+08  0.5            11208000       0.55398388     5419.6647      10839.328      8.6791165    
  22411200   23220.348      127.64024     -21547439       2.2018429      68869.369     -21478570       595.64669      595.64669      595.64669      2202.1767      2797.8233      2202.1767      2797.8233      2202.1767      2797.8233      2.1133245e+08  0.5            11208100       0.57248612     5404.7621      10809.564      8.6611932    
  22411400   24030.573      134.60299     -21544221       2.2018429      71272.42      -21472948       595.64669      595.64669      595.64669      2202.1767      2797.8233      2202.1767      2797.8233      2202.1767      2797.8233      2.1133245e+08  0.5            11208200       0.59120874     5341.1185      10682.246      8.6464598    
  22411600   24753.006      143.15612     -21542625       2.2018429      73415.09      -21469210       595.64669      595.64669      595.64669      2202.1767      2797.8233      2202.1767      2797.8233      2202.1767      2797.8233      2.1133245e+08  0.5            11208300       0.6096258      5429.7465      10859.479      8.6271605    
  22411800   25417.205      147.29368     -21542627       2.2018429      75385.04      -21467242       595.64669      595.64669      595.64669      2202.1767      2797.8233      2202.1767      2797.8233      2202.1767      2797.8233      2.1133245e+08  0.5            11208400       0.62829898     5355.2797      10710.551      8.6114216    
  22412000   26142.838      153.8163      -21541162       2.2018429      77537.199     -21463625       595.64669      595.64669      595.64669      2202.1767      2797.8233      2202.1767      2797.8233      2202.1767      2797.8233      2.1133245e+08  0.5            11208500       0.64670917     5431.7665      10863.513      8.5920236    
  22412200   26962.88       160.74933     -21539397       2.2018429      79969.369     -21459428       595.64669      595.64669      595.64669      2202.1767      2797.8233      2202.1767      2797.8233      2202.1767      2797.8233      2.1133245e+08  0.5            11208600       0.66535469     5363.2238      10726.436      8.575712     
  22412400   27732.488      168.80311     -21535770       2.2018429      82251.951     -21453518       595.64669      595.64669      595.64669      2202.1767      2797.8233      2202.1767      2797.8233      2202.1767      2797.8233      2.1133245e+08  0.5            11208700       0.68376446     5431.8996      10863.814      8.5563235    
  22412600   28396.728      172.39611     -21531364       2.2018429      84222.025     -21447142       595.64669      595.64669      595.64669      2202.1767      2797.8233      2202.1767      2797.8233      2202.1767      2797.8233      2.1133245e+08  0.5            11208800       0.70214073     5441.8061      10883.661      8.5365787    
  22412800   29082.299      177.409       -21530006       2.2018429      86255.365     -21443751       595.64669      595.64669      595.64669      2202.1767      2797.8233      2202.1767      2797.8233      2202.1767      2797.8233      2.1133245e+08  0.5            11208900       0.72084404     5346.628       10693.208      8.520773     
  22413000   29876.31       184.4612      -21530195       2.2018429      88610.326     -21441585       595.64669      595.64669      595.64669      2202.1767      2797.8233      2202.1767      2797.8233      2202.1767      2797.8233      2.1133245e+08  0.5            11209000       0.73928124     5423.8203      10847.638      8.5017605    
  22413200   30667.369      192.95771     -21528766       2.2018429      90956.534     -21437810       595.64669      595.64669      595.64669      2202.1767      2797.8233      2202.1767      2797.8233      2202.1767      2797.8233      2.1133245e+08  0.5            11209100       0.75775943     5411.8153      10823.656      8.4832326    
  22413400   31375.244      196.53115     -21525755       2.2018429      93056.026     -21432699       595.64669      595.64669      595.64669      2202.1767      2797.8233      2202.1767      2797.8233      2202.1767      2797.8233      2.1133245e+08  0.5            11209200       0.77648122     5341.3385      10682.669      8.4673672    
  22413600   32054.554      202.55201     -21516835       2.2018429      95070.793     -21421764       595.64669      595.64669      595.64669      2202.1767      2797.8233      2202.1767      2797.8233      2202.1767      2797.8233      2.1133245e+08  0.5            11209300       0.79489654     5430.2749      10860.537      8.4481101    
  22413800   32807.598      209.10614     -21514872       2.2018429      97304.252     -21417567       595.64669      595.64669      595.64669      2202.1767      2797.8233      2202.1767      2797.8233      2202.1767      2797.8233      2.1133245e+08  0.5            11209400       0.81368813     5321.5442      10643.097      8.4327901    
  22414000   33594.723      219.68441     -21518680       2.2018429      99638.79      -21419042       595.64669      595.64669      595.64669      2202.1767      2797.8233      2202.1767      2797.8233      2202.1767      2797.8233      2.1133245e+08  0.5            11209500       0.83314106     5140.5805      10281.135      8.4240052    
  22414200   34347.518      227.15124     -21513156       2.2018429      101871.51     -21411285       595.64669      595.64669      595.64669      2202.1767      2797.8233      2202.1767      2797.8233      2202.1767      2797.8233      2.1133245e+08  0.5            11209600       0.85170236     5387.5644      10775.159      8.4059545    
  22414400   35043.667      230.54079     -21507197       2.2018429      103936.22     -21403261       595.64669      595.64669      595.64669      2202.1767      2797.8233      2202.1767      2797.8233      2202.1767      2797.8233      2.1133245e+08  0.5            11209700       0.87052807     5311.892       10623.762      8.3904307    
  22414600   35760.438      237.27641     -21497594       2.2018429      106062.1      -21391532       595.64669      595.64669      595.64669      2202.1767      2797.8233      2202.1767      2797.8233      2202.1767      2797.8233      2.1133245e+08  0.5            11209800       0.88921979     5349.957       10699.944      8.3735072    
  22414800   36542.832      244.19059     -21503085       2.2018429      108382.6      -21394703       595.64669      595.64669      595.64669      2202.1767      2797.8233      2202.1767      2797.8233      2202.1767      2797.8233      2.1133245e+08  0.5            11209900       0.90762482     5433.3171      10866.652      8.3538722    
  22415000   37309.891      253.5678      -21501540       2.2018429      110657.63     -21390883       595.64669      595.64669      595.64669      2202.1767      2797.8233      2202.1767      2797.8233      2202.1767      2797.8233      2.1133245e+08  0.5            11210000       0.92613466     5402.5245      10805.029      8.3352319    
  22415200   38024.451      262.48625     -21501855       2.2018429      112776.95     -21389078       595.64669      595.64669      595.64669      2202.1767      2797.8233      2202.1767      2797.8233      2202.1767      2797.8233      2.1133245e+08  0.5            11210100       0.94493961     5317.7553      10635.531      8.3191924    
  22415400   38737.977      270.3033      -21500268       2.2018429      114893.2      -21385375       595.64669      595.64669      595.64669      2202.1767      2797.8233      2202.1767      2797.8233      2202.1767      2797.8233      2.1133245e+08  0.5            11210200       0.96339511     5418.4325      10836.841      8.3000381    
  22415600   39498.156      277.39963     -21507956       2.2018429      117147.82     -21390808       595.64669      595.64669      595.64669      2202.1767      2797.8233      2202.1767      2797.8233      2202.1767      2797.8233      2.1133245e+08  0.5            11210300       0.98193793     5392.9329      10785.901      8.2816449    
  22415800   40266.565      283.54704     -21510567       2.2018429      119426.85     -21391140       595.64669      595.64669      595.64669      2202.1767      2797.8233      2202.1767      2797.8233      2202.1767      2797.8233      2.1133245e+08  0.5            11210400       1.0006769      5336.4866      10672.967      8.2648667    
  22416000   40995.1        291.33629     -21508981       2.2018429      121587.61     -21387394       595.64669      595.64669      595.64669      2202.1767      2797.8233      2202.1767      2797.8233      2202.1767      2797.8233      2.1133245e+08  0.5            11210500       1.0192431      5386.1089      10772.16       8.2466218    
  22416200   41707.056      297.20546     -21507797       2.2018429      123699.21     -21384098       595.64669      595.64669      595.64669      2202.1767      2797.8233      2202.1767      2797.8233      2202.1767      2797.8233      2.1133245e+08  0.5            11210600       1.0379327      5350.5856      10701.221      8.22934      
  22416400   42449.907      306.08204     -21509226       2.2018429      125902.43     -21383324       595.64669      595.64669      595.64669      2202.1767      2797.8233      2202.1767      2797.8233      2202.1767      2797.8233      2.1133245e+08  0.5            11210700       1.0567122      5324.9424      10649.868      8.21271      
  22416600   43220.495      315.96665     -21506069       2.2018429      128187.93     -21377881       595.64669      595.64669      595.64669      2202.1767      2797.8233      2202.1767      2797.8233      2202.1767      2797.8233      2.1133245e+08  0.5            11210800       1.0752551      5392.9137      10785.809      8.1942018    
  22416800   43965.595      322.89084     -21509902       2.2018429      130397.82     -21379504       595.64669      595.64669      595.64669      2202.1767      2797.8233      2202.1767      2797.8233      2202.1767      2797.8233      2.1133245e+08  0.5            11210900       1.0938777      5369.8134      10739.642      8.1762886    
  22417000   44671.386      328.90626     -21508232       2.2018429      132491.13     -21375741       595.64669      595.64669      595.64669      2202.1767      2797.8233      2202.1767      2797.8233      2202.1767      2797.8233      2.1133245e+08  0.5            11211000       1.112678       5319.0318      10638.035      8.1596559    
  22417200   45405.226      340.78616     -21496521       2.2018429      134667.63     -21361854       595.64669      595.64669      595.64669      2202.1767      2797.8233      2202.1767      2797.8233      2202.1767      2797.8233      2.1133245e+08  0.5            11211100       1.1314058      5339.6954      10679.426      8.1424275    
  22417400   46174.528      350.65259     -21494404       2.2018429      136949.31     -21357454       595.64669      595.64669      595.64669      2202.1767      2797.8233      2202.1767      2797.8233      2202.1767      2797.8233      2.1133245e+08  0.5            11211200       1.1500106      5374.9428      10749.901      8.1242836    
  22417600   46933.489      358.30646     -21496044       2.2018429      139200.32     -21356844       595.64669      595.64669      595.64669      2202.1767      2797.8233      2202.1767      2797.8233      2202.1767      2797.8233      2.1133245e+08  0.5            11211300       1.1688509      5307.7731      10615.528      8.1077584    
  22417800   47659.842      366.37789     -21492772       2.2018429      141354.61     -21351417       595.64669      595.64669      595.64669      2202.1767      2797.8233      2202.1767      2797.8233      2202.1767      2797.8233      2.1133245e+08  0.5            11211400       1.187345       5407.1389      10814.304      8.0888016    
  22418000   48370.722      375.63027     -21492455       2.2018429      143463.01     -21348992       595.64669      595.64669      595.64669      2202.1767      2797.8233      2202.1767      2797.8233      2202.1767      2797.8233      2.1133245e+08  0.5            11211500       1.2058594      5401.2129      10802.395      8.0699963    
  22418200   49127.632      387.47684     -21482071       2.2018429      145707.94     -21336363       595.64669      595.64669      595.64669      2202.1767      2797.8233      2202.1767      2797.8233      2202.1767      2797.8233      2.1133245e+08  0.5            11211600       1.2243719      5401.7366      10803.498      8.0511866    
  22418400   49912.59       398.39174     -21473718       2.2018429      148036.05     -21325681       595.64669      595.64669      595.64669      2202.1767      2797.8233      2202.1767      2797.8233      2202.1767      2797.8233      2.1133245e+08  0.5            11211700       1.243208       5308.9445      10617.877      8.0344778    
  22418600   50667.798      407.60737     -21473673       2.2018429      150275.93     -21323397       595.64669      595.64669      595.64669      2202.1767      2797.8233      2202.1767      2797.8233      2202.1767      2797.8233      2.1133245e+08  0.5            11211800       1.261765       5388.8178      10777.604      8.0159325    
  22418800   51381.603      416.45114     -21469389       2.2018429      152393        -21316996       595.64669      595.64669      595.64669      2202.1767      2797.8233      2202.1767      2797.8233      2202.1767      2797.8233      2.1133245e+08  0.5            11211900       1.2804078      5364.0011      10728.014      7.9979232    
  22419000   52149.503      426.47102     -21468534       2.2018429      154670.52     -21313863       595.64669      595.64669      595.64669      2202.1767      2797.8233      2202.1767      2797.8233      2202.1767      2797.8233      2.1133245e+08  0.5            11212000       1.2992763      5299.8266      10599.656      7.9812825    
  22419200   52973.715      434.89852     -21466843       2.2018429      157115.06     -21309727       595.64669      595.64669      595.64669      2202.1767      2797.8233      2202.1767      2797.8233      2202.1767      2797.8233      2.1133245e+08  0.5            11212100       1.3179524      5354.4642      10708.942      7.9634149    
  22419400   53830.944      446.46914     -21458569       2.2018429      159657.52     -21298912       595.64669      595.64669      595.64669      2202.1767      2797.8233      2202.1767      2797.8233      2202.1767      2797.8233      2.1133245e+08  0.5            11212200       1.3366396      5351.253       10702.471      7.9455924    
  22419600   54841.53       455.47117     -21456089       2.2018429      162654.82     -21293434       595.64669      595.64669      595.64669      2202.1767      2797.8233      2202.1767      2797.8233      2202.1767      2797.8233      2.1133245e+08  0.5            11212300       1.3554883      5305.3972      10610.875      7.9286899    
  22419800   56523.395      466.87377     -21435000       2.2018429      167643.08     -21267357       595.64669      595.64669      595.64669      2202.1767      2797.8233      2202.1767      2797.8233      2202.1767      2797.8233      2.1133245e+08  0.5            11212400       1.3741164      5368.2259      10736.405      7.9104665    
  22420000   58017.621      479.95034     -21432059       2.2018429      172074.81     -21259985       595.64669      595.64669      595.64669      2202.1767      2797.8233      2202.1767      2797.8233      2202.1767      2797.8233      2.1133245e+08  0.5            11212500       1.3927505      5366.5041      10732.964      7.8922658    
  22420200   56516.459      485.69558     -21430949       2.2018429      167622.5      -21263326       595.64669      595.64669      595.64669      2202.1767      2797.8233      2202.1767      2797.8233      2202.1767      2797.8233      2.1133245e+08  0.5            11212600       1.4113698      5370.7723      10741.589      7.8739698    
  22420400   53566.139      491.19951     -21426860       2.2018429      158872.13     -21267987       595.64669      595.64669      595.64669      2202.1767      2797.8233      2202.1767      2797.8233      2202.1767      2797.8233      2.1133245e+08  0.5            11212700       1.4302289      5302.4881      10604.981      7.8569833    
  22420600   56162.146      504.07403     -21427758       2.2018429      166571.64     -21261187       595.64669      595.64669      595.64669      2202.1767      2797.8233      2202.1767      2797.8233      2202.1767      2797.8233      2.1133245e+08  0.5            11212800       1.4488598      5367.4448      10734.903      7.8387137    
  22420800   58009.758      512.99856     -21425247       2.2018429      172051.49     -21253195       595.64669      595.64669      595.64669      2202.1767      2797.8233      2202.1767      2797.8233      2202.1767      2797.8233      2.1133245e+08  0.5            11212900       1.4675148      5360.492       10720.96       7.8205644    
  22421000   59449.977      522.61513     -21438609       2.2018429      176323.04     -21262286       595.64669      595.64669      595.64669      2202.1767      2797.8233      2202.1767      2797.8233      2202.1767      2797.8233      2.1133245e+08  0.5            11213000       1.4862836      5327.9687      10655.924      7.8030005    
  22421200   60545.342      532.6477      -21434503       2.2018429      179571.79     -21254932       595.64669      595.64669      595.64669      2202.1767      2797.8233      2202.1767      2797.8233      2202.1767      2797.8233      2.1133245e+08  0.5            11213100       1.5052564      5270.7022      10541.415      7.7864608    
  22421400   61184.637      542.25641     -21435350       2.2018429      181467.88     -21253882       595.64669      595.64669      595.64669      2202.1767      2797.8233      2202.1767      2797.8233      2202.1767      2797.8233      2.1133245e+08  0.5            11213200       1.5240011      5334.8416      10669.679      7.7686996    
  22421600   62792.626      553.19668     -21440147       2.2018429      186237.03     -21253910       595.64669      595.64669      595.64669      2202.1767      2797.8233      2202.1767      2797.8233      2202.1767      2797.8233      2.1133245e+08  0.5            11213300       1.5427116      5344.6097      10689.225      7.7507422    
  22421800   65130.815      558.33213     -21439435       2.2018429      193171.87     -21246263       595.64669      595.64669      595.64669      2202.1767      2797.8233      2202.1767      2797.8233      2202.1767      2797.8233      2.1133245e+08  0.5            11213400       1.5614613      5333.4056      10666.799      7.732962     
  22422000   62822.131      568.58471     -21435693       2.2018429      186324.54     -21249369       595.64669      595.64669      595.64669      2202.1767      2797.8233      2202.1767      2797.8233      2202.1767      2797.8233      2.1133245e+08  0.5            11213500       1.5806465      5212.358       10424.69       7.7172851    
  22422200   58735.921      576.183       -21434320       2.2018429      174205.22     -21260114       595.64669      595.64669      595.64669      2202.1767      2797.8233      2202.1767      2797.8233      2202.1767      2797.8233      2.1133245e+08  0.5            11213600       1.5994248      5325.2883      10650.649      7.6995664    
  22422400   61549.005      591.19474     -21431120       2.2018429      182548.56     -21248571       595.64669      595.64669      595.64669      2202.1767      2797.8233      2202.1767      2797.8233      2202.1767      2797.8233      2.1133245e+08  0.5            11213700       1.6181994      5326.3403      10652.647      7.6818075    
  22422600   63843.7        599.24745     -21426488       2.2018429      189354.41     -21237134       595.64669      595.64669      595.64669      2202.1767      2797.8233      2202.1767      2797.8233      2202.1767      2797.8233      2.1133245e+08  0.5            11213800       1.6369307      5338.6746      10677.37       7.6638216    
  22422800   66509.11       612.02967     -21426797       2.2018429      197259.77     -21229538       595.64669      595.64669      595.64669      2202.1767      2797.8233      2202.1767      2797.8233      2202.1767      2797.8233      2.1133245e+08  0.5            11213900       1.6559027      5270.9261      10541.857      7.6469309    
  22423000   67573.258      622.68909     -21435924       2.2018429      200415.93     -21235508       595.64669      595.64669      595.64669      2202.1767      2797.8233      2202.1767      2797.8233      2202.1767      2797.8233      2.1133245e+08  0.5            11214000       1.674731       5311.1204      10622.214      7.6293402    
  22423200   67483.302      625.24826     -21431239       2.2018429      200149.13     -21231090       595.64669      595.64669      595.64669      2202.1767      2797.8233      2202.1767      2797.8233      2202.1767      2797.8233      2.1133245e+08  0.5            11214100       1.6935079      5325.7254      10651.461      7.6114898    
  22423400   68295.237      637.03626     -21429587       2.2018429      202557.25     -21227029       595.64669      595.64669      595.64669      2202.1767      2797.8233      2202.1767      2797.8233      2202.1767      2797.8233      2.1133245e+08  0.5            11214200       1.7122713      5329.5112      10659.002      7.5935605    
  22423600   70939.65       647.9879      -21424821       2.2018429      210400.33     -21214420       595.64669      595.64669      595.64669      2202.1767      2797.8233      2202.1767      2797.8233      2202.1767      2797.8233      2.1133245e+08  0.5            11214300       1.7313474      5242.1586      10484.353      7.5769812    
  22423800   70795.633      657.80714     -21424858       2.2018429      209973.19     -21214885       595.64669      595.64669      595.64669      2202.1767      2797.8233      2202.1767      2797.8233      2202.1767      2797.8233      2.1133245e+08  0.5            11214400       1.750104       5331.4532      10662.88       7.5589693    
  22424000   67347.662      664.582       -21430713       2.2018429      199746.83     -21230966       595.64669      595.64669      595.64669      2202.1767      2797.8233      2202.1767      2797.8233      2202.1767      2797.8233      2.1133245e+08  0.5            11214500       1.7689136      5316.4361      10632.862      7.5411673    
  22424200   66315.349      675.56449     -21427774       2.2018429      196685.09     -21231088       595.64669      595.64669      595.64669      2202.1767      2797.8233      2202.1767      2797.8233      2202.1767      2797.8233      2.1133245e+08  0.5            11214600       1.7877125      5319.4789      10638.978      7.5232989    
  22424400   70813.943      684.18159     -21437812       2.2018429      210027.5      -21227784       595.64669      595.64669      595.64669      2202.1767      2797.8233      2202.1767      2797.8233      2202.1767      2797.8233      2.1133245e+08  0.5            11214700       1.8067103      5263.7527      10527.503      7.5062382    
  22424600   72793.51       696.6914      -21434374       2.2018429      215898.71     -21218475       595.64669      595.64669      595.64669      2202.1767      2797.8233      2202.1767      2797.8233      2202.1767      2797.8233      2.1133245e+08  0.5            11214800       1.8255271      5314.418       10628.821      7.4883951    
  22424800   74140.037      706.23799     -21440843       2.2018429      219892.38     -21220950       595.64669      595.64669      595.64669      2202.1767      2797.8233      2202.1767      2797.8233      2202.1767      2797.8233      2.1133245e+08  0.5            11214900       1.8442886      5330.0691      10660.174      7.4703084    
  22425000   74604.767      723.02321     -21434992       2.2018429      221270.73     -21213721       595.64669      595.64669      595.64669      2202.1767      2797.8233      2202.1767      2797.8233      2202.1767      2797.8233      2.1133245e+08  0.5            11215000       1.863289       5263.0064      10525.964      7.4531653    
  22425200   75327.262      734.27003     -21436377       2.2018429      223413.58     -21212963       595.64669      595.64669      595.64669      2202.1767      2797.8233      2202.1767      2797.8233      2202.1767      2797.8233      2.1133245e+08  0.5            11215100       1.882096       5317.1771      10634.381      7.43524      
  22425400   77780.099      748.05892     -21432243       2.2018429      230688.46     -21201555       595.64669      595.64669      595.64669      2202.1767      2797.8233      2202.1767      2797.8233      2202.1767      2797.8233      2.1133245e+08  0.5            11215200       1.9008044      5345.2214      10690.442      7.4168723    
  22425600   78293.783      755.0283      -21428872       2.2018429      232212        -21196660       595.64669      595.64669      595.64669      2202.1767      2797.8233      2202.1767      2797.8233      2202.1767      2797.8233      2.1133245e+08  0.5            11215300       1.9195243      5341.8801      10683.77       7.3985633    
  22425800   74518.398      765.45849     -21427427       2.2018429      221014.57     -21206412       595.64669      595.64669      595.64669      2202.1767      2797.8233      2202.1767      2797.8233      2202.1767      2797.8233      2.1133245e+08  0.5            11215400       1.9385915      5244.6094      10489.201      7.3815683    
  22426000   72825.288      777.61603     -21428770       2.2018429      215992.96     -21212777       595.64669      595.64669      595.64669      2202.1767      2797.8233      2202.1767      2797.8233      2202.1767      2797.8233      2.1133245e+08  0.5            11215500       1.9574434      5304.5361      10609.085      7.3637234    
  22426200   77611.985      788.04034     -21427526       2.2018429      230189.85     -21197336       595.64669      595.64669      595.64669      2202.1767      2797.8233      2202.1767      2797.8233      2202.1767      2797.8233      2.1133245e+08  0.5            11215600       1.9762765      5309.7789      10619.552      7.3457904    
  22426400   79270.782      800.72849     -21428202       2.2018429      235109.69     -21193093       595.64669      595.64669      595.64669      2202.1767      2797.8233      2202.1767      2797.8233      2202.1767      2797.8233      2.1133245e+08  0.5            11215700       1.9952958      5257.824       10515.635      7.3285242    
  22426600   80709.508      814.35727     -21421355       2.2018429      239376.81     -21181978       595.64669      595.64669      595.64669      2202.1767      2797.8233      2202.1767      2797.8233      2202.1767      2797.8233      2.1133245e+08  0.5            11215800       2.0140334      5336.8636      10673.754      7.3102029    
  22426800   81598.239      827.08964     -21418314       2.2018429      242012.71     -21176301       595.64669      595.64669      595.64669      2202.1767      2797.8233      2202.1767      2797.8233      2202.1767      2797.8233      2.1133245e+08  0.5            11215900       2.0328594      5311.8116      10623.611      7.2921912    
  22427000   82366.902      842.48263     -21415693       2.2018429      244292.49     -21171400       595.64669      595.64669      595.64669      2202.1767      2797.8233      2202.1767      2797.8233      2202.1767      2797.8233      2.1133245e+08  0.5            11216000       2.0518799      5257.4721      10514.915      7.2748547    
  22427200   84292.734      854.22574     -21402737       2.2018429      250004.32     -21152733       595.64669      595.64669      595.64669      2202.1767      2797.8233      2202.1767      2797.8233      2202.1767      2797.8233      2.1133245e+08  0.5            11216100       2.0706744      5320.7047      10641.443      7.2566953    
  22427400   84959.635      865.71315     -21394641       2.2018429      251982.29     -21142659       595.64669      595.64669      595.64669      2202.1767      2797.8233      2202.1767      2797.8233      2202.1767      2797.8233      2.1133245e+08  0.5            11216200       2.0894615      5322.8166      10645.645      7.2384987    
  22427600   82115.28       872.94115     -21396029       2.2018429      243546.2      -21152483       595.64669      595.64669      595.64669      2202.1767      2797.8233      2202.1767      2797.8233      2202.1767      2797.8233      2.1133245e+08  0.5            11216300       2.1084766      5258.9659      10517.939      7.2210731    
  22427800   80518.488      884.75548     -21396909       2.2018429      238810.27     -21158098       595.64669      595.64669      595.64669      2202.1767      2797.8233      2202.1767      2797.8233      2202.1767      2797.8233      2.1133245e+08  0.5            11216400       2.1271931      5342.8941      10685.795      7.202608     
  22428000   85598.673      896.05326     -21395106       2.2018429      253877.62     -21141228       595.64669      595.64669      595.64669      2202.1767      2797.8233      2202.1767      2797.8233      2202.1767      2797.8233      2.1133245e+08  0.5            11216500       2.1459119      5342.198       10684.291      7.1841477    
  22428200   86573.522      909.23482     -21390968       2.2018429      256768.93     -21134199       595.64669      595.64669      595.64669      2202.1767      2797.8233      2202.1767      2797.8233      2202.1767      2797.8233      2.1133245e+08  0.5            11216600       2.1648932      5268.3431      10536.742      7.1665504    
  22428400   86200.705      920.25261     -21380556       2.2018429      255663.19     -21124893       595.64669      595.64669      595.64669      2202.1767      2797.8233      2202.1767      2797.8233      2202.1767      2797.8233      2.1133245e+08  0.5            11216700       2.1836267      5338.0431      10676.104      7.1481184    
  22428600   87797.166      932.16727     -21375568       2.2018429      260398.14     -21115170       595.64669      595.64669      595.64669      2202.1767      2797.8233      2202.1767      2797.8233      2202.1767      2797.8233      2.1133245e+08  0.5            11216800       2.2023257      5347.895       10695.793      7.1295694    
  22428800   91337.934      943.44528     -21382795       2.2018429      270899.73     -21111895       595.64669      595.64669      595.64669      2202.1767      2797.8233      2202.1767      2797.8233      2202.1767      2797.8233      2.1133245e+08  0.5            11216900       2.2212469      5285.0636      10570.12       7.11173      
  22429000   89793.072      955.0392      -21378702       2.2018429      266317.81     -21112384       595.64669      595.64669      595.64669      2202.1767      2797.8233      2202.1767      2797.8233      2202.1767      2797.8233      2.1133245e+08  0.5            11217000       2.2399827      5337.3541      10674.676      7.0932859    
  22429200   83428.931      962.711       -21378546       2.2018429      247442.37     -21131104       595.64669      595.64669      595.64669      2202.1767      2797.8233      2202.1767      2797.8233      2202.1767      2797.8233      2.1133245e+08  0.5            11217100       2.2587191      5337.2185      10674.49       7.0748378    
  22429400   85483.563      976.82205     -21373707       2.2018429      253536.21     -21120171       595.64669      595.64669      595.64669      2202.1767      2797.8233      2202.1767      2797.8233      2202.1767      2797.8233      2.1133245e+08  0.5            11217200       2.2775427      5312.4979      10624.995      7.0566551    
  22429600   89583.123      990.00462     -21374862       2.2018429      265695.12     -21109167       595.64669      595.64669      595.64669      2202.1767      2797.8233      2202.1767      2797.8233      2202.1767      2797.8233      2.1133245e+08  0.5            11217300       2.2965196      5269.5574      10539.117      7.0389323    
  22429800   92411.618      1003.1493     -21370628       2.2018429      274084.17     -21096544       595.64669      595.64669      595.64669      2202.1767      2797.8233      2202.1767      2797.8233      2202.1767      2797.8233      2.1133245e+08  0.5            11217400       2.3152901      5327.5154      10655.048      7.0205632    
  22430000   94052.776      1016.06       -21368979       2.2018429      278951.69     -21090027       595.64669      595.64669      595.64669      2202.1767      2797.8233      2202.1767      2797.8233      2202.1767      2797.8233      2.1133245e+08  0.5            11217500       2.3341404      5304.9213      10609.822      7.0024276    
  22430200   93574.37       1026.9957     -21359381       2.2018429      277532.79     -21081848       595.64669      595.64669      595.64669      2202.1767      2797.8233      2202.1767      2797.8233      2202.1767      2797.8233      2.1133245e+08  0.5            11217600       2.3532055      5245.1945      10490.37       6.9849182    
  22430400   93124.103      1038.4709     -21351055       2.2018429      276197.33     -21074858       595.64669      595.64669      595.64669      2202.1767      2797.8233      2202.1767      2797.8233      2202.1767      2797.8233      2.1133245e+08  0.5            11217700       2.3719887      5323.9215      10647.853      6.9665557    
  22430600   96367.88       1050.8858     -21347478       2.2018429      285818.07     -21061660       595.64669      595.64669      595.64669      2202.1767      2797.8233      2202.1767      2797.8233      2202.1767      2797.8233      2.1133245e+08  0.5            11217800       2.3909968      5260.9181      10521.836      6.9488405    
  22430800   98146.607      1059.5494     -21340782       2.2018429      291093.61     -21049688       595.64669      595.64669      595.64669      2202.1767      2797.8233      2202.1767      2797.8233      2202.1767      2797.8233      2.1133245e+08  0.5            11217900       2.4097559      5330.7567      10661.536      6.9303889    
  22431000   95056.66       1070.6715     -21333229       2.2018429      281929.12     -21051300       595.64669      595.64669      595.64669      2202.1767      2797.8233      2202.1767      2797.8233      2202.1767      2797.8233      2.1133245e+08  0.5            11218000       2.4288672      5232.4905      10464.959      6.9129358    
  22431200   90323.262      1080.9181     -21335806       2.2018429      267890.31     -21067915       595.64669      595.64669      595.64669      2202.1767      2797.8233      2202.1767      2797.8233      2202.1767      2797.8233      2.1133245e+08  0.5            11218100       2.4476459      5325.1893      10650.4        6.8945199    
  22431400   95202.455      1092.4021     -21341762       2.2018429      282361.53     -21059400       595.64669      595.64669      595.64669      2202.1767      2797.8233      2202.1767      2797.8233      2202.1767      2797.8233      2.1133245e+08  0.5            11218200       2.466373       5339.834       10679.618      6.8759552    
  22431600   98907.266      1100.1191     -21340712       2.2018429      293349.65     -21047363       595.64669      595.64669      595.64669      2202.1767      2797.8233      2202.1767      2797.8233      2202.1767      2797.8233      2.1133245e+08  0.5            11218300       2.4852015      5311.1057      10622.247      6.857667     
  22431800   100168.31      1109.0566     -21339079       2.2018429      297089.79     -21041989       595.64669      595.64669      595.64669      2202.1767      2797.8233      2202.1767      2797.8233      2202.1767      2797.8233      2.1133245e+08  0.5            11218400       2.5042094      5260.9937      10521.984      6.839861     
  22432000   100413.78      1118.798      -21338265       2.2018429      297817.84     -21040447       595.64669      595.64669      595.64669      2202.1767      2797.8233      2202.1767      2797.8233      2202.1767      2797.8233      2.1133245e+08  0.5            11218500       2.5229922      5323.9929      10647.942      6.8214295    
  22432200   100958.31      1128.5892     -21335582       2.2018429      299432.86     -21036149       595.64669      595.64669      595.64669      2202.1767      2797.8233      2202.1767      2797.8233      2202.1767      2797.8233      2.1133245e+08  0.5            11218600       2.5417766      5323.5953      10647.234      6.8029957    
  22432400   103509.42      1140.6896     -21335342       2.2018429      306999.2      -21028342       595.64669      595.64669      595.64669      2202.1767      2797.8233      2202.1767      2797.8233      2202.1767      2797.8233      2.1133245e+08  0.5            11218700       2.5608061      5254.9789      10509.966      6.785207     
  22432600   105121.07      1148.8458     -21334378       2.2018429      311779.22     -21022599       595.64669      595.64669      595.64669      2202.1767      2797.8233      2202.1767      2797.8233      2202.1767      2797.8233      2.1133245e+08  0.5            11218800       2.5797069      5290.7909      10581.555      6.7670627    
  22432800   101666.44      1146.7441     -21344039       2.2018429      301533.1      -21042506       595.64669      595.64669      595.64669      2202.1767      2797.8233      2202.1767      2797.8233      2202.1767      2797.8233      2.1133245e+08  0.5            11218900       2.5984807      5326.5696      10653.15       6.7485777    
  22433000   97703.398      1154.7484     -21337179       2.2018429      289779.09     -21047400       595.64669      595.64669      595.64669      2202.1767      2797.8233      2202.1767      2797.8233      2202.1767      2797.8233      2.1133245e+08  0.5            11219000       2.6175737      5237.5147      10475.023      6.7309093    
  22433200   103598.4       1161.8336     -21336473       2.2018429      307263.11     -21029210       595.64669      595.64669      595.64669      2202.1767      2797.8233      2202.1767      2797.8233      2202.1767      2797.8233      2.1133245e+08  0.5            11219100       2.6363835      5316.3929      10632.781      6.7124995    
  22433400   105825.18      1174.0558     -21325012       2.2018429      313867.54     -21011145       595.64669      595.64669      595.64669      2202.1767      2797.8233      2202.1767      2797.8233      2202.1767      2797.8233      2.1133245e+08  0.5            11219200       2.6551642      5324.6101      10649.238      6.6940108    
  22433600   105908.66      1184.0778     -21309446       2.2018429      314115.14     -20995331       595.64669      595.64669      595.64669      2202.1767      2797.8233      2202.1767      2797.8233      2202.1767      2797.8233      2.1133245e+08  0.5            11219300       2.674266       5235.0969      10470.211      6.6763194    
  22433800   106778.16      1193.808      -21298059       2.2018429      316693.97     -20981365       595.64669      595.64669      595.64669      2202.1767      2797.8233      2202.1767      2797.8233      2202.1767      2797.8233      2.1133245e+08  0.5            11219400       2.6933295      5245.6314      10491.261      6.6585142    
  22434000   110089.32      1209.4947     -21286728       2.2018429      326514.58     -20960213       595.64669      595.64669      595.64669      2202.1767      2797.8233      2202.1767      2797.8233      2202.1767      2797.8233      2.1133245e+08  0.5            11219500       2.7125036      5215.3616      10430.676      6.6409625    
  22434200   111603.99      1215.9645     -21285021       2.2018429      331006.93     -20954014       595.64669      595.64669      595.64669      2202.1767      2797.8233      2202.1767      2797.8233      2202.1767      2797.8233      2.1133245e+08  0.5            11219600       2.7317814      5187.3422      10374.739      6.6236391    
  22434400   105951.25      1215.1309     -21288613       2.2018429      314241.45     -20974372       595.64669      595.64669      595.64669      2202.1767      2797.8233      2202.1767      2797.8233      2202.1767      2797.8233      2.1133245e+08  0.5            11219700       2.7505622      5324.565       10649.077      6.6050967    
  22434600   103365.75      1222.4332     -21284386       2.2018429      306573.1      -20977813       595.64669      595.64669      595.64669      2202.1767      2797.8233      2202.1767      2797.8233      2202.1767      2797.8233      2.1133245e+08  0.5            11219800       2.769358       5320.3211      10640.66       6.5865864    
  22434800   109440.87      1231.5758     -21283998       2.2018429      324591.35     -20959407       595.64669      595.64669      595.64669      2202.1767      2797.8233      2202.1767      2797.8233      2202.1767      2797.8233      2.1133245e+08  0.5            11219900       2.7881414      5323.8586      10647.718      6.5680429    
  22435000   111116.51      1243.8626     -21278132       2.2018429      329561.13     -20948570       595.64669      595.64669      595.64669      2202.1767      2797.8233      2202.1767      2797.8233      2202.1767      2797.8233      2.1133245e+08  0.5            11220000       2.8072234      5240.5625      10481.142      6.5501927    
  22435200   112237.92      1249.8998     -21272454       2.2018429      332887.12     -20939566       595.64669      595.64669      595.64669      2202.1767      2797.8233      2202.1767      2797.8233      2202.1767      2797.8233      2.1133245e+08  0.5            11220100       2.826382       5219.578       10439.129      6.5325038    
  22435400   113732.85      1259.0506     -21275559       2.2018429      337320.94     -20938238       595.64669      595.64669      595.64669      2202.1767      2797.8233      2202.1767      2797.8233      2202.1767      2797.8233      2.1133245e+08  0.5            11220200       2.8457363      5166.7897      10333.608      6.5152434    
  22435600   115641.72      1270.7489     -21264226       2.2018429      342982.47     -20921243       595.64669      595.64669      595.64669      2202.1767      2797.8233      2202.1767      2797.8233      2202.1767      2797.8233      2.1133245e+08  0.5            11220300       2.8650816      5169.2396      10338.501      6.4979347    
  22435800   116181.56      1277.9086     -21272898       2.2018429      344583.58     -20928315       595.64669      595.64669      595.64669      2202.1767      2797.8233      2202.1767      2797.8233      2202.1767      2797.8233      2.1133245e+08  0.5            11220400       2.8839473      5300.6171      10601.233      6.4795225    
  22436000   112943.65      1284.3894     -21273392       2.2018429      334980.24     -20938412       595.64669      595.64669      595.64669      2202.1767      2797.8233      2202.1767      2797.8233      2202.1767      2797.8233      2.1133245e+08  0.5            11220500       2.9027916      5306.6529      10613.272      6.4610569    
  22436200   111472.12      1287.7405     -21281317       2.2018429      330615.84     -20950701       595.64669      595.64669      595.64669      2202.1767      2797.8233      2202.1767      2797.8233      2202.1767      2797.8233      2.1133245e+08  0.5            11220600       2.9219032      5232.3999      10464.793      6.4431759    
  22436400   117772.88      1301.4055     -21277748       2.2018429      349303.29     -20928445       595.64669      595.64669      595.64669      2202.1767      2797.8233      2202.1767      2797.8233      2202.1767      2797.8233      2.1133245e+08  0.5            11220700       2.9408535      5276.98        10553.95       6.4249267    
  22436600   119033.71      1311.6453     -21284172       2.2018429      353042.78     -20931130       595.64669      595.64669      595.64669      2202.1767      2797.8233      2202.1767      2797.8233      2202.1767      2797.8233      2.1133245e+08  0.5            11220800       2.9596593      5317.5028      10635.029      6.4063556    
  22436800   116567.68      1315.173      -21277953       2.2018429      345728.77     -20932224       595.64669      595.64669      595.64669      2202.1767      2797.8233      2202.1767      2797.8233      2202.1767      2797.8233      2.1133245e+08  0.5            11220900       2.9788357      5214.7314      10429.461      6.3885768    
  22437000   116210.49      1324.9356     -21279781       2.2018429      344669.4      -20935111       595.64669      595.64669      595.64669      2202.1767      2797.8233      2202.1767      2797.8233      2202.1767      2797.8233      2.1133245e+08  0.5            11221000       2.9977875      5276.5587      10553.13       6.3703029    
  22437200   123772.09      1336.286      -21277148       2.2018429      367096.37     -20910051       595.64669      595.64669      595.64669      2202.1767      2797.8233      2202.1767      2797.8233      2202.1767      2797.8233      2.1133245e+08  0.5            11221100       3.0166442      5303.1368      10606.282      6.3518205    
  22437400   122808.42      1344.362      -21291887       2.2018429      364238.23     -20927648       595.64669      595.64669      595.64669      2202.1767      2797.8233      2202.1767      2797.8233      2202.1767      2797.8233      2.1133245e+08  0.5            11221200       3.0357716      5228.1196      10456.232      6.3338981    
  22437600   117639.89      1347.7949     -21291519       2.2018429      348908.86     -20942610       595.64669      595.64669      595.64669      2202.1767      2797.8233      2202.1767      2797.8233      2202.1767      2797.8233      2.1133245e+08  0.5            11221300       3.0548036      5254.3019      10508.576      6.3157641    
  22437800   118478.06      1357.6871     -21301705       2.2018429      351394.78     -20950310       595.64669      595.64669      595.64669      2202.1767      2797.8233      2202.1767      2797.8233      2202.1767      2797.8233      2.1133245e+08  0.5            11221400       3.0738333      5254.9651      10509.972      6.2976137    
  22438000   125175.12      1368.9839     -21299178       2.2018429      371257.64     -20927920       595.64669      595.64669      595.64669      2202.1767      2797.8233      2202.1767      2797.8233      2202.1767      2797.8233      2.1133245e+08  0.5            11221500       3.0930305      5209.0642      10418.083      6.2797936    
  22438200   124193.92      1380.6122     -21294690       2.2018429      368347.49     -20926342       595.64669      595.64669      595.64669      2202.1767      2797.8233      2202.1767      2797.8233      2202.1767      2797.8233      2.1133245e+08  0.5            11221600       3.1119352      5289.7164      10579.478      6.2613676    
  22438400   121812.63      1386.2072     -21273893       2.2018429      361284.8      -20912608       595.64669      595.64669      595.64669      2202.1767      2797.8233      2202.1767      2797.8233      2202.1767      2797.8233      2.1133245e+08  0.5            11221700       3.1307706      5309.146       10618.273      6.2427982    
  22438600   123049.97      1396.2854     -21281048       2.2018429      364954.66     -20916094       595.64669      595.64669      595.64669      2202.1767      2797.8233      2202.1767      2797.8233      2202.1767      2797.8233      2.1133245e+08  0.5            11221800       3.1496005      5310.7052      10621.417      6.2242145    
  22438800   128704.05      1410.4947     -21275916       2.2018429      381724.11     -20894192       595.64669      595.64669      595.64669      2202.1767      2797.8233      2202.1767      2797.8233      2202.1767      2797.8233      2.1133245e+08  0.5            11221900       3.1686843      5240.0485      10480.083      6.2061253    
  22439000   128285.07      1423.5088     -21272662       2.2018429      380481.46     -20892180       595.64669      595.64669      595.64669      2202.1767      2797.8233      2202.1767      2797.8233      2202.1767      2797.8233      2.1133245e+08  0.5            11222000       3.1876828      5263.5732      10527.135      6.1878589    
  22439200   121669.95      1427.3558     -21267944       2.2018429      360861.63     -20907082       595.64669      595.64669      595.64669      2202.1767      2797.8233      2202.1767      2797.8233      2202.1767      2797.8233      2.1133245e+08  0.5            11222100       3.2066546      5270.9625      10541.95       6.1695326    
  22439400   115911.76      1440.481      -21254653       2.2018429      343783.38     -20910869       595.64669      595.64669      595.64669      2202.1767      2797.8233      2202.1767      2797.8233      2202.1767      2797.8233      2.1133245e+08  0.5            11222200       3.2258091      5220.7239      10441.455      6.1515467    
  22439600   125696.2       1461.9732     -21250979       2.2018429      372803.12     -20878176       595.64669      595.64669      595.64669      2202.1767      2797.8233      2202.1767      2797.8233      2202.1767      2797.8233      2.1133245e+08  0.5            11222300       3.2447388      5282.6916      10565.346      6.133123     
  22439800   129892         1473.0697     -21257087       2.2018429      385247.45     -20871839       595.64669      595.64669      595.64669      2202.1767      2797.8233      2202.1767      2797.8233      2202.1767      2797.8233      2.1133245e+08  0.5            11222400       3.2636249      5294.8961      10589.799      6.1146116    
  22440000   131483.51      1485.8031     -21253283       2.2018429      389967.72     -20863316       595.64669      595.64669      595.64669      2202.1767      2797.8233      2202.1767      2797.8233      2202.1767      2797.8233      2.1133245e+08  0.5            11222500       3.2828993      5188.2335      10376.468      6.0968169    
  22440200   130109.49      1500.0941     -21238938       2.2018429      385892.52     -20853045       595.64669      595.64669      595.64669      2202.1767      2797.8233      2202.1767      2797.8233      2202.1767      2797.8233      2.1133245e+08  0.5            11222600       3.3019057      5261.3892      10522.783      6.0785121    
  22440400   129079.98      1514.4943     -21231529       2.2018429      382839.08     -20848690       595.64669      595.64669      595.64669      2202.1767      2797.8233      2202.1767      2797.8233      2202.1767      2797.8233      2.1133245e+08  0.5            11222700       3.3209795      5242.7935      10485.588      6.0603223    
  22440600   133362.4       1534.6454     -21228286       2.2018429      395540.35     -20832745       595.64669      595.64669      595.64669      2202.1767      2797.8233      2202.1767      2797.8233      2202.1767      2797.8233      2.1133245e+08  0.5            11222800       3.3402938      5177.5053      10354.99       6.0425579    
  22440800   136240.84      1546.5917     -21234842       2.2018429      404077.53     -20830765       595.64669      595.64669      595.64669      2202.1767      2797.8233      2202.1767      2797.8233      2202.1767      2797.8233      2.1133245e+08  0.5            11222900       3.3593029      5260.6472      10521.33       6.0242284    
  22441000   132069.36      1558.6701     -21230098       2.2018429      391705.31     -20838393       595.64669      595.64669      595.64669      2202.1767      2797.8233      2202.1767      2797.8233      2202.1767      2797.8233      2.1133245e+08  0.5            11223000       3.3783212      5258.0894      10516.147      6.0059081    
  22441200   124327.3       1569.873      -21223544       2.2018429      368743.07     -20854801       595.64669      595.64669      595.64669      2202.1767      2797.8233      2202.1767      2797.8233      2202.1767      2797.8233      2.1133245e+08  0.5            11223100       3.397597       5187.8457      10375.705      5.9880338    
  22441400   129613.36      1590.279      -21221389       2.2018429      384421.05     -20836967       595.64669      595.64669      595.64669      2202.1767      2797.8233      2202.1767      2797.8233      2202.1767      2797.8233      2.1133245e+08  0.5            11223200       3.4165219      5284.06        10568.084      5.969531     
  22441600   135539.39      1608.6543     -21205618       2.2018429      401997.1      -20803621       595.64669      595.64669      595.64669      2202.1767      2797.8233      2202.1767      2797.8233      2202.1767      2797.8233      2.1133245e+08  0.5            11223300       3.4354361      5287.0081      10574.059      5.9510051    
  22441800   137738.91      1620.426      -21217106       2.2018429      408520.67     -20808585       595.64669      595.64669      595.64669      2202.1767      2797.8233      2202.1767      2797.8233      2202.1767      2797.8233      2.1133245e+08  0.5            11223400       3.4546321      5209.427       10418.863      5.9329587    
  22442000   137867.43      1637.3725     -21220219       2.2018429      408901.84     -20811317       595.64669      595.64669      595.64669      2202.1767      2797.8233      2202.1767      2797.8233      2202.1767      2797.8233      2.1133245e+08  0.5            11223500       3.4737378      5234.0363      10468.033      5.9147465    
  22442200   137051.66      1651.5171     -21227567       2.2018429      406482.33     -20821085       595.64669      595.64669      595.64669      2202.1767      2797.8233      2202.1767      2797.8233      2202.1767      2797.8233      2.1133245e+08  0.5            11223600       3.4927406      5262.3813      10524.788      5.8963507    
  22442400   138964.83      1666.9187     -21222371       2.2018429      412156.61     -20810214       595.64669      595.64669      595.64669      2202.1767      2797.8233      2202.1767      2797.8233      2202.1767      2797.8233      2.1133245e+08  0.5            11223700       3.5117149      5270.2961      10540.594      5.8779006    
  22442600   143411.33      1683.6605     -21213607       2.2018429      425344.52     -20788262       595.64669      595.64669      595.64669      2202.1767      2797.8233      2202.1767      2797.8233      2202.1767      2797.8233      2.1133245e+08  0.5            11223800       3.5308914      5214.7029      10429.393      5.8597808    
  22442800   141892.69      1692.7494     -21209272       2.2018429      420840.39     -20788432       595.64669      595.64669      595.64669      2202.1767      2797.8233      2202.1767      2797.8233      2202.1767      2797.8233      2.1133245e+08  0.5            11223900       3.5498343      5279.0322      10558.064      5.8412652    
  22443000   133459.88      1702.4576     -21207447       2.2018429      395829.45     -20811617       595.64669      595.64669      595.64669      2202.1767      2797.8233      2202.1767      2797.8233      2202.1767      2797.8233      2.1133245e+08  0.5            11224000       3.568779       5278.5058      10557.002      5.8227483    
  22443200   135609.5       1714.2135     -21212985       2.2018429      402205.02     -20810780       595.64669      595.64669      595.64669      2202.1767      2797.8233      2202.1767      2797.8233      2202.1767      2797.8233      2.1133245e+08  0.5            11224100       3.5879829      5207.2894      10414.627      5.8046459    
  22443400   142691.11      1735.1858     -21197172       2.2018429      423208.42     -20773963       595.64669      595.64669      595.64669      2202.1767      2797.8233      2202.1767      2797.8233      2202.1767      2797.8233      2.1133245e+08  0.5            11224200       3.6068343      5304.6649      10609.336      5.7859665    
  22443600   143308.05      1740.1812     -21190367       2.2018429      425038.21     -20765329       595.64669      595.64669      595.64669      2202.1767      2797.8233      2202.1767      2797.8233      2202.1767      2797.8233      2.1133245e+08  0.5            11224300       3.6257682      5281.5307      10563.03       5.7674169    
  22443800   143570.9       1751.5504     -21187899       2.2018429      425817.8      -20762081       595.64669      595.64669      595.64669      2202.1767      2797.8233      2202.1767      2797.8233      2202.1767      2797.8233      2.1133245e+08  0.5            11224400       3.6451749      5152.8402      10305.678      5.7496092    
  22444000   145339.73      1762.527      -21185623       2.2018429      431063.98     -20754560       595.64669      595.64669      595.64669      2202.1767      2797.8233      2202.1767      2797.8233      2202.1767      2797.8233      2.1133245e+08  0.5            11224500       3.6641614      5266.9143      10533.821      5.7311275    
  22444200   148665.23      1774.4951     -21184230       2.2018429      440927.1      -20743303       595.64669      595.64669      595.64669      2202.1767      2797.8233      2202.1767      2797.8233      2202.1767      2797.8233      2.1133245e+08  0.5            11224600       3.6831533      5265.4098      10530.83       5.7126491    
  22444400   148432.01      1783.6832     -21168814       2.2018429      440235.39     -20728579       595.64669      595.64669      595.64669      2202.1767      2797.8233      2202.1767      2797.8233      2202.1767      2797.8233      2.1133245e+08  0.5            11224700       3.7023375      5212.5984      10425.201      5.6944615    
  22444600   141690.53      1790.1228     -21170954       2.2018429      420240.81     -20750713       595.64669      595.64669      595.64669      2202.1767      2797.8233      2202.1767      2797.8233      2202.1767      2797.8233      2.1133245e+08  0.5            11224800       3.721295       5274.9563      10549.923      5.6759178    
  22444800   141717.8       1794.8151     -21180968       2.2018429      420321.68     -20760646       595.64669      595.64669      595.64669      2202.1767      2797.8233      2202.1767      2797.8233      2202.1767      2797.8233      2.1133245e+08  0.5            11224900       3.7405826      5184.6882      10369.359      5.6578694    
  22445000   150750.16      1806.8421     -21182284       2.2018429      447110.82     -20735174       595.64669      595.64669      595.64669      2202.1767      2797.8233      2202.1767      2797.8233      2202.1767      2797.8233      2.1133245e+08  0.5            11225000       3.7597337      5221.6235      10443.223      5.639604     
  22445200   150501.17      1814.7437     -21182823       2.2018429      446372.32     -20736451       595.64669      595.64669      595.64669      2202.1767      2797.8233      2202.1767      2797.8233      2202.1767      2797.8233      2.1133245e+08  0.5            11225100       3.7788957      5218.6723      10437.36       5.6213456    
  22445400   147544.1       1816.965      -21191889       2.2018429      437601.94     -20754287       595.64669      595.64669      595.64669      2202.1767      2797.8233      2202.1767      2797.8233      2202.1767      2797.8233      2.1133245e+08  0.5            11225200       3.7981938      5181.8562      10363.719      5.6032792    
  22445600   148006.21      1823.9549     -21192499       2.2018429      438972.52     -20753526       595.64669      595.64669      595.64669      2202.1767      2797.8233      2202.1767      2797.8233      2202.1767      2797.8233      2.1133245e+08  0.5            11225300       3.8171811      5266.683       10533.344      5.5847459    
  22445800   157119.6       1838.0925     -21196779       2.2018429      466001.98     -20730777       595.64669      595.64669      595.64669      2202.1767      2797.8233      2202.1767      2797.8233      2202.1767      2797.8233      2.1133245e+08  0.5            11225400       3.8365058      5174.7115      10349.449      5.5666978    
  22446000   155972.78      1842.0403     -21206980       2.2018429      462600.61     -20744380       595.64669      595.64669      595.64669      2202.1767      2797.8233      2202.1767      2797.8233      2202.1767      2797.8233      2.1133245e+08  0.5            11225500       3.8555751      5244.0354      10488.057      5.5482697    
  22446200   149222.85      1844.508      -21203305       2.2018429      442580.95     -20760724       595.64669      595.64669      595.64669      2202.1767      2797.8233      2202.1767      2797.8233      2202.1767      2797.8233      2.1133245e+08  0.5            11225600       3.8746876      5232.191       10464.406      5.5298969    
  22446400   149706.34      1849.2345     -21204024       2.2018429      444014.94     -20760009       595.64669      595.64669      595.64669      2202.1767      2797.8233      2202.1767      2797.8233      2202.1767      2797.8233      2.1133245e+08  0.5            11225700       3.8939646      5187.5289      10375.052      5.51175      
  22446600   152834.99      1856.9497     -21216304       2.2018429      453294.2      -20763010       595.64669      595.64669      595.64669      2202.1767      2797.8233      2202.1767      2797.8233      2202.1767      2797.8233      2.1133245e+08  0.5            11225800       3.9130194      5248.0237      10496.025      5.4932801    
  22446800   155064.76      1868.8806     -21207770       2.2018429      459907.52     -20747863       595.64669      595.64669      595.64669      2202.1767      2797.8233      2202.1767      2797.8233      2202.1767      2797.8233      2.1133245e+08  0.5            11225900       3.9320884      5244.1237      10488.287      5.4748244    
  22447000   156191.99      1874.1971     -21205674       2.2018429      463250.75     -20742423       595.64669      595.64669      595.64669      2202.1767      2797.8233      2202.1767      2797.8233      2202.1767      2797.8233      2.1133245e+08  0.5            11226000       3.9517807      5078.1154      10156.213      5.4572238    
  22447200   158175.89      1883.5901     -21210921       2.2018429      469134.83     -20741786       595.64669      595.64669      595.64669      2202.1767      2797.8233      2202.1767      2797.8233      2202.1767      2797.8233      2.1133245e+08  0.5            11226100       3.9709102      5227.5129      10455.017      5.4388326    
  22447400   163200.03      1897.0652     -21203750       2.2018429      484035.94     -20719714       595.64669      595.64669      595.64669      2202.1767      2797.8233      2202.1767      2797.8233      2202.1767      2797.8233      2.1133245e+08  0.5            11226200       3.9899458      5253.3292      10506.677      5.4203064    
  22447600   158935.76      1900.241      -21194887       2.2018429      471388.51     -20723498       595.64669      595.64669      595.64669      2202.1767      2797.8233      2202.1767      2797.8233      2202.1767      2797.8233      2.1133245e+08  0.5            11226300       4.0092045      5192.4493      10384.886      5.4020765    
  22447800   151679.36      1909.6952     -21197762       2.2018429      449866.74     -20747895       595.64669      595.64669      595.64669      2202.1767      2797.8233      2202.1767      2797.8233      2202.1767      2797.8233      2.1133245e+08  0.5            11226400       4.0283003      5236.7726      10473.563      5.383619     
  22448000   156511.26      1925.394      -21191264       2.2018429      464197.68     -20727066       595.64669      595.64669      595.64669      2202.1767      2797.8233      2202.1767      2797.8233      2202.1767      2797.8233      2.1133245e+08  0.5            11226500       4.0473258      5256.0818      10512.111      5.3650627    
  22448200   161595.74      1935.7236     -21197998       2.2018429      479277.77     -20718720       595.64669      595.64669      595.64669      2202.1767      2797.8233      2202.1767      2797.8233      2202.1767      2797.8233      2.1133245e+08  0.5            11226600       4.0666767      5167.7234      10335.473      5.3469296    
  22448400   160147.8       1945.7294     -21197508       2.2018429      474983.33     -20722525       595.64669      595.64669      595.64669      2202.1767      2797.8233      2202.1767      2797.8233      2202.1767      2797.8233      2.1133245e+08  0.5            11226700       4.0858297      5221.1229      10442.244      5.3285272    
  22448600   159844.73      1956.1746     -21191550       2.2018429      474084.45     -20717465       595.64669      595.64669      595.64669      2202.1767      2797.8233      2202.1767      2797.8233      2202.1767      2797.8233      2.1133245e+08  0.5            11226800       4.104835       5261.6827      10523.365      5.3099269    
  22448800   165415.73      1968.459      -21193642       2.2018429      490607.5      -20703034       595.64669      595.64669      595.64669      2202.1767      2797.8233      2202.1767      2797.8233      2202.1767      2797.8233      2.1133245e+08  0.5            11226900       4.1240801      5196.1368      10392.305      5.2916305    
  22449000   168976.36      1986.3344     -21185096       2.2018429      501167.99     -20683928       595.64669      595.64669      595.64669      2202.1767      2797.8233      2202.1767      2797.8233      2202.1767      2797.8233      2.1133245e+08  0.5            11227000       4.14314        5246.579       10493.073      5.2730903    
  22449200   159473.65      1996.3427     -21175484       2.2018429      472983.85     -20702500       595.64669      595.64669      595.64669      2202.1767      2797.8233      2202.1767      2797.8233      2202.1767      2797.8233      2.1133245e+08  0.5            11227100       4.1624507      5178.5116      10357.082      5.2548612    
  22449400   153320.34      2001.6795     -21172840       2.2018429      454733.73     -20718106       595.64669      595.64669      595.64669      2202.1767      2797.8233      2202.1767      2797.8233      2202.1767      2797.8233      2.1133245e+08  0.5            11227200       4.1814879      5252.8667      10505.727      5.2362803    
  22449600   159660.45      2016.9914     -21179725       2.2018429      473537.89     -20706187       595.64669      595.64669      595.64669      2202.1767      2797.8233      2202.1767      2797.8233      2202.1767      2797.8233      2.1133245e+08  0.5            11227300       4.200518       5254.8185      10509.632      5.2176865    
  22449800   165105.43      2034.5554     -21177881       2.2018429      489687.18     -20688194       595.64669      595.64669      595.64669      2202.1767      2797.8233      2202.1767      2797.8233      2202.1767      2797.8233      2.1133245e+08  0.5            11227400       4.2197924      5188.2432      10376.534      5.1993896    
[...]
  23094400   306.37209      1.0428195     -21499977       2.200749       908.67081     -21499068       595.74536      595.74536      595.74536      2202.1273      2797.8727      2202.1273      2797.8727      2202.1273      2797.8727      2.114375e+08   0.5            11549700       31.051296      4659.1722      9318.3479      1.1373316    
  23094600   298.345        0.25331238    -21499985       2.200732       884.86323     -21499100       595.74689      595.74689      595.74689      2202.1266      2797.8734      2202.1266      2797.8734      2202.1266      2797.8734      2.1143913e+08  0.5            11549800       31.072779      4654.8113      9309.6022      1.1158734    
  23094800   301.15065     -0.24081595    -21499992       2.2007173      893.18453     -21499099       595.74822      595.74822      595.74822      2202.1259      2797.8741      2202.1259      2797.8741      2202.1259      2797.8741      2.1144054e+08  0.5            11549900       31.094156      4677.9662      9355.9487      1.0944114    
  23095000   292.9532      -0.58656623    -21500000       2.2007016      868.87166     -21499131       595.74964      595.74964      595.74964      2202.1252      2797.8748      2202.1252      2797.8748      2202.1252      2797.8748      2.1144205e+08  0.5            11550000       31.11565       4652.4629      9304.9072      1.0729535    
  23095200   301.24664     -0.74477955    -21500008       2.2006867      893.4692      -21499115       595.75098      595.75098      595.75098      2202.1245      2797.8755      2202.1245      2797.8755      2202.1245      2797.8755      2.1144348e+08  0.5            11550100       31.137075      4667.3418      9334.7005      1.0514933    
  23095400   301.26676     -0.39685031    -21500018       2.2006801      893.52888     -21499124       595.75158      595.75158      595.75158      2202.1242      2797.8758      2202.1242      2797.8758      2202.1242      2797.8758      2.1144412e+08  0.5            11550200       31.158592      4647.4394      9294.8828      1.0300362    
  23095600   298.87609      0.92096513    -21500028       2.200695       886.43838     -21499141       595.75023      595.75023      595.75023      2202.1249      2797.8751      2202.1249      2797.8751      2202.1249      2797.8751      2.1144268e+08  0.5            11550300       31.179976      4676.5543      9353.0959      1.0085747    
  23095800   302.23737      3.771273      -21500037       2.2007459      896.40763     -21499141       595.74564      595.74564      595.74564      2202.1272      2797.8728      2202.1272      2797.8728      2202.1272      2797.8728      2.1143779e+08  0.5            11550400       31.201301      4689.2231      9378.4414      0.98711139   
  23096000   298.14598      6.4204927     -21500046       2.2007924      884.27296     -21499162       595.74145      595.74145      595.74145      2202.1293      2797.8707      2202.1293      2797.8707      2202.1293      2797.8707      2.1143333e+08  0.5            11550500       31.222631      4688.215       9376.4092      0.96564847   
  23096200   293.12378      0.16176458    -21499686       2.2006328      869.37758     -21498817       595.75584      595.75584      595.75584      2202.1221      2797.8779      2202.1221      2797.8779      2202.1221      2797.8779      2.1144866e+08  0.5            11550600       31.24406       4666.5357      9333.0996      0.94418871   
  23096400   310.55871      4.6282701     -21499693       2.2007208      921.08794     -21498772       595.7479       595.7479       595.7479       2202.126       2797.874       2202.126       2797.874       2202.126       2797.874       2.114402e+08   0.5            11550700       31.265401      4685.7912      9371.5763      0.9227264    
  23096600   290.9476       6.4537507     -21499699       2.2007525      862.92324     -21498836       595.74505      595.74505      595.74505      2202.1275      2797.8725      2202.1275      2797.8725      2202.1275      2797.8725      2.1143716e+08  0.5            11550800       31.286793      4674.6552      9349.3056      0.90126573   
  23096800   303.74951      5.3208399     -21499707       2.2007181      900.8925      -21498806       595.74815      595.74815      595.74815      2202.1259      2797.8741      2202.1259      2797.8741      2202.1259      2797.8741      2.1144046e+08  0.5            11550900       31.308197      4672.0447      9344.1068      0.87980548   
  23097000   298.23542      1.2353164     -21499715       2.2006133      884.53821     -21498831       595.75761      595.75761      595.75761      2202.1212      2797.8788      2202.1212      2797.8788      2202.1212      2797.8788      2.1145054e+08  0.5            11551000       31.329859      4616.4614      9232.8959      0.85835237   
  23097200   301.23803     -4.9211376     -21499722       2.2004576      893.44368     -21498829       595.77165      595.77165      595.77165      2202.1142      2797.8858      2202.1142      2797.8858      2202.1142      2797.8858      2.1146549e+08  0.5            11551100       31.351308      4662.2405      9324.4936      0.83689329   
  23097400   299.44641     -9.3527074     -21499728       2.2003435      888.12992     -21498840       595.78196      595.78196      595.78196      2202.109       2797.891       2202.109       2797.891       2202.109       2797.891       2.1147646e+08  0.5            11551200       31.372823      4647.8371      9295.6949      0.81543596   
  23097600   298.09721     -1.992688      -21499735       2.2005064      884.12831     -21498851       595.76726      595.76726      595.76726      2202.1164      2797.8836      2202.1164      2797.8836      2202.1164      2797.8836      2.1146081e+08  0.5            11551300       31.394235      4670.2969      9340.5755      0.79397594   
  23097800   306.63898      9.7390756     -21499372       2.2007721      909.4624      -21498462       595.74327      595.74327      595.74327      2202.1284      2797.8716      2202.1284      2797.8716      2202.1284      2797.8716      2.1143527e+08  0.5            11551400       31.415666      4666.0699      9332.1346      0.77251645   
  23098000   297.22973     -2.6438236     -21499380       2.200489       881.55544     -21498499       595.76883      595.76883      595.76883      2202.1156      2797.8844      2202.1156      2797.8844      2202.1156      2797.8844      2.1146248e+08  0.5            11551500       31.437193      4645.3608      9290.7243      0.75105929   
  23098200   303.66259     -3.8402125     -21499388       2.2004641      900.63469     -21498487       595.77107      595.77107      595.77107      2202.1145      2797.8855      2202.1145      2797.8855      2202.1145      2797.8855      2.1146487e+08  0.5            11551600       31.458525      4687.8811      9375.7534      0.7295975    
  23098400   291.44705      8.8611802     -21499395       2.2007612      864.40456     -21498531       595.74426      595.74426      595.74426      2202.1279      2797.8721      2202.1279      2797.8721      2202.1279      2797.8721      2.1143633e+08  0.5            11551700       31.480095      4636.0514      9272.1127      0.70814125   
  23098600   303.43698     -1.9952014     -21499405       2.2005143      899.96556     -21498505       595.76654      595.76654      595.76654      2202.1167      2797.8833      2202.1167      2797.8833      2202.1167      2797.8833      2.1146004e+08  0.5            11551800       31.501593      4651.6111      9303.246       0.68668328   
  23098800   288.84452     -3.2462133     -21499412       2.2004917      856.6857      -21498555       595.76858      595.76858      595.76858      2202.1157      2797.8843      2202.1157      2797.8843      2202.1157      2797.8843      2.1146222e+08  0.5            11551900       31.522982      4675.348       9350.6725      0.66522295   
  23099000   307.52489      7.4772959     -21499418       2.2007466      912.08991     -21498506       595.74557      595.74557      595.74557      2202.1272      2797.8728      2202.1272      2797.8728      2202.1272      2797.8728      2.1143772e+08  0.5            11552000       31.544471      4653.561       9307.1016      0.64376476   
  23099200   296.76237     -4.7908571     -21499426       2.2004635      880.1693      -21498546       595.77113      595.77113      595.77113      2202.1144      2797.8856      2202.1144      2797.8856      2202.1144      2797.8856      2.1146493e+08  0.5            11552100       31.565955      4654.6377      9309.292       0.62230643   
  23099400   301.27673      5.7991114     -21499434       2.2007029      893.55846     -21498540       595.74952      595.74952      595.74952      2202.1252      2797.8748      2202.1252      2797.8748      2202.1252      2797.8748      2.1144193e+08  0.5            11552200       31.587523      4636.3753      9272.7627      0.60084967   
  23099600   288.26993     -2.6702869     -21499443       2.2004992      854.98152     -21498588       595.76791      595.76791      595.76791      2202.116       2797.884       2202.116       2797.884       2202.116       2797.884       2.114615e+08   0.5            11552300       31.608904      4677.1267      9354.2346      0.57938932   
  23099800   301.03037      4.1688641     -21499450       2.2006538      892.82779     -21498557       595.75395      595.75395      595.75395      2202.123       2797.877       2202.123       2797.877       2202.123       2797.877       2.1144664e+08  0.5            11552400       31.630362      4660.1684      9320.3464      0.55793045   
  23100000   299.27454     -2.3946745     -21499456       2.2004952      887.62015     -21498569       595.76827      595.76827      595.76827      2202.1159      2797.8841      2202.1159      2797.8841      2202.1159      2797.8841      2.1146189e+08  0.5            11552500       31.651845      4654.948       9309.8982      0.53647199   
  23100200   300.68107      2.0324719     -21499462       2.2005866      891.7918      -21498570       595.76002      595.76002      595.76002      2202.12        2797.88        2202.12        2797.88        2202.12        2797.88        2.114531e+08   0.5            11552600       31.67326       4669.5408      9339.0881      0.5150124    
  23100400   306.83913      2.767997      -21497574       2.2005806      910.05601     -21496664       595.76055      595.76055      595.76055      2202.1197      2797.8803      2202.1197      2797.8803      2202.1197      2797.8803      2.1145367e+08  0.5            11552700       31.694629      4679.6773      9359.3423      0.49355215   
  23100600   296.73125      3.0269358     -21497582       2.2005731      880.07699     -21496702       595.76124      595.76124      595.76124      2202.1194      2797.8806      2202.1194      2797.8806      2202.1194      2797.8806      2.114544e+08   0.5            11552800       31.715959      4688.1653      9376.3424      0.47209145   
  23100800   312.59782      2.5501977     -21497223       2.2005475      927.13575     -21496296       595.76355      595.76355      595.76355      2202.1182      2797.8818      2202.1182      2797.8818      2202.1182      2797.8818      2.1145686e+08  0.5            11552900       31.737353      4674.2505      9348.4923      0.45063183   
  23101000   291.14071      2.5605352     -21497232       2.2005419      863.49598     -21496369       595.76405      595.76405      595.76405      2202.118       2797.882       2202.118       2797.882       2202.118       2797.882       2.114574e+08   0.5            11553000       31.758773      4668.5912      9337.1545      0.42917264   
  23101200   309.10265      2.4564497     -21497242       2.2005351      916.7694      -21496325       595.76466      595.76466      595.76466      2202.1177      2797.8823      2202.1177      2797.8823      2202.1177      2797.8823      2.1145805e+08  0.5            11553100       31.780284      4648.8453      9297.7273      0.40771468   
  23101400   285.60043      2.4122391     -21499148       2.200537       847.06404     -21498300       595.76449      595.76449      595.76449      2202.1178      2797.8822      2202.1178      2797.8822      2202.1178      2797.8822      2.1145787e+08  0.5            11553200       31.801669      4676.1922      9352.3782      0.38625511   
  23101600   307.98249      2.7052364     -21499158       2.2005386      913.44712     -21498245       595.76435      595.76435      595.76435      2202.1178      2797.8822      2202.1178      2797.8822      2202.1178      2797.8822      2.1145771e+08  0.5            11553300       31.823313      4620.1372      9240.2782      0.36479863   
  23101800   291.89915      2.8044115     -21498799       2.2005345      865.74544     -21497934       595.76471      595.76471      595.76471      2202.1176      2797.8824      2202.1176      2797.8824      2202.1176      2797.8824      2.114581e+08   0.5            11553400       31.844711      4673.2604      9346.5063      0.34333923   
  23102000   325.05032      2.184037      -21498809       2.2005231      964.06869     -21497845       595.76574      595.76574      595.76574      2202.1171      2797.8829      2202.1171      2797.8829      2202.1171      2797.8829      2.114592e+08   0.5            11553500       31.866028      4691.2415      9382.4786      0.32187909   
  23102200   298.54077      0.53061885    -21498819       2.2004927      885.44385     -21497934       595.76849      595.76849      595.76849      2202.1158      2797.8842      2202.1158      2797.8842      2202.1158      2797.8842      2.1146213e+08  0.5            11553600       31.887446      4668.8759      9337.7648      0.30042011   
  23102400   300.605       -1.0298675     -21498830       2.2004638      891.56617     -21497938       595.7711       595.7711       595.7711       2202.1144      2797.8856      2202.1144      2797.8856      2202.1144      2797.8856      2.114649e+08   0.5            11553700       31.908785      4686.2185      9372.4459      0.27896048   
  23102600   301.54612      0.0022273825  -21498840       2.2004945      894.35746     -21497946       595.76833      595.76833      595.76833      2202.1158      2797.8842      2202.1158      2797.8842      2202.1158      2797.8842      2.1146196e+08  0.5            11553800       31.93017       4676.3172      9352.6271      0.25750139   
  23102800   297.85883      3.2287738     -21498849       2.2005781      883.42128     -21497966       595.76078      595.76078      595.76078      2202.1196      2797.8804      2202.1196      2797.8804      2202.1196      2797.8804      2.1145391e+08  0.5            11553900       31.951471      4694.4398      9388.8616      0.23604178   
  23103000   302.99056      3.4514877     -21498858       2.2005944      898.64151     -21497960       595.75931      595.75931      595.75931      2202.1203      2797.8797      2202.1203      2797.8797      2202.1203      2797.8797      2.1145235e+08  0.5            11554000       31.973014      4642.0029      9284.0123      0.214584     
  23103200   284.4446      -0.79479127    -21498867       2.2005064      843.63593     -21498023       595.76725      595.76725      595.76725      2202.1164      2797.8836      2202.1164      2797.8836      2202.1164      2797.8836      2.1146081e+08  0.5            11554100       31.994583      4636.3293      9272.6703      0.19312627   
  23103400   305.14001     -4.9842588     -21498875       2.200417       905.01659     -21497970       595.77532      595.77532      595.77532      2202.1123      2797.8877      2202.1123      2797.8877      2202.1123      2797.8877      2.114694e+08   0.5            11554200       32.015995      4670.2435      9340.4721      0.17166755   
  23103600   296.8454      -1.1587403     -21498885       2.200515       880.41556     -21498005       595.76648      595.76648      595.76648      2202.1168      2797.8832      2202.1168      2797.8832      2202.1168      2797.8832      2.1145998e+08  0.5            11554300       32.0374        4671.8264      9343.6541      0.15020885   
  23103800   302.66637      8.1131329     -21498893       2.2007391      897.67999     -21497996       595.74626      595.74626      595.74626      2202.1269      2797.8731      2202.1269      2797.8731      2202.1269      2797.8731      2.1143845e+08  0.5            11554400       32.05879       4674.9461      9349.9014      0.12875017   
  23104000   307.69292      5.3555015     -21498904       2.2006806      912.58827     -21497991       595.75153      595.75153      595.75153      2202.1242      2797.8758      2202.1242      2797.8758      2202.1242      2797.8758      2.1144407e+08  0.5            11554500       32.080315      4645.9166      9291.8517      0.10729203   
  23104200   297.01729     -7.6412312     -21498912       2.2003827      880.92535     -21498031       595.77841      595.77841      595.77841      2202.1108      2797.8892      2202.1108      2797.8892      2202.1108      2797.8892      2.1147269e+08  0.5            11554600       32.101668      4683.0077      9365.9996      0.085833345  
  23104400   305.50114      2.5947999     -21498923       2.2006283      906.08766     -21498017       595.75626      595.75626      595.75626      2202.1219      2797.8781      2202.1219      2797.8781      2202.1219      2797.8781      2.114491e+08   0.5            11554700       32.122956      4697.602       9395.2026      0.064374666  
  23104600   294.14968      6.6475299     -21498932       2.2007258      872.42029     -21498059       595.74745      595.74745      595.74745      2202.1263      2797.8737      2202.1263      2797.8737      2202.1263      2797.8737      2.1143972e+08  0.5            11554800       32.144421      4658.7778      9317.5665      0.042916453  
  23104800   303.63638     -7.8211776     -21498941       2.2003891      900.55695     -21498040       595.77784      595.77784      595.77784      2202.1111      2797.8889      2202.1111      2797.8889      2202.1111      2797.8889      2.1147208e+08  0.5            11554900       32.166304      4569.711       9139.4157      0.02145851   
  23105000   292.53865      10.265437     -21498949       2.2008142      867.64214     -21498082       595.73948      595.73948      595.73948      2202.1303      2797.8697      2202.1303      2797.8697      2202.1303      2797.8697      2.1143123e+08  0.5            11555000       32.187607      4694.2404      9388.4848      0            
Loop time of 32.1876 on 4 procs for 300000 steps with 996 atoms

Performance: 402.639 ns/day, 0.060 hours/ns, 9320.351 timesteps/s
91.9% CPU use with 4 MPI tasks x no OpenMP threads

MPI task timing breakdown:
Section |  min time  |  avg time  |  max time  |%varavg| %total
---------------------------------------------------------------
Pair    | 12.38      | 14.501     | 15.91      |  35.5 | 45.05
Neigh   | 0.012778   | 0.015151   | 0.017012   |   1.3 |  0.05
Comm    | 9.5477     | 10.978     | 13.105     |  40.7 | 34.11
Output  | 0.041424   | 0.046506   | 0.056913   |   2.8 |  0.14
Modify  | 4.8659     | 5.1387     | 5.2854     |   7.2 | 15.96
Other   |            | 1.508      |            |       |  4.68

Nlocal:            249 ave         269 max         220 min
Histogram: 1 0 0 0 1 0 0 0 1 1
Nghost:            871 ave         884 max         852 min
Histogram: 1 0 0 0 0 0 2 0 0 1
Neighs:           1698 ave        1849 max        1483 min
Histogram: 1 0 0 0 1 0 0 0 0 2

Total # of neighbors = 6792
Ave neighs/atom = 6.8192771
Neighbor list builds = 78
Dangerous builds = 0

# run_style
run_style verlet

# write restart
write_restart ${write_res}
write_restart ./pgnpmf/73/equpmf33.res
System init for write_restart ...
Generated 0 of 1 mixed pair_coeff terms from geometric mixing rule

Total wall time: 0:01:10
