LAMMPS (23 Jun 2022 - Update 1)
# Read restart
read_restart ${read_res}
read_restart ./pgnpmf/73/equpmf50.res
Reading restart file ...
  restart file = 23 Jun 2022, LAMMPS = 23 Jun 2022
  restoring atom style atomic from restart
  orthogonal box = (2202.2703 2202.2703 2202.2703) to (2797.7297 2797.7297 2797.7297)
  2 by 1 by 2 MPI processor grid
  restoring pair style table from restart
  996 atoms
  read_restart CPU = 0.004 seconds

# Settings

pair_style table spline 9941

pair_coeff 1 1 ./pgnpmf/N20.txt DE_GNP 75.6
pair_coeff 2 2 ./pgnpmf/N100.txt DE_GNP 115.92
WARNING: 3 of 9941 force values in table DE_GNP are inconsistent with -dE/dr.
WARNING:  Should only be flagged at inflection points (../pair_table.cpp:463)
pair_coeff 1 2 ./pgnpmf/mixed_potential.txt DE_GNP 95.66
WARNING: 1562 of 9941 force values in table DE_GNP are inconsistent with -dE/dr.
WARNING:  Should only be flagged at inflection points (../pair_table.cpp:463)

#Neigh_list Calc Frequency

neigh_modify delay 0 every 1 check yes

# Saving Frequency (50 frames)

variable ts_save equal ${steps_equ}
variable ts_save equal 5000

# Dump
#dump 1 all custom ${ts_save} ./pgnpmf/${folder}/equilibration/trajectory/trajectory_${usic}_${trial}.equ.custom type x y z ix iy iz
#dump_modify 1 first no sort id
#dump 2 all cfg 50000 ./equilibration/trajectory/ovito/dumpgen.tens_*.cfg mass type xs ys zs fx fy fz

# thermo_style
thermo_style custom step temp press pe density ke etotal lx ly lz xlo xhi ylo yhi zlo zhi vol dt time cpu tpcpu spcpu cpuremain

# run info
timestep ${ts}
timestep 0.5
thermo 200

# fix

fix 1 all momentum 1000 linear 1 1 1 angular
variable T equal ${temp}
variable T equal 300
fix 2 all nvt temp ${T} 370000 100.0
fix 2 all nvt temp 300 370000 100.0

run 100000
Generated 0 of 1 mixed pair_coeff terms from geometric mixing rule
Unused restart file global fix info:
  fix style: npt, fix ID: 5
Neighbor list info ...
  update every 1 steps, delay 0 steps, check yes
  max neighbors/atom: 2000, page size: 100000
  master list distance cutoff = 117.92
  ghost atom cutoff = 117.92
  binsize = 58.96, bins = 11 11 11
  1 neighbor lists, perpetual/occasional/extra = 1 0 0
  (1) pair table, perpetual
      attributes: half, newton on
      pair build: half/bin/atomonly/newton
      stencil: half/bin/3d
      bin: standard
Per MPI rank memory allocation (min/avg/max) = 3.088 | 3.089 | 3.089 Mbytes
   Step          Temp          Press          PotEng        Density         KinEng         TotEng           Lx             Ly             Lz            Xlo            Xhi            Ylo            Yhi            Zlo            Zhi           Volume           Dt            Time           CPU           T/CPU          S/CPU         CPULeft    
  35005000   292.15137     -6.5914405     -21535925       2.2039218      866.4935      -21535058       595.45934      595.45934      595.45934      2202.2703      2797.7297      2202.2703      2797.7297      2202.2703      2797.7297      2.1113311e+08  0.5            17505000       0              0              0              0            
  35005200   348.37919     -6.8535435     -21535928       2.2039218      1033.2599     -21534895       595.45934      595.45934      595.45934      2202.2703      2797.7297      2202.2703      2797.7297      2202.2703      2797.7297      2.1113311e+08  0.5            17505100       0.017831611    5607.7717      11214.982      8.8992249    
  35005400   488.24018     -7.0172153     -21535930       2.2039218      1448.0745     -21534482       595.45934      595.45934      595.45934      2202.2703      2797.7297      2202.2703      2797.7297      2202.2703      2797.7297      2.1113311e+08  0.5            17505200       0.03559249     5630.3761      11260.746      8.8631336    
  35005600   728.09989     -6.9199727     -21535927       2.2039218      2159.4758     -21533768       595.45934      595.45934      595.45934      2202.2703      2797.7297      2202.2703      2797.7297      2202.2703      2797.7297      2.1113311e+08  0.5            17505300       0.05336776     5625.7958      11251.638      8.8416411    
  35005800   1116.7931     -6.9015772     -21535914       2.2039218      3312.3033     -21532602       595.45934      595.45934      595.45934      2202.2703      2797.7297      2202.2703      2797.7297      2202.2703      2797.7297      2.1113311e+08  0.5            17505400       0.071163572    5619.3075      11238.625      8.8245635    
  35006000   1725.2518     -6.6814601     -21535885       2.2039218      5116.9348     -21530768       595.45934      595.45934      595.45934      2202.2703      2797.7297      2202.2703      2797.7297      2202.2703      2797.7297      2.1113311e+08  0.5            17505500       0.089053523    5589.7243      11179.421      8.8165319    
  35006200   2634.6646     -5.4137967     -21533932       2.2039218      7814.1674     -21526118       595.45934      595.45934      595.45934      2202.2703      2797.7297      2202.2703      2797.7297      2202.2703      2797.7297      2.1113311e+08  0.5            17505600       0.10697926     5578.5924      11157.189      8.80814      
  35006400   3891.7712     -3.5818949     -21541202       2.2039218      11542.628     -21529660       595.45934      595.45934      595.45934      2202.2703      2797.7297      2202.2703      2797.7297      2202.2703      2797.7297      2.1113311e+08  0.5            17505700       0.12477941     5617.9308      11235.927      8.7884336    
  35006600   5429.1742     -1.0072611     -21539140       2.2039218      16102.42      -21523038       595.45934      595.45934      595.45934      2202.2703      2797.7297      2202.2703      2797.7297      2202.2703      2797.7297      2.1113311e+08  0.5            17505800       0.142559       5624.4523      11248.874      8.7675081    
  35006800   6955.1201      1.3776693     -21538892       2.2039218      20628.232     -21518264       595.45934      595.45934      595.45934      2202.2703      2797.7297      2202.2703      2797.7297      2202.2703      2797.7297      2.1113311e+08  0.5            17505900       0.16073123     5502.8926      11005.765      8.768898     
  35007000   8010.4767      3.5412212     -21538552       2.2039218      23758.321     -21514794       595.45934      595.45934      595.45934      2202.2703      2797.7297      2202.2703      2797.7297      2202.2703      2797.7297      2.1113311e+08  0.5            17506000       0.1786772      5572.2932      11144.583      8.7552889    
  35007200   8444.8512      6.1940995     -21538506       2.2039218      25046.635     -21513459       595.45934      595.45934      595.45934      2202.2703      2797.7297      2202.2703      2797.7297      2202.2703      2797.7297      2.1113311e+08  0.5            17506100       0.19662218     5572.5987      11145.225      8.7408414    
  35007400   8841.1934      7.4560061     -21536490       2.2039218      26222.149     -21510268       595.45934      595.45934      595.45934      2202.2703      2797.7297      2202.2703      2797.7297      2202.2703      2797.7297      2.1113311e+08  0.5            17506200       0.21469399     5533.4813      11066.966      8.730971     
  35007600   9736.6144      9.3733101     -21535900       2.2039218      28877.883     -21507022       595.45934      595.45934      595.45934      2202.2703      2797.7297      2202.2703      2797.7297      2202.2703      2797.7297      2.1113311e+08  0.5            17506300       0.2328208      5516.6953      11033.334      8.7219029    
  35007800   10805.464      12.366915     -21535205       2.2039218      32047.991     -21503157       595.45934      595.45934      595.45934      2202.2703      2797.7297      2202.2703      2797.7297      2202.2703      2797.7297      2.1113311e+08  0.5            17506400       0.25061681     5619.2226      11238.487      8.7000566    
  35008000   11529.22       18.738133     -21539156       2.2039218      34194.582     -21504961       595.45934      595.45934      595.45934      2202.2703      2797.7297      2202.2703      2797.7297      2202.2703      2797.7297      2.1113311e+08  0.5            17506500       0.26844908     5607.8069      11215.625      8.6799213    
  35008200   11987.936      21.760538     -21538637       2.2039218      35555.09      -21503082       595.45934      595.45934      595.45934      2202.2703      2797.7297      2202.2703      2797.7297      2202.2703      2797.7297      2.1113311e+08  0.5            17506600       0.28672378     5472.0458      10944.04       8.6734613    
  35008400   12661.691      24.93241      -21536147       2.2039218      37553.384     -21498594       595.45934      595.45934      595.45934      2202.2703      2797.7297      2202.2703      2797.7297      2202.2703      2797.7297      2.1113311e+08  0.5            17506700       0.30463164     5584.1461      11168.321      8.655183     
  35008600   13627.586      27.779372     -21532834       2.2039218      40418.139     -21492415       595.45934      595.45934      595.45934      2202.2703      2797.7297      2202.2703      2797.7297      2202.2703      2797.7297      2.1113311e+08  0.5            17506800       0.32244416     5614.0266      11228.05       8.6343948    
  35008800   14493.458      32.147887     -21529797       2.2039218      42986.233     -21486811       595.45934      595.45934      595.45934      2202.2703      2797.7297      2202.2703      2797.7297      2202.2703      2797.7297      2.1113311e+08  0.5            17506900       0.34051669     5533.2721      11066.52       8.6205039    
  35009000   15077.635      37.98905      -21528210       2.2039218      44718.849     -21483491       595.45934      595.45934      595.45934      2202.2703      2797.7297      2202.2703      2797.7297      2202.2703      2797.7297      2.1113311e+08  0.5            17507000       0.35836046     5604.1915      11208.412      8.600701     
  35009200   15659.369      44.782052     -21525400       2.2039218      46444.216     -21478956       595.45934      595.45934      595.45934      2202.2703      2797.7297      2202.2703      2797.7297      2202.2703      2797.7297      2.1113311e+08  0.5            17507100       0.37621002     5602.3771      11204.777      8.5812178    
  35009400   16497.064      50.232146     -21524059       2.2039218      48928.74      -21475131       595.45934      595.45934      595.45934      2202.2703      2797.7297      2202.2703      2797.7297      2202.2703      2797.7297      2.1113311e+08  0.5            17507200       0.39423337     5548.3618      11096.719      8.5656612    
  35009600   17413.729      54.745068     -21526471       2.2039218      51647.484     -21474823       595.45934      595.45934      595.45934      2202.2703      2797.7297      2202.2703      2797.7297      2202.2703      2797.7297      2.1113311e+08  0.5            17507300       0.41221376     5561.614       11123.211      8.548997     
  35009800   18114.64       59.843288     -21522398       2.2039218      53726.321     -21468671       595.45934      595.45934      595.45934      2202.2703      2797.7297      2202.2703      2797.7297      2202.2703      2797.7297      2.1113311e+08  0.5            17507400       0.43032773     5520.5988      11041.187      8.5348753    
  35010000   18687.675      63.647861     -21520917       2.2039218      55425.886     -21465491       595.45934      595.45934      595.45934      2202.2703      2797.7297      2202.2703      2797.7297      2202.2703      2797.7297      2.1113311e+08  0.5            17507500       0.44826436     5575.1786      11150.344      8.5170636    
  35010200   19426.16       70.458195     -21519444       2.2039218      57616.166     -21461827       595.45934      595.45934      595.45934      2202.2703      2797.7297      2202.2703      2797.7297      2202.2703      2797.7297      2.1113311e+08  0.5            17507600       0.46637959     5520.2295      11040.467      8.5024963    
  35010400   20322.485      77.165935     -21517973       2.2039218      60274.582     -21457698       595.45934      595.45934      595.45934      2202.2703      2797.7297      2202.2703      2797.7297      2202.2703      2797.7297      2.1113311e+08  0.5            17507700       0.48419083     5614.4193      11228.867      8.4823421    
  35010600   21112.036      82.687317     -21518396       2.2039218      62616.315     -21455779       595.45934      595.45934      595.45934      2202.2703      2797.7297      2202.2703      2797.7297      2202.2703      2797.7297      2.1113311e+08  0.5            17507800       0.50204219     5601.8248      11203.663      8.4630307    
  35010800   21723.972      87.549515     -21525049       2.2039218      64431.258     -21460618       595.45934      595.45934      595.45934      2202.2703      2797.7297      2202.2703      2797.7297      2202.2703      2797.7297      2.1113311e+08  0.5            17507900       0.52011128     5534.2998      11068.567      8.4473588    
  35011000   22384.867      93.785283     -21517567       2.2039218      66391.411     -21451176       595.45934      595.45934      595.45934      2202.2703      2797.7297      2202.2703      2797.7297      2202.2703      2797.7297      2.1113311e+08  0.5            17508000       0.53795494     5604.238       11208.464      8.4279935    
  35011200   23224.761      95.658347     -21515796       2.2039218      68882.458     -21446914       595.45934      595.45934      595.45934      2202.2703      2797.7297      2202.2703      2797.7297      2202.2703      2797.7297      2.1113311e+08  0.5            17508100       0.55611647     5506.1446      11012.306      8.4135355    
  35011400   24071.557      103.92442     -21514418       2.2039218      71393.975     -21443024       595.45934      595.45934      595.45934      2202.2703      2797.7297      2202.2703      2797.7297      2202.2703      2797.7297      2.1113311e+08  0.5            17508200       0.57390417     5621.8677      11243.756      8.3933786    
  35011600   24753.4        111.49353     -21513079       2.2039218      73416.258     -21439663       595.45934      595.45934      595.45934      2202.2703      2797.7297      2202.2703      2797.7297      2202.2703      2797.7297      2.1113311e+08  0.5            17508300       0.59194674     5542.4492      11084.873      8.3769725    
  35011800   25369.415      114.41633     -21519147       2.2039218      75243.3       -21443904       595.45934      595.45934      595.45934      2202.2703      2797.7297      2202.2703      2797.7297      2202.2703      2797.7297      2.1113311e+08  0.5            17508400       0.60983316     5590.8375      11181.701      8.3583298    
  35012000   26130.461      116.96589     -21517085       2.2039218      77500.491     -21439584       595.45934      595.45934      595.45934      2202.2703      2797.7297      2202.2703      2797.7297      2202.2703      2797.7297      2.1113311e+08  0.5            17508500       0.62801674     5499.449       10998.839      8.3436809    
  35012200   26994.348      123.91866     -21521307       2.2039218      80062.699     -21441244       595.45934      595.45934      595.45934      2202.2703      2797.7297      2202.2703      2797.7297      2202.2703      2797.7297      2.1113311e+08  0.5            17508600       0.645871       5600.9045      11201.869      8.3245859    
  35012400   27751.684      129.56163     -21517797       2.2039218      82308.885     -21435488       595.45934      595.45934      595.45934      2202.2703      2797.7297      2202.2703      2797.7297      2202.2703      2797.7297      2.1113311e+08  0.5            17508700       0.66415599     5468.9864      10937.929      8.3109517    
  35012600   28369.88       134.09543     -21522229       2.2039218      84142.397     -21438087       595.45934      595.45934      595.45934      2202.2703      2797.7297      2202.2703      2797.7297      2202.2703      2797.7297      2.1113311e+08  0.5            17508800       0.68228674     5515.4889      11031.009      8.2951947    
  35012800   29053.04       139.42986     -21513958       2.2039218      86168.585     -21427790       595.45934      595.45934      595.45934      2202.2703      2797.7297      2202.2703      2797.7297      2202.2703      2797.7297      2.1113311e+08  0.5            17508900       0.70050741     5488.254       10976.489      8.2803829    
  35013000   29888.431      147.39552     -21510399       2.2039218      88646.277     -21421753       595.45934      595.45934      595.45934      2202.2703      2797.7297      2202.2703      2797.7297      2202.2703      2797.7297      2.1113311e+08  0.5            17509000       0.71862074     5520.7948      11041.56       8.2641645    
  35013200   30707.862      151.38082     -21512783       2.2039218      91076.632     -21421706       595.45934      595.45934      595.45934      2202.2703      2797.7297      2202.2703      2797.7297      2202.2703      2797.7297      2.1113311e+08  0.5            17509100       0.73704896     5426.4624      10852.969      8.2513773    
  35013400   31376.036      157.69614     -21512893       2.2039218      93058.374     -21419835       595.45934      595.45934      595.45934      2202.2703      2797.7297      2202.2703      2797.7297      2202.2703      2797.7297      2.1113311e+08  0.5            17509200       0.7551597      5521.5886      11043.184      8.2348595    
  35013600   32020.563      164.99825     -21509915       2.2039218      94969.981     -21414945       595.45934      595.45934      595.45934      2202.2703      2797.7297      2202.2703      2797.7297      2202.2703      2797.7297      2.1113311e+08  0.5            17509300       0.77351928     5446.7554      10893.52       8.2209132    
  35013800   32788.038      169.83331     -21500210       2.2039218      97246.24      -21402964       595.45934      595.45934      595.45934      2202.2703      2797.7297      2202.2703      2797.7297      2202.2703      2797.7297      2.1113311e+08  0.5            17509400       0.79151702     5556.2455      11112.473      8.2030164    
  35014000   33625.767      173.15104     -21496687       2.2039218      99730.864     -21396956       595.45934      595.45934      595.45934      2202.2703      2797.7297      2202.2703      2797.7297      2202.2703      2797.7297      2.1113311e+08  0.5            17509500       0.80968067     5505.5014      11010.976      8.1867927    
  35014200   34371.79       180.647       -21494613       2.2039218      101943.5      -21392669       595.45934      595.45934      595.45934      2202.2703      2797.7297      2202.2703      2797.7297      2202.2703      2797.7297      2.1113311e+08  0.5            17509600       0.82766583     5560.1482      11120.354      8.1687217    
  35014400   35018.335      188.62353     -21502469       2.2039218      103861.09     -21398608       595.45934      595.45934      595.45934      2202.2703      2797.7297      2202.2703      2797.7297      2202.2703      2797.7297      2.1113311e+08  0.5            17509700       0.84672599     5246.5355      10493.028      8.1610184    
  35014600   35729.001      199.53899     -21490989       2.2039218      105968.86     -21385020       595.45934      595.45934      595.45934      2202.2703      2797.7297      2202.2703      2797.7297      2202.2703      2797.7297      2.1113311e+08  0.5            17509800       0.86583794     5232.3282      10464.691      8.1533272    
  35014800   36546.491      207.33972     -21488343       2.2039218      108393.46     -21379949       595.45934      595.45934      595.45934      2202.2703      2797.7297      2202.2703      2797.7297      2202.2703      2797.7297      2.1113311e+08  0.5            17509900       0.88394001     5524.2274      11048.453      8.1358752    
  35015000   37337.064      216.07353     -21480515       2.2039218      110738.22     -21369777       595.45934      595.45934      595.45934      2202.2703      2797.7297      2202.2703      2797.7297      2202.2703      2797.7297      2.1113311e+08  0.5            17510000       0.90239184     5419.5211      10839.009      8.121546     
  35015200   38025.951      222.32065     -21481133       2.2039218      112781.4      -21368352       595.45934      595.45934      595.45934      2202.2703      2797.7297      2202.2703      2797.7297      2202.2703      2797.7297      2.1113311e+08  0.5            17510100       0.92043559     5542.0778      11084.192      8.1034612    
  35015400   38705.094      230.27705     -21476834       2.2039218      114795.67     -21362038       595.45934      595.45934      595.45934      2202.2703      2797.7297      2202.2703      2797.7297      2202.2703      2797.7297      2.1113311e+08  0.5            17510200       0.93852134     5529.2422      11058.466      8.0857398    
  35015600   39473.747      237.22883     -21474024       2.2039218      117075.42     -21356949       595.45934      595.45934      595.45934      2202.2703      2797.7297      2202.2703      2797.7297      2202.2703      2797.7297      2.1113311e+08  0.5            17510300       0.95657496     5539.0587      11078.1        8.0677347    
  35015800   40291.874      247.01816     -21469274       2.2039218      119501.91     -21349772       595.45934      595.45934      595.45934      2202.2703      2797.7297      2202.2703      2797.7297      2202.2703      2797.7297      2.1113311e+08  0.5            17510400       0.97491205     5453.4146      10906.864      8.0520682    
  35016000   41010.266      258.45887     -21470155       2.2039218      121632.59     -21348523       595.45934      595.45934      595.45934      2202.2703      2797.7297      2202.2703      2797.7297      2202.2703      2797.7297      2.1113311e+08  0.5            17510500       0.99304223     5515.6678      11031.301      8.0346315    
  35016200   41671.004      267.99413     -21473464       2.2039218      123592.28     -21349871       595.45934      595.45934      595.45934      2202.2703      2797.7297      2202.2703      2797.7297      2202.2703      2797.7297      2.1113311e+08  0.5            17510600       1.0114912      5420.3788      10840.791      8.0196957    
  35016400   42416.645      274.19427     -21471642       2.2039218      125803.78     -21345839       595.45934      595.45934      595.45934      2202.2703      2797.7297      2202.2703      2797.7297      2202.2703      2797.7297      2.1113311e+08  0.5            17510700       1.0294292      5574.7451      11149.471      8.0006671    
  35016600   43215.449      280.31989     -21469728       2.2039218      128172.96     -21341555       595.45934      595.45934      595.45934      2202.2703      2797.7297      2202.2703      2797.7297      2202.2703      2797.7297      2.1113311e+08  0.5            17510800       1.0475162      5528.8469      11057.718      7.9828107    
  35016800   43964.525      290.35041     -21467348       2.2039218      130394.65     -21336953       595.45934      595.45934      595.45934      2202.2703      2797.7297      2202.2703      2797.7297      2202.2703      2797.7297      2.1113311e+08  0.5            17510900       1.0656648      5510.0721      11020.142      7.9654071    
  35017000   44650.992      299.95628     -21464510       2.2039218      132430.65     -21332079       595.45934      595.45934      595.45934      2202.2703      2797.7297      2202.2703      2797.7297      2202.2703      2797.7297      2.1113311e+08  0.5            17511000       1.0838494      5499.1393      10998.244      7.9482444    
  35017200   45364.446      306.00896     -21461938       2.2039218      134546.68     -21327391       595.45934      595.45934      595.45934      2202.2703      2797.7297      2202.2703      2797.7297      2202.2703      2797.7297      2.1113311e+08  0.5            17511100       1.1023376      5408.8735      10817.744      7.933231     
  35017400   46135.675      319.16646     -21449590       2.2039218      136834.07     -21312756       595.45934      595.45934      595.45934      2202.2703      2797.7297      2202.2703      2797.7297      2202.2703      2797.7297      2.1113311e+08  0.5            17511200       1.1204719      5514.4165      11028.837      7.9156057    
  35017600   46893.184      331.16246     -21446343       2.2039218      139080.78     -21307262       595.45934      595.45934      595.45934      2202.2703      2797.7297      2202.2703      2797.7297      2202.2703      2797.7297      2.1113311e+08  0.5            17511300       1.1388064      5454.1894      10908.415      7.899353     
  35017800   47605.249      344.70992     -21447813       2.2039218      141192.69     -21306620       595.45934      595.45934      595.45934      2202.2703      2797.7297      2202.2703      2797.7297      2202.2703      2797.7297      2.1113311e+08  0.5            17511400       1.1568683      5536.5106      11073.011      7.8811784    
  35018000   48320.664      353.44657     -21447285       2.2039218      143314.55     -21303970       595.45934      595.45934      595.45934      2202.2703      2797.7297      2202.2703      2797.7297      2202.2703      2797.7297      2.1113311e+08  0.5            17511500       1.174851       5560.8714      11121.724      7.8624788    
  35018200   49071.249      363.39354     -21437327       2.2039218      145540.71     -21291786       595.45934      595.45934      595.45934      2202.2703      2797.7297      2202.2703      2797.7297      2202.2703      2797.7297      2.1113311e+08  0.5            17511600       1.1931982      5450.4622      10900.918      7.8461949    
  35018400   49828.036      373.91526     -21435711       2.2039218      147785.27     -21287926       595.45934      595.45934      595.45934      2202.2703      2797.7297      2202.2703      2797.7297      2202.2703      2797.7297      2.1113311e+08  0.5            17511700       1.2113225      5517.449       11034.863      7.8284109    
  35018600   50563.654      384.55451     -21440580       2.2039218      149967.04     -21290613       595.45934      595.45934      595.45934      2202.2703      2797.7297      2202.2703      2797.7297      2202.2703      2797.7297      2.1113311e+08  0.5            17511800       1.2296992      5441.6722      10883.414      7.8122191    
  35018800   51294.314      396.69234     -21442024       2.2039218      152134.11     -21289890       595.45934      595.45934      595.45934      2202.2703      2797.7297      2202.2703      2797.7297      2202.2703      2797.7297      2.1113311e+08  0.5            17511900       1.2478643      5505.0577      11010.072      7.794643     
  35019000   52034.594      408.45713     -21445118       2.2039218      154329.71     -21290789       595.45934      595.45934      595.45934      2202.2703      2797.7297      2202.2703      2797.7297      2202.2703      2797.7297      2.1113311e+08  0.5            17512000       1.2661226      5476.9504      10953.873      7.7776235    
  35019200   52791.678      418.47196     -21441442       2.2039218      156575.16     -21284867       595.45934      595.45934      595.45934      2202.2703      2797.7297      2202.2703      2797.7297      2202.2703      2797.7297      2.1113311e+08  0.5            17512100       1.2843031      5500.3921      11000.834      7.760097     
  35019400   53550.408      431.36684     -21439903       2.2039218      158825.48     -21281078       595.45934      595.45934      595.45934      2202.2703      2797.7297      2202.2703      2797.7297      2202.2703      2797.7297      2.1113311e+08  0.5            17512200       1.3025122      5491.7807      10983.583      7.742723     
  35019600   54317.136      440.28403     -21443078       2.2039218      161099.52     -21281978       595.45934      595.45934      595.45934      2202.2703      2797.7297      2202.2703      2797.7297      2202.2703      2797.7297      2.1113311e+08  0.5            17512300       1.3206595      5510.4662      11020.913      7.7249649    
  35019800   55146.615      454.1969      -21445502       2.2039218      163559.68     -21281942       595.45934      595.45934      595.45934      2202.2703      2797.7297      2202.2703      2797.7297      2202.2703      2797.7297      2.1113311e+08  0.5            17512400       1.339037       5441.4191      10882.821      7.7085221    
  35020000   56203.344      462.61251     -21445740       2.2039218      166693.84     -21279046       595.45934      595.45934      595.45934      2202.2703      2797.7297      2202.2703      2797.7297      2202.2703      2797.7297      2.1113311e+08  0.5            17512500       1.3572635      5486.5229      10973.035      7.6911718    
  35020200   58905.54       468.63691     -21452637       2.2039218      174708.29     -21277929       595.45934      595.45934      595.45934      2202.2703      2797.7297      2202.2703      2797.7297      2202.2703      2797.7297      2.1113311e+08  0.5            17512600       1.3754087      5511.0954      11022.227      7.6733438    
  35020400   60218.45       479.29237     -21450497       2.2039218      178602.26     -21271895       595.45934      595.45934      595.45934      2202.2703      2797.7297      2202.2703      2797.7297      2202.2703      2797.7297      2.1113311e+08  0.5            17512700       1.3932977      5590.0327      11180.054      7.6541009    
  35020600   57337.389      486.07498     -21445651       2.2039218      170057.31     -21275594       595.45934      595.45934      595.45934      2202.2703      2797.7297      2202.2703      2797.7297      2202.2703      2797.7297      2.1113311e+08  0.5            17512800       1.4115199      5487.8128      10975.64       7.6366958    
  35020800   57110.098      496.80145     -21451926       2.2039218      169383.18     -21282542       595.45934      595.45934      595.45934      2202.2703      2797.7297      2202.2703      2797.7297      2202.2703      2797.7297      2.1113311e+08  0.5            17512900       1.429907       5438.5763      10877.161      7.6201483    
  35021000   59105.289      505.44993     -21463301       2.2039218      175300.73     -21288000       595.45934      595.45934      595.45934      2202.2703      2797.7297      2202.2703      2797.7297      2202.2703      2797.7297      2.1113311e+08  0.5            17513000       1.4481744      5474.2631      10948.498      7.6029264    
  35021200   60713.893      516.12677     -21468764       2.2039218      180071.7      -21288693       595.45934      595.45934      595.45934      2202.2703      2797.7297      2202.2703      2797.7297      2202.2703      2797.7297      2.1113311e+08  0.5            17513100       1.4666813      5403.3749      10806.779      7.5869172    
  35021400   60964.445      523.8846      -21460299       2.2039218      180814.81     -21279484       595.45934      595.45934      595.45934      2202.2703      2797.7297      2202.2703      2797.7297      2202.2703      2797.7297      2.1113311e+08  0.5            17513200       1.4844839      5617.1529      11234.298      7.5672576    
  35021600   61763.441      532.29829     -21459622       2.2039218      183184.56     -21276437       595.45934      595.45934      595.45934      2202.2703      2797.7297      2202.2703      2797.7297      2202.2703      2797.7297      2.1113311e+08  0.5            17513300       1.5023375      5601.136       11202.255      7.5478983    
  35021800   65218.051      542.86949     -21448491       2.2039218      193430.61     -21255061       595.45934      595.45934      595.45934      2202.2703      2797.7297      2202.2703      2797.7297      2202.2703      2797.7297      2.1113311e+08  0.5            17513400       1.5207256      5438.2737      10876.538      7.5312225    
  35022000   63981.498      548.50355     -21446070       2.2039218      189763.11     -21256307       595.45934      595.45934      595.45934      2202.2703      2797.7297      2202.2703      2797.7297      2202.2703      2797.7297      2.1113311e+08  0.5            17513500       1.538892       5504.6619      11009.313      7.513424     
  35022200   61180.808      558.45017     -21447726       2.2039218      181456.53     -21266269       595.45934      595.45934      595.45934      2202.2703      2797.7297      2202.2703      2797.7297      2202.2703      2797.7297      2.1113311e+08  0.5            17513600       1.5574055      5401.469       10802.948      7.4972874    
  35022400   63493.771      567.94498     -21454386       2.2039218      188316.56     -21266069       595.45934      595.45934      595.45934      2202.2703      2797.7297      2202.2703      2797.7297      2202.2703      2797.7297      2.1113311e+08  0.5            17513700       1.5755754      5503.6097      11007.268      7.4794649    
  35022600   65685.127      574.97797     -21457784       2.2039218      194815.91     -21262968       595.45934      595.45934      595.45934      2202.2703      2797.7297      2202.2703      2797.7297      2202.2703      2797.7297      2.1113311e+08  0.5            17513800       1.5937951      5488.5703      10977.107      7.4618682    
  35022800   65344.801      585.17733     -21455514       2.2039218      193806.54     -21261708       595.45934      595.45934      595.45934      2202.2703      2797.7297      2202.2703      2797.7297      2202.2703      2797.7297      2.1113311e+08  0.5            17513900       1.6116774      5592.1509      11184.321      7.4426987    
  35023000   66490.008      598.51659     -21456640       2.2039218      197203.11     -21259437       595.45934      595.45934      595.45934      2202.2703      2797.7297      2202.2703      2797.7297      2202.2703      2797.7297      2.1113311e+08  0.5            17514000       1.6301134      5424.1439      10848.275      7.4260814    
  35023200   68437.293      609.77978     -21450924       2.2039218      202978.58     -21247946       595.45934      595.45934      595.45934      2202.2703      2797.7297      2202.2703      2797.7297      2202.2703      2797.7297      2.1113311e+08  0.5            17514100       1.6483885      5471.9197      10943.838      7.4087004    
  35023400   68717.423      620.15949     -21447325       2.2039218      203809.42     -21243516       595.45934      595.45934      595.45934      2202.2703      2797.7297      2202.2703      2797.7297      2202.2703      2797.7297      2.1113311e+08  0.5            17514200       1.6666085      5488.4841      10976.967      7.3910552    
  35023600   69014.333      631.56992     -21427324       2.2039218      204690.03     -21222634       595.45934      595.45934      595.45934      2202.2703      2797.7297      2202.2703      2797.7297      2202.2703      2797.7297      2.1113311e+08  0.5            17514300       1.6850958      5409.1263      10818.24       7.3745679    
  35023800   72263.98       641.37923     -21426849       2.2039218      214328.17     -21212521       595.45934      595.45934      595.45934      2202.2703      2797.7297      2202.2703      2797.7297      2202.2703      2797.7297      2.1113311e+08  0.5            17514400       1.7031856      5527.978       11055.958      7.3563209    
  35024000   71355.941      651.79852     -21442827       2.2039218      211635.01     -21231192       595.45934      595.45934      595.45934      2202.2703      2797.7297      2202.2703      2797.7297      2202.2703      2797.7297      2.1113311e+08  0.5            17514500       1.7214179      5484.7475      10969.489      7.3386855    
  35024200   68460.31       665.37977     -21425132       2.2039218      203046.84     -21222085       595.45934      595.45934      595.45934      2202.2703      2797.7297      2202.2703      2797.7297      2202.2703      2797.7297      2.1113311e+08  0.5            17514600       1.7397113      5466.4876      10932.993      7.3212933    
  35024400   70777.099      682.38003     -21422267       2.2039218      209918.22     -21212349       595.45934      595.45934      595.45934      2202.2703      2797.7297      2202.2703      2797.7297      2202.2703      2797.7297      2.1113311e+08  0.5            17514700       1.7579599      5479.8685      10959.74       7.3036971    
  35024600   73423.802      697.75604     -21416993       2.2039218      217768.1      -21199225       595.45934      595.45934      595.45934      2202.2703      2797.7297      2202.2703      2797.7297      2202.2703      2797.7297      2.1113311e+08  0.5            17514800       1.7765256      5386.2783      10772.559      7.2873886    
  35024800   73114.765      706.95458     -21412453       2.2039218      216851.52     -21195601       595.45934      595.45934      595.45934      2202.2703      2797.7297      2202.2703      2797.7297      2202.2703      2797.7297      2.1113311e+08  0.5            17514900       1.7947798      5478.1649      10956.328      7.2697877    
  35025000   73843.516      716.17501     -21405969       2.2039218      219012.93     -21186956       595.45934      595.45934      595.45934      2202.2703      2797.7297      2202.2703      2797.7297      2202.2703      2797.7297      2.1113311e+08  0.5            17515000       1.8130236      5481.3037      10962.574      7.252103     
  35025200   76249.719      731.7078      -21396617       2.2039218      226149.5      -21170468       595.45934      595.45934      595.45934      2202.2703      2797.7297      2202.2703      2797.7297      2202.2703      2797.7297      2.1113311e+08  0.5            17515100       1.8310722      5540.6091      11081.267      7.2336493    
  35025400   76481.057      746.16405     -21390780       2.2039218      226835.62     -21163944       595.45934      595.45934      595.45934      2202.2703      2797.7297      2202.2703      2797.7297      2202.2703      2797.7297      2.1113311e+08  0.5            17515200       1.8493447      5472.7258      10945.429      7.2160782    
  35025600   75453.963      757.17006     -21387539       2.2039218      223789.36     -21163750       595.45934      595.45934      595.45934      2202.2703      2797.7297      2202.2703      2797.7297      2202.2703      2797.7297      2.1113311e+08  0.5            17515300       1.8678885      5392.626       10785.232      7.1995393    
  35025800   77744.245      772.68675     -21378076       2.2039218      230582.12     -21147494       595.45934      595.45934      595.45934      2202.2703      2797.7297      2202.2703      2797.7297      2202.2703      2797.7297      2.1113311e+08  0.5            17515400       1.886151       5475.7016      10951.388      7.1818906    
  35026000   79387.476      786.31896     -21374011       2.2039218      235455.79     -21138556       595.45934      595.45934      595.45934      2202.2703      2797.7297      2202.2703      2797.7297      2202.2703      2797.7297      2.1113311e+08  0.5            17515500       1.9045797      5426.3205      10852.65       7.1648554    
  35026200   78338.281      798.71781     -21356870       2.2039218      232343.98     -21124526       595.45934      595.45934      595.45934      2202.2703      2797.7297      2202.2703      2797.7297      2202.2703      2797.7297      2.1113311e+08  0.5            17515600       1.9228619      5469.8006      10939.662      7.1472487    
  35026400   78086.016      816.76093     -21362841       2.2039218      231595.78     -21131245       595.45934      595.45934      595.45934      2202.2703      2797.7297      2202.2703      2797.7297      2202.2703      2797.7297      2.1113311e+08  0.5            17515700       1.9409084      5541.2299      11082.419      7.1287644    
  35026600   81727.884      828.1063      -21366642       2.2039218      242397.22     -21124245       595.45934      595.45934      595.45934      2202.2703      2797.7297      2202.2703      2797.7297      2202.2703      2797.7297      2.1113311e+08  0.5            17515800       1.9591024      5496.3241      10992.66       7.1108236    
  35026800   81807.775      840.21907     -21365407       2.2039218      242634.17     -21122773       595.45934      595.45934      595.45934      2202.2703      2797.7297      2202.2703      2797.7297      2202.2703      2797.7297      2.1113311e+08  0.5            17515900       1.9773383      5483.6927      10967.39       7.093028     
  35027000   80147.506      850.42255     -21347307       2.2039218      237709.97     -21109597       595.45934      595.45934      595.45934      2202.2703      2797.7297      2202.2703      2797.7297      2202.2703      2797.7297      2.1113311e+08  0.5            17516000       1.9955764      5483.027       10965.993      7.0752328    
  35027200   82857.319      858.76206     -21344577       2.2039218      245747.02     -21098830       595.45934      595.45934      595.45934      2202.2703      2797.7297      2202.2703      2797.7297      2202.2703      2797.7297      2.1113311e+08  0.5            17516100       2.0138705      5466.2345      10932.506      7.0576255    
  35027400   85990.77       873.94572     -21343873       2.2039218      255040.54     -21088833       595.45934      595.45934      595.45934      2202.2703      2797.7297      2202.2703      2797.7297      2202.2703      2797.7297      2.1113311e+08  0.5            17516200       2.0318202      5571.1371      11142.281      7.0388124    
  35027600   83051.645      882.92637     -21344877       2.2039218      246323.37     -21098554       595.45934      595.45934      595.45934      2202.2703      2797.7297      2202.2703      2797.7297      2202.2703      2797.7297      2.1113311e+08  0.5            17516300       2.0497348      5582.0417      11164.052      7.0198951    
  35027800   81695.879      893.76462     -21339336       2.2039218      242302.3      -21097034       595.45934      595.45934      595.45934      2202.2703      2797.7297      2202.2703      2797.7297      2202.2703      2797.7297      2.1113311e+08  0.5            17516400       2.0679532      5488.949       10977.884      7.0020242    
  35028000   86671.257      906.15384     -21334820       2.2039218      257058.8      -21077761       595.45934      595.45934      595.45934      2202.2703      2797.7297      2202.2703      2797.7297      2202.2703      2797.7297      2.1113311e+08  0.5            17516500       2.0859251      5564.2228      11128.488      6.9833217    
  35028200   87274.678      916.91858     -21329171       2.2039218      258848.49     -21070323       595.45934      595.45934      595.45934      2202.2703      2797.7297      2202.2703      2797.7297      2202.2703      2797.7297      2.1113311e+08  0.5            17516600       2.1038822      5568.8509      11137.72       6.9645821    
  35028400   85602.295      923.67495     -21330702       2.2039218      253888.36     -21076813       595.45934      595.45934      595.45934      2202.2703      2797.7297      2202.2703      2797.7297      2202.2703      2797.7297      2.1113311e+08  0.5            17516700       2.1220993      5489.3292      10978.661      6.9467078    
  35028600   86338.758      926.94438     -21345849       2.2039218      256072.64     -21089776       595.45934      595.45934      595.45934      2202.2703      2797.7297      2202.2703      2797.7297      2202.2703      2797.7297      2.1113311e+08  0.5            17516800       2.1400532      5569.8242      11139.631      6.9279754    
  35028800   91329.322      939.62357     -21323847       2.2039218      270874.19     -21052972       595.45934      595.45934      595.45934      2202.2703      2797.7297      2202.2703      2797.7297      2202.2703      2797.7297      2.1113311e+08  0.5            17516900       2.1582974      5481.2229      10962.454      6.9101853    
  35029000   90730.998      947.34937     -21319692       2.2039218      269099.61     -21050592       595.45934      595.45934      595.45934      2202.2703      2797.7297      2202.2703      2797.7297      2202.2703      2797.7297      2.1113311e+08  0.5            17517000       2.1764105      5520.8283      11041.636      6.8919733    
  35029200   88446.751      953.79501     -21320803       2.2039218      262324.75     -21058479       595.45934      595.45934      595.45934      2202.2703      2797.7297      2202.2703      2797.7297      2202.2703      2797.7297      2.1113311e+08  0.5            17517100       2.1944929      5530.269       11060.557      6.8736656    
  35029400   88808.646      960.87766     -21317344       2.2039218      263398.1      -21053946       595.45934      595.45934      595.45934      2202.2703      2797.7297      2202.2703      2797.7297      2202.2703      2797.7297      2.1113311e+08  0.5            17517200       2.2127067      5490.3271      10980.655      6.8557696    
  35029600   90513.547      969.29674     -21307989       2.2039218      268454.67     -21039534       595.45934      595.45934      595.45934      2202.2703      2797.7297      2202.2703      2797.7297      2202.2703      2797.7297      2.1113311e+08  0.5            17517300       2.2306717      5566.3874      11132.779      6.8371056    
  35029800   91816.55       981.2785      -21309679       2.2039218      272319.26     -21037360       595.45934      595.45934      595.45934      2202.2703      2797.7297      2202.2703      2797.7297      2202.2703      2797.7297      2.1113311e+08  0.5            17517400       2.2488835      5490.943       10981.886      6.8192011    
  35030000   92416.739      987.47653     -21305835       2.2039218      274099.36     -21031736       595.45934      595.45934      595.45934      2202.2703      2797.7297      2202.2703      2797.7297      2202.2703      2797.7297      2.1113311e+08  0.5            17517500       2.2668992      5550.7132      11101.392      6.8007038    
  35030200   92973.131      996.30169     -21311135       2.2039218      275749.57     -21035385       595.45934      595.45934      595.45934      2202.2703      2797.7297      2202.2703      2797.7297      2202.2703      2797.7297      2.1113311e+08  0.5            17517600       2.2848877      5559.1156      11118.268      6.7821327    
  35030400   93687.78       1001.4652     -21306624       2.2039218      277869.15     -21028755       595.45934      595.45934      595.45934      2202.2703      2797.7297      2202.2703      2797.7297      2202.2703      2797.7297      2.1113311e+08  0.5            17517700       2.3032028      5459.9751      10919.942      6.7645306    
  35030600   93742.626      1008.315      -21306091       2.2039218      278031.82     -21028059       595.45934      595.45934      595.45934      2202.2703      2797.7297      2202.2703      2797.7297      2202.2703      2797.7297      2.1113311e+08  0.5            17517800       2.3211948      5558.0193      11116.05       6.7459781    
  35030800   94777.585      1015.3333     -21304315       2.2039218      281101.41     -21023214       595.45934      595.45934      595.45934      2202.2703      2797.7297      2202.2703      2797.7297      2202.2703      2797.7297      2.1113311e+08  0.5            17517900       2.3393849      5497.5053      10995.014      6.7280041    
  35031000   97366.373      1026.6535     -21308350       2.2039218      288779.51     -21019570       595.45934      595.45934      595.45934      2202.2703      2797.7297      2202.2703      2797.7297      2202.2703      2797.7297      2.1113311e+08  0.5            17518000       2.3574967      5521.2596      11042.505      6.7098038    
  35031200   98623.866      1033.7725     -21303332       2.2039218      292509.12     -21010823       595.45934      595.45934      595.45934      2202.2703      2797.7297      2202.2703      2797.7297      2202.2703      2797.7297      2.1113311e+08  0.5            17518100       2.3758691      5442.9411      10885.84       6.6923394    
  35031400   97801.432      1043.5376     -21306771       2.2039218      290069.85     -21016701       595.45934      595.45934      595.45934      2202.2703      2797.7297      2202.2703      2797.7297      2202.2703      2797.7297      2.1113311e+08  0.5            17518200       2.3938199      5570.774       11141.557      6.6736855    
  35031600   96655.258      1055.1608     -21291447       2.2039218      286670.41     -21004776       595.45934      595.45934      595.45934      2202.2703      2797.7297      2202.2703      2797.7297      2202.2703      2797.7297      2.1113311e+08  0.5            17518300       2.411903       5530.0375      11060.129      6.6554067    
  35031800   99462.48       1056.082      -21288533       2.2039218      294996.37     -20993536       595.45934      595.45934      595.45934      2202.2703      2797.7297      2202.2703      2797.7297      2202.2703      2797.7297      2.1113311e+08  0.5            17518400       2.4302014      5464.9578      10929.885      6.6377196    
  35032000   102318.48      1066.0654     -21288710       2.2039218      303466.98     -20985243       595.45934      595.45934      595.45934      2202.2703      2797.7297      2202.2703      2797.7297      2202.2703      2797.7297      2.1113311e+08  0.5            17518500       2.4482795      5531.5639      11063.14       6.6194278    
  35032200   101084.99      1071.7065     -21288246       2.2039218      299808.57     -20988438       595.45934      595.45934      595.45934      2202.2703      2797.7297      2202.2703      2797.7297      2202.2703      2797.7297      2.1113311e+08  0.5            17518600       2.4666019      5457.7782      10915.536      6.601793     
  35032400   97535.873      1074.0064     -21286119       2.2039218      289282.23     -20996837       595.45934      595.45934      595.45934      2202.2703      2797.7297      2202.2703      2797.7297      2202.2703      2797.7297      2.1113311e+08  0.5            17518700       2.484612       5552.4339      11104.86       6.5833205    
  35032600   98841.01       1085.8271     -21284286       2.2039218      293153.15     -20991132       595.45934      595.45934      595.45934      2202.2703      2797.7297      2202.2703      2797.7297      2202.2703      2797.7297      2.1113311e+08  0.5            17518800       2.5028641      5478.8336      10957.687      6.5654894    
  35032800   104744.43      1096.4758     -21278775       2.2039218      310662.14     -20968113       595.45934      595.45934      595.45934      2202.2703      2797.7297      2202.2703      2797.7297      2202.2703      2797.7297      2.1113311e+08  0.5            17518900       2.5208342      5564.804       11129.56       6.5469202    
  35033000   104807.55      1100.7291     -21296908       2.2039218      310849.33     -20986059       595.45934      595.45934      595.45934      2202.2703      2797.7297      2202.2703      2797.7297      2202.2703      2797.7297      2.1113311e+08  0.5            17519000       2.5391057      5472.9948      10946.036      6.5291343    
  35033200   102774.59      1101.5066     -21291269       2.2039218      304819.77     -20986450       595.45934      595.45934      595.45934      2202.2703      2797.7297      2202.2703      2797.7297      2202.2703      2797.7297      2.1113311e+08  0.5            17519100       2.5571127      5553.4132      11106.828      6.5106678    
  35033400   103448.4       1102.4072     -21293850       2.2039218      306818.22     -20987032       595.45934      595.45934      595.45934      2202.2703      2797.7297      2202.2703      2797.7297      2202.2703      2797.7297      2.1113311e+08  0.5            17519200       2.5753177      5492.9871      10985.991      6.4927073    
  35033600   109457         1112.5954     -21295551       2.2039218      324639.17     -20970912       595.45934      595.45934      595.45934      2202.2703      2797.7297      2202.2703      2797.7297      2202.2703      2797.7297      2.1113311e+08  0.5            17519300       2.593301       5560.7057      11121.384      6.4741901    
  35033800   108720.06      1115.7129     -21294966       2.2039218      322453.48     -20972512       595.45934      595.45934      595.45934      2202.2703      2797.7297      2202.2703      2797.7297      2202.2703      2797.7297      2.1113311e+08  0.5            17519400       2.6113431      5542.6185      11085.258      6.4558251    
  35034000   104605.02      1118.8204     -21301001       2.2039218      310248.65     -20990752       595.45934      595.45934      595.45934      2202.2703      2797.7297      2202.2703      2797.7297      2202.2703      2797.7297      2.1113311e+08  0.5            17519500       2.6296473      5463.1945      10926.354      6.4381073    
  35034200   105886.86      1123.6802     -21301585       2.2039218      314050.48     -20987535       595.45934      595.45934      595.45934      2202.2703      2797.7297      2202.2703      2797.7297      2202.2703      2797.7297      2.1113311e+08  0.5            17519600       2.6477284      5530.6709      11061.409      6.4198393    
  35034400   113811.79      1130.6417     -21302163       2.2039218      337555.08     -20964608       595.45934      595.45934      595.45934      2202.2703      2797.7297      2202.2703      2797.7297      2202.2703      2797.7297      2.1113311e+08  0.5            17519700       2.6661         5443.1473      10886.257      6.4022724    
  35034600   110462.79      1134.1719     -21304254       2.2039218      327622.24     -20976631       595.45934      595.45934      595.45934      2202.2703      2797.7297      2202.2703      2797.7297      2202.2703      2797.7297      2.1113311e+08  0.5            17519800       2.684227       5516.6524      11033.303      6.3841121    
  35034800   106902.68      1131.1004     -21295577       2.2039218      317063.29     -20978514       595.45934      595.45934      595.45934      2202.2703      2797.7297      2202.2703      2797.7297      2202.2703      2797.7297      2.1113311e+08  0.5            17519900       2.7026102      5439.7425      10879.497      6.3665563    
  35035000   109975.91      1138.4097     -21292843       2.2039218      326178.21     -20966665       595.45934      595.45934      595.45934      2202.2703      2797.7297      2202.2703      2797.7297      2202.2703      2797.7297      2.1113311e+08  0.5            17520000       2.7209987      5438.1924      10876.364      6.3490017    
  35035200   114692.89      1145.0984     -21291639       2.2039218      340168.34     -20951470       595.45934      595.45934      595.45934      2202.2703      2797.7297      2202.2703      2797.7297      2202.2703      2797.7297      2.1113311e+08  0.5            17520100       2.7394122      5430.7969      10861.592      6.3314938    
  35035400   113309.23      1145.419      -21306344       2.2039218      336064.53     -20970279       595.45934      595.45934      595.45934      2202.2703      2797.7297      2202.2703      2797.7297      2202.2703      2797.7297      2.1113311e+08  0.5            17520200       2.7574961      5529.777       11059.567      6.3132193    
  35035600   111870.96      1149.2805     -21304841       2.2039218      331798.75     -20973042       595.45934      595.45934      595.45934      2202.2703      2797.7297      2202.2703      2797.7297      2202.2703      2797.7297      2.1113311e+08  0.5            17520300       2.7760725      5383.1807      10766.394      6.2960643    
  35035800   113607.49      1155.8703     -21302267       2.2039218      336949.15     -20965318       595.45934      595.45934      595.45934      2202.2703      2797.7297      2202.2703      2797.7297      2202.2703      2797.7297      2.1113311e+08  0.5            17520400       2.7943388      5474.546       10949.018      6.2781946    
  35036000   121136.59      1165.1406     -21303115       2.2039218      359279.74     -20943835       595.45934      595.45934      595.45934      2202.2703      2797.7297      2202.2703      2797.7297      2202.2703      2797.7297      2.1113311e+08  0.5            17520500       2.8127781      5423.2152      10846.469      6.2607043    
  35036200   119856.82      1166.3412     -21302312       2.2039218      355484.07     -20946828       595.45934      595.45934      595.45934      2202.2703      2797.7297      2202.2703      2797.7297      2202.2703      2797.7297      2.1113311e+08  0.5            17520600       2.830959       5500.2669      11000.55       6.2426319    
  35036400   115512.96      1168.9297     -21294071       2.2039218      342600.59     -20951470       595.45934      595.45934      595.45934      2202.2703      2797.7297      2202.2703      2797.7297      2202.2703      2797.7297      2.1113311e+08  0.5            17520700       2.8499527      5264.8956      10529.773      6.2263344    
  35036600   115535.08      1173.2712     -21300719       2.2039218      342666.17     -20958053       595.45934      595.45934      595.45934      2202.2703      2797.7297      2202.2703      2797.7297      2202.2703      2797.7297      2.1113311e+08  0.5            17520800       2.8687374      5323.5034      10647.01       6.2095499    
  35036800   118544.75      1182.2588     -21305891       2.2039218      351592.6      -20954299       595.45934      595.45934      595.45934      2202.2703      2797.7297      2202.2703      2797.7297      2202.2703      2797.7297      2.1113311e+08  0.5            17520900       2.8872363      5405.7251      10811.452      6.1921273    
  35037000   121431.09      1189.3779     -21302732       2.2039218      360153.21     -20942579       595.45934      595.45934      595.45934      2202.2703      2797.7297      2202.2703      2797.7297      2202.2703      2797.7297      2.1113311e+08  0.5            17521000       2.9055191      5469.6056      10939.173      6.1742327    
  35037200   119862.39      1195.9826     -21294915       2.2039218      355500.59     -20939415       595.45934      595.45934      595.45934      2202.2703      2797.7297      2202.2703      2797.7297      2202.2703      2797.7297      2.1113311e+08  0.5            17521100       2.9240121      5407.4532      10814.952      6.156775     
  35037400   113571.72      1202.913      -21285740       2.2039218      336843.04     -20948897       595.45934      595.45934      595.45934      2202.2703      2797.7297      2202.2703      2797.7297      2202.2703      2797.7297      2.1113311e+08  0.5            17521200       2.942111       5525.1986      11050.38       6.1384827    
  35037600   117123.01      1210.7564     -21282273       2.2039218      347375.85     -20934897       595.45934      595.45934      595.45934      2202.2703      2797.7297      2202.2703      2797.7297      2202.2703      2797.7297      2.1113311e+08  0.5            17521300       2.9604942      5439.7638      10879.532      6.1207805    
  35037800   122189.53      1224.4268     -21278356       2.2039218      362402.67     -20915954       595.45934      595.45934      595.45934      2202.2703      2797.7297      2202.2703      2797.7297      2202.2703      2797.7297      2.1113311e+08  0.5            17521400       2.9786156      5518.321       11036.622      6.1025337    
  35038000   122570.49      1233.1441     -21275147       2.2039218      363532.55     -20911614       595.45934      595.45934      595.45934      2202.2703      2797.7297      2202.2703      2797.7297      2202.2703      2797.7297      2.1113311e+08  0.5            17521500       2.9970517      5424.1492      10848.319      6.0849273    
  35038200   122584.46      1245.9223     -21264376       2.2039218      363573.99     -20900802       595.45934      595.45934      595.45934      2202.2703      2797.7297      2202.2703      2797.7297      2202.2703      2797.7297      2.1113311e+08  0.5            17521600       3.0152431      5497.097       10994.143      6.0668188    
  35038400   125530         1255.5784     -21260558       2.2039218      372310.17     -20888248       595.45934      595.45934      595.45934      2202.2703      2797.7297      2202.2703      2797.7297      2202.2703      2797.7297      2.1113311e+08  0.5            17521700       3.033658       5430.3639      10860.792      6.0491546    
  35038600   129180.61      1271.0585     -21259830       2.2039218      383137.54     -20876693       595.45934      595.45934      595.45934      2202.2703      2797.7297      2202.2703      2797.7297      2202.2703      2797.7297      2.1113311e+08  0.5            17521800       3.0518021      5511.4468      11022.891      6.0309462    
  35038800   124653.57      1274.436      -21258640       2.2039218      369710.78     -20888930       595.45934      595.45934      595.45934      2202.2703      2797.7297      2202.2703      2797.7297      2202.2703      2797.7297      2.1113311e+08  0.5            17521900       3.0699109      5522.1819      11044.344      6.0126698    
  35039000   118088.51      1284.3258     -21255735       2.2039218      350239.42     -20905496       595.45934      595.45934      595.45934      2202.2703      2797.7297      2202.2703      2797.7297      2202.2703      2797.7297      2.1113311e+08  0.5            17522000       3.0883279      5429.7677      10859.52       5.9949936    
  35039200   123672.59      1295.7518     -21258891       2.2039218      366801.27     -20892090       595.45934      595.45934      595.45934      2202.2703      2797.7297      2202.2703      2797.7297      2202.2703      2797.7297      2.1113311e+08  0.5            17522100       3.1065301      5493.8468      10987.723      5.9768952    
  35039400   126576.66      1311.2903     -21256283       2.2039218      375414.48     -20880869       595.45934      595.45934      595.45934      2202.2703      2797.7297      2202.2703      2797.7297      2202.2703      2797.7297      2.1113311e+08  0.5            17522200       3.1249327      5434.0148      10868.018      5.9591779    
  35039600   128754.77      1326.7358     -21242246       2.2039218      381874.55     -20860371       595.45934      595.45934      595.45934      2202.2703      2797.7297      2202.2703      2797.7297      2202.2703      2797.7297      2.1113311e+08  0.5            17522300       3.1430459      5520.8274      11041.699      5.9409055    
  35039800   130524.38      1337.8818     -21238679       2.2039218      387123.05     -20851556       595.45934      595.45934      595.45934      2202.2703      2797.7297      2202.2703      2797.7297      2202.2703      2797.7297      2.1113311e+08  0.5            17522400       3.1614383      5437.0351      10874.05       5.9231583    
  35040000   130517.32      1351.7509     -21238057       2.2039218      387102.09     -20850955       595.45934      595.45934      595.45934      2202.2703      2797.7297      2202.2703      2797.7297      2202.2703      2797.7297      2.1113311e+08  0.5            17522500       3.1796493      5491.1876      10982.322      5.9050669    
  35040200   129271.75      1362.8194     -21236167       2.2039218      383407.87     -20852759       595.45934      595.45934      595.45934      2202.2703      2797.7297      2202.2703      2797.7297      2202.2703      2797.7297      2.1113311e+08  0.5            17522600       3.1978993      5479.4485      10958.944      5.8870456    
  35040400   130354.86      1375.5275     -21237233       2.2039218      386620.27     -20850613       595.45934      595.45934      595.45934      2202.2703      2797.7297      2202.2703      2797.7297      2202.2703      2797.7297      2.1113311e+08  0.5            17522700       3.2163375      5423.5297      10847.051      5.8693653    
  35040600   134651.11      1391.074      -21232752       2.2039218      399362.54     -20833390       595.45934      595.45934      595.45934      2202.2703      2797.7297      2202.2703      2797.7297      2202.2703      2797.7297      2.1113311e+08  0.5            17522800       3.2344709      5514.6792      11029.378      5.8511252    
  35040800   134935.89      1405.6338     -21231878       2.2039218      400207.18     -20831671       595.45934      595.45934      595.45934      2202.2703      2797.7297      2202.2703      2797.7297      2202.2703      2797.7297      2.1113311e+08  0.5            17522900       3.252893       5428.246       10856.442      5.8334042    
  35041000   129200.44      1422.0117     -21223695       2.2039218      383196.35     -20840499       595.45934      595.45934      595.45934      2202.2703      2797.7297      2202.2703      2797.7297      2202.2703      2797.7297      2.1113311e+08  0.5            17523000       3.2710966      5493.443       10986.875      5.8152866    
  35041200   125992.26      1433.7186     -21210636       2.2039218      373681.19     -20836955       595.45934      595.45934      595.45934      2202.2703      2797.7297      2202.2703      2797.7297      2202.2703      2797.7297      2.1113311e+08  0.5            17523100       3.2895896      5407.4561      10814.969      5.7976779    
  35041400   134525.44      1460.4729     -21205858       2.2039218      398989.8      -20806868       595.45934      595.45934      595.45934      2202.2703      2797.7297      2202.2703      2797.7297      2202.2703      2797.7297      2.1113311e+08  0.5            17523200       3.3078381      5479.8886      10959.757      5.7796328    
  35041600   136231.03      1480.0941     -21197001       2.2039218      404048.43     -20792952       595.45934      595.45934      595.45934      2202.2703      2797.7297      2202.2703      2797.7297      2202.2703      2797.7297      2.1113311e+08  0.5            17523300       3.3260445      5492.5777      10985.178      5.7615123    
  35041800   136296.48      1496.0229     -21188848       2.2039218      404242.54     -20784605       595.45934      595.45934      595.45934      2202.2703      2797.7297      2202.2703      2797.7297      2202.2703      2797.7297      2.1113311e+08  0.5            17523400       3.344524       5411.3966      10822.786      5.7438599    
  35042000   137578.56      1514.3904     -21186535       2.2039218      408045.07     -20778490       595.45934      595.45934      595.45934      2202.2703      2797.7297      2202.2703      2797.7297      2202.2703      2797.7297      2.1113311e+08  0.5            17523500       3.362787       5475.5442      10951.051      5.7258301    
  35042200   141249.21      1530.1333     -21176431       2.2039218      418931.87     -20757499       595.45934      595.45934      595.45934      2202.2703      2797.7297      2202.2703      2797.7297      2202.2703      2797.7297      2.1113311e+08  0.5            17523600       3.3813129      5397.8653      10795.776      5.7082412    
  35042400   142164.67      1550.6608     -21190587       2.2039218      421647.05     -20768940       595.45934      595.45934      595.45934      2202.2703      2797.7297      2202.2703      2797.7297      2202.2703      2797.7297      2.1113311e+08  0.5            17523700       3.3995159      5493.6169      10987.238      5.690102     
  35042600   135351.37      1558.5684     -21192028       2.2039218      401439.45     -20790588       595.45934      595.45934      595.45934      2202.2703      2797.7297      2202.2703      2797.7297      2202.2703      2797.7297      2.1113311e+08  0.5            17523800       3.4180396      5398.4848      10796.962      5.6724945    
  35042800   132071.41      1574.6612     -21185044       2.2039218      391711.4      -20793332       595.45934      595.45934      595.45934      2202.2703      2797.7297      2202.2703      2797.7297      2202.2703      2797.7297      2.1113311e+08  0.5            17523900       3.4362545      5489.9959      10979.983      5.6543692    
  35043000   140188.85      1595.3701     -21182525       2.2039218      415786.94     -20766738       595.45934      595.45934      595.45934      2202.2703      2797.7297      2202.2703      2797.7297      2202.2703      2797.7297      2.1113311e+08  0.5            17524000       3.4544837      5485.707       10971.351      5.6362663    
  35043200   142005.65      1614.678      -21175790       2.2039218      421175.41     -20754614       595.45934      595.45934      595.45934      2202.2703      2797.7297      2202.2703      2797.7297      2202.2703      2797.7297      2.1113311e+08  0.5            17524100       3.4730459      5387.2954      10774.634      5.6187006    
  35043400   142341.09      1624.8668     -21169886       2.2039218      422170.28     -20747716       595.45934      595.45934      595.45934      2202.2703      2797.7297      2202.2703      2797.7297      2202.2703      2797.7297      2.1113311e+08  0.5            17524200       3.491403       5447.4812      10894.985      5.6007956    
  35043600   143667.54      1640.4464     -21159353       2.2039218      426104.42     -20733249       595.45934      595.45934      595.45934      2202.2703      2797.7297      2202.2703      2797.7297      2202.2703      2797.7297      2.1113311e+08  0.5            17524300       3.5100213      5371.0582      10742.104      5.5833013    
  35043800   147333.93      1655.5731     -21153260       2.2039218      436978.59     -20716282       595.45934      595.45934      595.45934      2202.2703      2797.7297      2202.2703      2797.7297      2202.2703      2797.7297      2.1113311e+08  0.5            17524400       3.5283618      5452.4066      10904.825      5.5653573    
  35044000   148178.25      1670.6479     -21148454       2.2039218      439482.75     -20708972       595.45934      595.45934      595.45934      2202.2703      2797.7297      2202.2703      2797.7297      2202.2703      2797.7297      2.1113311e+08  0.5            17524500       3.5467546      5436.932       10873.815      5.5474912    
  35044200   140920.6       1674.0563     -21137807       2.2039218      417957.26     -20719849       595.45934      595.45934      595.45934      2202.2703      2797.7297      2202.2703      2797.7297      2202.2703      2797.7297      2.1113311e+08  0.5            17524600       3.5654347      5353.2772      10706.603      5.530065     
  35044400   138995.39      1683.3638     -21151431       2.2039218      412247.27     -20739183       595.45934      595.45934      595.45934      2202.2703      2797.7297      2202.2703      2797.7297      2202.2703      2797.7297      2.1113311e+08  0.5            17524700       3.5838446      5431.8683      10863.708      5.5122107    
  35044600   147693.94      1697.7606     -21144678       2.2039218      438046.33     -20706632       595.45934      595.45934      595.45934      2202.2703      2797.7297      2202.2703      2797.7297      2202.2703      2797.7297      2.1113311e+08  0.5            17524800       3.6025545      5344.7694      10689.575      5.4948083    
  35044800   148362.11      1704.0159     -21149829       2.2039218      440028.07     -20709801       595.45934      595.45934      595.45934      2202.2703      2797.7297      2202.2703      2797.7297      2202.2703      2797.7297      2.1113311e+08  0.5            17524900       3.620981       5426.9398      10853.847      5.4769643    
  35045000   146909.67      1715.3403     -21147217       2.2039218      435720.26     -20711496       595.45934      595.45934      595.45934      2202.2703      2797.7297      2202.2703      2797.7297      2202.2703      2797.7297      2.1113311e+08  0.5            17525000       3.6394604      5411.4375      10822.897      5.4591937    
  35045200   148166.89      1722.0214     -21155222       2.2039218      439449.07     -20715773       595.45934      595.45934      595.45934      2202.2703      2797.7297      2202.2703      2797.7297      2202.2703      2797.7297      2.1113311e+08  0.5            17525100       3.6582729      5315.6191      10631.248      5.4419114    
  35045400   154858.64      1736.3066     -21151448       2.2039218      459296.17     -20692151       595.45934      595.45934      595.45934      2202.2703      2797.7297      2202.2703      2797.7297      2202.2703      2797.7297      2.1113311e+08  0.5            17525200       3.6767246      5419.5763      10839.157      5.4240817    
  35045600   154201.13      1745.1654     -21154401       2.2039218      457346.06     -20697055       595.45934      595.45934      595.45934      2202.2703      2797.7297      2202.2703      2797.7297      2202.2703      2797.7297      2.1113311e+08  0.5            17525300       3.6953843      5359.1306      10718.253      5.4065503    
  35045800   144192.44      1749.3477     -21155746       2.2039218      427661.23     -20728085       595.45934      595.45934      595.45934      2202.2703      2797.7297      2202.2703      2797.7297      2202.2703      2797.7297      2.1113311e+08  0.5            17525400       3.7137987      5430.53        10860.978      5.3886521    
  35046000   145180.71      1751.3695     -21154046       2.2039218      430592.35     -20723453       595.45934      595.45934      595.45934      2202.2703      2797.7297      2202.2703      2797.7297      2202.2703      2797.7297      2.1113311e+08  0.5            17525500       3.7322501      5419.6333      10839.324      5.370802     
  35046200   149935.02      1762.4345     -21168764       2.2039218      444693.17     -20724071       595.45934      595.45934      595.45934      2202.2703      2797.7297      2202.2703      2797.7297      2202.2703      2797.7297      2.1113311e+08  0.5            17525600       3.7511689      5285.7391      10571.492      5.3536129    
  35046400   154053.43      1773.3627     -21164179       2.2039218      456907.99     -20707271       595.45934      595.45934      595.45934      2202.2703      2797.7297      2202.2703      2797.7297      2202.2703      2797.7297      2.1113311e+08  0.5            17525700       3.7697349      5386.1884      10772.37       5.3359079    
  35046600   156432.61      1781.5149     -21154150       2.2039218      463964.42     -20690186       595.45934      595.45934      595.45934      2202.2703      2797.7297      2202.2703      2797.7297      2202.2703      2797.7297      2.1113311e+08  0.5            17525800       3.7884506      5343.1082      10686.225      5.3184047    
  35046800   154853.12      1782.6926     -21156230       2.2039218      459279.79     -20696950       595.45934      595.45934      595.45934      2202.2703      2797.7297      2202.2703      2797.7297      2202.2703      2797.7297      2.1113311e+08  0.5            17525900       3.8068603      5431.927       10863.844      5.3004638    
  35047000   149886.15      1786.5865     -21145678       2.2039218      444548.22     -20701130       595.45934      595.45934      595.45934      2202.2703      2797.7297      2202.2703      2797.7297      2202.2703      2797.7297      2.1113311e+08  0.5            17526000       3.8255653      5346.1496      10692.267      5.2829265    
  35047200   152441.77      1791.6174     -21143822       2.2039218      452127.95     -20691694       595.45934      595.45934      595.45934      2202.2703      2797.7297      2202.2703      2797.7297      2202.2703      2797.7297      2.1113311e+08  0.5            17526100       3.8440239      5417.541       10835.084      5.2650404    
  35047400   160704.29      1804.0322     -21138530       2.2039218      476633.83     -20661896       595.45934      595.45934      595.45934      2202.2703      2797.7297      2202.2703      2797.7297      2202.2703      2797.7297      2.1113311e+08  0.5            17526200       3.862456       5425.304       10850.623      5.2471129    
  35047600   159450.18      1809.3183     -21148863       2.2039218      472914.23     -20675949       595.45934      595.45934      595.45934      2202.2703      2797.7297      2202.2703      2797.7297      2202.2703      2797.7297      2.1113311e+08  0.5            17526300       3.8811157      5359.1545      10718.336      5.2294872    
  35047800   154850.68      1806.81       -21149806       2.2039218      459272.55     -20690533       595.45934      595.45934      595.45934      2202.2703      2797.7297      2202.2703      2797.7297      2202.2703      2797.7297      2.1113311e+08  0.5            17526400       3.8994953      5440.829       10881.633      5.2114777    
  35048000   155719.5       1820.8461     -21152465       2.2039218      461849.41     -20690616       595.45934      595.45934      595.45934      2202.2703      2797.7297      2202.2703      2797.7297      2202.2703      2797.7297      2.1113311e+08  0.5            17526500       3.9183581      5301.4286      10602.867      5.1941053    
  35048200   165956.28      1828.6184     -21142064       2.2039218      492210.74     -20649853       595.45934      595.45934      595.45934      2202.2703      2797.7297      2202.2703      2797.7297      2202.2703      2797.7297      2.1113311e+08  0.5            17526600       3.936788       5425.9539      10851.919      5.1761499    
  35048400   163153.29      1834.5728     -21142923       2.2039218      483897.33     -20659025       595.45934      595.45934      595.45934      2202.2703      2797.7297      2202.2703      2797.7297      2202.2703      2797.7297      2.1113311e+08  0.5            17526700       3.9551858      5435.4411      10870.898      5.1581481    
  35048600   156653.07      1838.0256     -21155690       2.2039218      464618.29     -20691071       595.45934      595.45934      595.45934      2202.2703      2797.7297      2202.2703      2797.7297      2202.2703      2797.7297      2.1113311e+08  0.5            17526800       3.9740762      5293.7096      10587.39       5.1407802    
  35048800   159119.97      1849.9005     -21148399       2.2039218      471934.86     -20676465       595.45934      595.45934      595.45934      2202.2703      2797.7297      2202.2703      2797.7297      2202.2703      2797.7297      2.1113311e+08  0.5            17526900       3.9925227      5421.0876      10842.169      5.1228285    
  35049000   168294.27      1868.6801     -21146261       2.2039218      499145        -20647116       595.45934      595.45934      595.45934      2202.2703      2797.7297      2202.2703      2797.7297      2202.2703      2797.7297      2.1113311e+08  0.5            17527000       4.0112649      5335.5284      10671.076      5.1052489    
  35049200   165283.89      1881.815      -21143455       2.2039218      490216.48     -20653238       595.45934      595.45934      595.45934      2202.2703      2797.7297      2202.2703      2797.7297      2202.2703      2797.7297      2.1113311e+08  0.5            17527100       4.0297585      5407.2904      10814.598      5.0873447    
  35049400   161124.3       1886.444      -21148615       2.2039218      477879.54     -20670736       595.45934      595.45934      595.45934      2202.2703      2797.7297      2202.2703      2797.7297      2202.2703      2797.7297      2.1113311e+08  0.5            17527200       4.0481864      5426.5723      10853.133      5.069353     
  35049600   163257.35      1901.216      -21144882       2.2039218      484205.96     -20660676       595.45934      595.45934      595.45934      2202.2703      2797.7297      2202.2703      2797.7297      2202.2703      2797.7297      2.1113311e+08  0.5            17527300       4.0668287      5364.1254      10728.24       5.0516238    
  35049800   171657.29      1914.4883     -21127109       2.2039218      509119.4      -20617990       595.45934      595.45934      595.45934      2202.2703      2797.7297      2202.2703      2797.7297      2202.2703      2797.7297      2.1113311e+08  0.5            17527400       4.0851551      5456.6129      10913.251      5.0334971    
[...]
  35694400   300.06759     -12.820315     -21497066       2.2058374      889.97225     -21496176       595.28692      595.28692      595.28692      2202.3565      2797.6435      2202.3565      2797.6435      2202.3565      2797.6435      2.1094976e+08  0.5            17849700       30.270012      4831.056       9662.1163      1.1087151    
  35694600   300.38158     -11.964628     -21497075       2.205858       890.90353     -21496184       595.28507      595.28507      595.28507      2202.3575      2797.6425      2202.3575      2797.6425      2202.3575      2797.6425      2.1094779e+08  0.5            17849800       30.290753      4821.4225      9642.858       1.0877895    
  35694800   298.56901     -3.8557937     -21497086       2.2060526      885.52762     -21496201       595.26757      595.26757      595.26757      2202.3662      2797.6338      2202.3662      2797.6338      2202.3662      2797.6338      2.1092918e+08  0.5            17849900       30.311416      4839.5236      9679.0425      1.0668615    
  35695000   295.15097      4.4537166     -21497095       2.2062532      875.39004     -21496219       595.24952      595.24952      595.24952      2202.3752      2797.6248      2202.3752      2797.6248      2202.3752      2797.6248      2.1091e+08     0.5            17850000       30.332192      4813.2785      9626.5366      1.0459377    
  35695200   303.33685      10.377941     -21497102       2.2063961      899.66859     -21496203       595.23668      595.23668      595.23668      2202.3817      2797.6183      2202.3817      2797.6183      2202.3817      2797.6183      2.1089634e+08  0.5            17850100       30.352832      4845.0014      9690.0178      1.0250096    
  35695400   282.7053       8.4983951     -21497112       2.2063548      838.47736     -21496273       595.24039      595.24039      595.24039      2202.3798      2797.6202      2202.3798      2797.6202      2202.3798      2797.6202      2.1090029e+08  0.5            17850200       30.373517      4834.2126      9668.421       1.0040833    
  35695600   311.57528     -4.1078401     -21497122       2.2060622      924.10298     -21496198       595.26671      595.26671      595.26671      2202.3666      2797.6334      2202.3666      2797.6334      2202.3666      2797.6334      2.1092826e+08  0.5            17850300       30.394184      4838.7162      9677.4393      0.98315675   
  35695800   293.6158      -3.5437976     -21497132       2.2060796      870.83688     -21496261       595.26513      595.26513      595.26513      2202.3674      2797.6326      2202.3674      2797.6326      2202.3674      2797.6326      2.1092659e+08  0.5            17850400       30.414903      4826.4081      9652.825       0.96223223   
  35696000   313.21346      8.6668594     -21497141       2.2063668      928.96169     -21496212       595.23931      595.23931      595.23931      2202.3803      2797.6197      2202.3803      2797.6197      2202.3803      2797.6197      2.1089914e+08  0.5            17850500       30.435612      4828.9956      9657.9796      0.94130765   
  35696200   296.27832     -6.9111434     -21497149       2.2060069      878.73365     -21496270       595.27168      595.27168      595.27168      2202.3642      2797.6358      2202.3642      2797.6358      2202.3642      2797.6358      2.1093355e+08  0.5            17850600       30.45627       4840.7296      9681.4723      0.92038185   
  35696400   303.40058      8.65504       -21497155       2.2063742      899.8576      -21496255       595.23864      595.23864      595.23864      2202.3807      2797.6193      2202.3807      2797.6193      2202.3807      2797.6193      2.1089843e+08  0.5            17850700       30.476971      4830.5599      9661.1165      0.89945769   
  35696600   294.69985     -6.3292135     -21497162       2.2060323      874.05206     -21496288       595.26939      595.26939      595.26939      2202.3653      2797.6347      2202.3653      2797.6347      2202.3653      2797.6347      2.1093112e+08  0.5            17850800       30.497746      4813.4397      9626.8804      0.87853597   
  35696800   299.30523      7.6942405     -21497167       2.2063693      887.71117     -21496279       595.23909      595.23909      595.23909      2202.3805      2797.6195      2202.3805      2797.6195      2202.3805      2797.6195      2.108989e+08   0.5            17850900       30.518671      4779.1491      9558.289       0.85761864   
  35697000   300.98725     -4.0794893     -21497173       2.2061059      892.69988     -21496280       595.26277      595.26277      595.26277      2202.3686      2797.6314      2202.3686      2797.6314      2202.3686      2797.6314      2.1092408e+08  0.5            17851000       30.539761      4741.3845      9482.7668      0.83670586   
  35697200   295.84509      3.982228      -21497178       2.2063019      877.44872     -21496300       595.24515      595.24515      595.24515      2202.3774      2797.6226      2202.3774      2797.6226      2202.3774      2797.6226      2.1090534e+08  0.5            17851100       30.560569      4806.0527      9612.1119      0.81578526   
  35697400   308.06918      0.395729      -21497183       2.2062223      913.70424     -21496269       595.2523       595.2523       595.2523       2202.3738      2797.6262      2202.3738      2797.6262      2202.3738      2797.6262      2.1091295e+08  0.5            17851200       30.58129       4826.017       9652.0378      0.79486258   
  35697600   290.26528     -1.0981361     -21497188       2.2061923      860.89954     -21496327       595.255        595.255        595.255        2202.3725      2797.6275      2202.3725      2797.6275      2202.3725      2797.6275      2.1091582e+08  0.5            17851300       30.60196       4837.868       9675.7305      0.77393889   
  35697800   316.2347       4.7243584     -21497194       2.206333       937.92239     -21496256       595.24235      595.24235      595.24235      2202.3788      2797.6212      2202.3788      2797.6212      2202.3788      2797.6212      2.1090237e+08  0.5            17851400       30.622629      4838.023       9676.0347      0.75301554   
  35698000   300.93435     -2.881132      -21497202       2.2061582      892.54298     -21496309       595.25806      595.25806      595.25806      2202.371       2797.629       2202.371       2797.629       2202.371       2797.629       2.1091908e+08  0.5            17851500       30.643534      4783.7375      9567.4727      0.73209813   
  35698200   297.70724      4.3954271     -21497207       2.2063256      882.9717      -21496324       595.24302      595.24302      595.24302      2202.3785      2797.6215      2202.3785      2797.6215      2202.3785      2797.6215      2.1090308e+08  0.5            17851600       30.664359      4801.8274      9603.6764      0.71117891   
  35698400   309.74272     -3.0993399     -21497211       2.2061528      918.66779     -21496293       595.25856      595.25856      595.25856      2202.3707      2797.6293      2202.3707      2797.6293      2202.3707      2797.6293      2.109196e+08   0.5            17851700       30.685035      4836.5947      9673.1819      0.69025646   
  35698600   289.35663      6.0544591     -21497215       2.206374       858.20455     -21496357       595.23866      595.23866      595.23866      2202.3807      2797.6193      2202.3807      2797.6193      2202.3807      2797.6193      2.1089845e+08  0.5            17851800       30.705718      4834.8813      9669.7752      0.6693345    
  35698800   308.40951     -1.9295971     -21497222       2.2061904      914.71362     -21496307       595.25517      595.25517      595.25517      2202.3724      2797.6276      2202.3724      2797.6276      2202.3724      2797.6276      2.1091601e+08  0.5            17851900       30.726368      4842.5895      9685.1606      0.64841217   
  35699000   299.55733     -0.46189254    -21497229       2.206222       888.45888     -21496340       595.25233      595.25233      595.25233      2202.3738      2797.6262      2202.3738      2797.6262      2202.3738      2797.6262      2.1091299e+08  0.5            17852000       30.747078      4828.4922      9656.9839      0.62749144   
  35699200   299.73886      5.7901171     -21497233       2.2063671      888.99727     -21496344       595.23928      595.23928      595.23928      2202.3804      2797.6196      2202.3804      2797.6196      2202.3804      2797.6196      2.1089911e+08  0.5            17852100       30.767829      4819.0472      9638.0953      0.6065718    
  35699400   307.24303     -1.0693312     -21497239       2.2062079      911.25394     -21496328       595.2536       595.2536       595.2536       2202.3732      2797.6268      2202.3732      2797.6268      2202.3732      2797.6268      2.1091433e+08  0.5            17852200       30.788725      4785.6608      9571.3348      0.58565514   
  35699600   293.99617     -3.5447806     -21497245       2.2061486      871.96499     -21496373       595.25893      595.25893      595.25893      2202.3705      2797.6295      2202.3705      2797.6295      2202.3705      2797.6295      2.1092e+08     0.5            17852300       30.809452      4824.5869      9649.1716      0.56473542   
  35699800   307.07343      5.2613773     -21497251       2.2063467      910.75093     -21496341       595.24112      595.24112      595.24112      2202.3794      2797.6206      2202.3794      2797.6206      2202.3794      2797.6206      2.1090106e+08  0.5            17852400       30.8301        4843.0229      9686.0288      0.54381457   
  35700000   288.88917      1.5312384     -21497256       2.2062537      856.81812     -21496400       595.24948      595.24948      595.24948      2202.3753      2797.6247      2202.3753      2797.6247      2202.3753      2797.6247      2.1090995e+08  0.5            17852500       30.850768      4838.5188      9677.0245      0.52289441   
  35700200   306.70484     -4.8434373     -21496892       2.2061043      909.65774     -21495982       595.26292      595.26292      595.26292      2202.3685      2797.6315      2202.3685      2797.6315      2202.3685      2797.6315      2.1092424e+08  0.5            17852600       30.871406      4845.3864      9690.7972      0.50197412   
  35700400   290.046       -4.4762912     -21497267       2.2061216      860.24919     -21496407       595.26136      595.26136      595.26136      2202.3693      2797.6307      2202.3693      2797.6307      2202.3693      2797.6307      2.1092258e+08  0.5            17852700       30.892001      4855.5991      9711.1925      0.48105354   
  35700600   317.01999     -4.9036637     -21496537       2.206097       940.25149     -21495597       595.26357      595.26357      595.26357      2202.3682      2797.6318      2202.3682      2797.6318      2202.3682      2797.6318      2.1092493e+08  0.5            17852800       30.912607      4853.0313      9706.0734      0.46013356   
  35700800   295.95633      6.1038113     -21496545       2.2063515      877.77866     -21495667       595.24068      595.24068      595.24068      2202.3797      2797.6203      2202.3797      2797.6203      2202.3797      2797.6203      2.109006e+08   0.5            17852900       30.933262      4841.4088      9682.8241      0.4392147    
  35701000   307.6608      -6.61464       -21496553       2.2060588      912.493       -21495640       595.26701      595.26701      595.26701      2202.3665      2797.6335      2202.3665      2797.6335      2202.3665      2797.6335      2.1092858e+08  0.5            17853000       30.953911      4842.7027      9685.3712      0.41829613   
  35701200   294.71372      11.215002     -21496558       2.2064747      874.0932      -21495684       595.2296       595.2296       595.2296       2202.3852      2797.6148      2202.3852      2797.6148      2202.3852      2797.6148      2.1088883e+08  0.5            17853100       30.97458       4838.2287      9676.4711      0.39737817   
  35701400   302.99254     -8.5389487     -21496563       2.2060233      898.64739     -21495664       595.2702       595.2702       595.2702       2202.3649      2797.6351      2202.3649      2797.6351      2202.3649      2797.6351      2.1093198e+08  0.5            17853200       30.995292      4828.0912      9656.1941      0.37646107   
  35701600   291.83778      11.37764      -21496566       2.2064957      865.56343     -21495701       595.22772      595.22772      595.22772      2202.3861      2797.6139      2202.3861      2797.6139      2202.3861      2797.6139      2.1088682e+08  0.5            17853300       31.015961      4838.14        9676.2712      0.35554375   
  35701800   297.04188     -11.671356     -21496570       2.2059603      880.99831     -21495689       595.27587      595.27587      595.27587      2202.3621      2797.6379      2202.3621      2797.6379      2202.3621      2797.6379      2.10938e+08    0.5            17853400       31.03697       4759.9407      9519.8737      0.33463043   
  35702000   302.51878      9.8046226     -21496577       2.2064653      897.24228     -21495679       595.23045      595.23045      595.23045      2202.3848      2797.6152      2202.3848      2797.6152      2202.3848      2797.6152      2.1088973e+08  0.5            17853500       31.057679      4828.7291      9657.4605      0.31371396   
  35702200   288.48355      4.3940481     -21496583       2.2063445      855.61508     -21495728       595.24131      595.24131      595.24131      2202.3793      2797.6207      2202.3793      2797.6207      2202.3793      2797.6207      2.1090127e+08  0.5            17853600       31.078461      4811.9833      9623.9759      0.29279844   
  35702400   308.07568     -10.358158     -21496586       2.2060083      913.7235      -21495673       595.27155      595.27155      595.27155      2202.3642      2797.6358      2202.3642      2797.6358      2202.3642      2797.6358      2.1093342e+08  0.5            17853700       31.099295      4799.8662      9599.7311      0.27188356   
  35702600   295.13674      4.5327031     -21496593       2.206363       875.34784     -21495717       595.23965      595.23965      595.23965      2202.3802      2797.6198      2202.3802      2797.6198      2202.3802      2797.6198      2.108995e+08   0.5            17853800       31.119985      4833.2416      9666.4883      0.25096764   
  35702800   317.00314      10.890975     -21496964       2.206513       940.20152     -21496024       595.22616      595.22616      595.22616      2202.3869      2797.6131      2202.3869      2797.6131      2202.3869      2797.6131      2.1088516e+08  0.5            17853900       31.14068       4832.0248      9664.0552      0.23005205   
  35703000   290.51529      3.1815176     -21496969       2.2063328      861.64105     -21496108       595.24237      595.24237      595.24237      2202.3788      2797.6212      2202.3788      2797.6212      2202.3788      2797.6212      2.1090239e+08  0.5            17854000       31.161366      4834.2374      9668.4505      0.2091367    
  35703200   309.49333     -0.73291595    -21496605       2.2062356      917.92813     -21495687       595.25111      595.25111      595.25111      2202.3744      2797.6256      2202.3744      2797.6256      2202.3744      2797.6256      2.1091168e+08  0.5            17854100       31.182104      4822.0628      9644.1195      0.18822197   
  35703400   286.28547     -2.4516741     -21496608       2.2061912      849.0958      -21495759       595.2551       595.2551       595.2551       2202.3725      2797.6275      2202.3725      2797.6275      2202.3725      2797.6275      2.1091593e+08  0.5            17854200       31.202766      4839.755       9679.509       0.16730707   
  35703600   301.31059     -3.1017722     -21496613       2.2061677      893.65888     -21495719       595.25722      595.25722      595.25722      2202.3714      2797.6286      2202.3714      2797.6286      2202.3714      2797.6286      2.1091817e+08  0.5            17854300       31.223429      4839.5786      9679.1643      0.14639251   
  35703800   297.35494     -3.3464768     -21496618       2.2061548      881.9268      -21495736       595.25837      595.25837      595.25837      2202.3708      2797.6292      2202.3708      2797.6292      2202.3708      2797.6292      2.109194e+08   0.5            17854400       31.244097      4838.361       9676.7407      0.12547831   
  35704000   296.60623     -3.7521085     -21496623       2.2061435      879.70619     -21495744       595.25939      595.25939      595.25939      2202.3703      2797.6297      2202.3703      2797.6297      2202.3703      2797.6297      2.1092049e+08  0.5            17854500       31.264762      4839.0894      9678.1666      0.10456443   
  35704200   302.39892     -3.6014459     -21496629       2.2061368      896.88677     -21495732       595.25999      595.25999      595.25999      2202.37        2797.63        2202.37        2797.63        2202.37        2797.63        2.1092112e+08  0.5            17854600       31.285556      4808.9993      9618.0032      0.083651227  
  35704400   297.39972     -2.6572272     -21496634       2.2061461      882.05963     -21495752       595.25915      595.25915      595.25915      2202.3704      2797.6296      2202.3704      2797.6296      2202.3704      2797.6296      2.1092023e+08  0.5            17854700       31.306205      4842.8807      9685.7751      0.062737891  
  35704600   316.8152      -1.8044703     -21496639       2.2061564      939.6441      -21495700       595.25823      595.25823      595.25823      2202.3709      2797.6291      2202.3709      2797.6291      2202.3709      2797.6291      2.1091925e+08  0.5            17854800       31.326855      4842.6378      9685.2666      0.04182491   
  35704800   296.65292      0.18524918    -21496645       2.2061969      879.84468     -21495766       595.25458      595.25458      595.25458      2202.3727      2797.6273      2202.3727      2797.6273      2202.3727      2797.6273      2.1091538e+08  0.5            17854900       31.347569      4827.7532      9655.4906      0.020912322  
  35705000   306.16838      4.1690737     -21496651       2.2062879      908.06662     -21495743       595.2464       595.2464       595.2464       2202.3768      2797.6232      2202.3768      2797.6232      2202.3768      2797.6232      2.1090668e+08  0.5            17855000       31.368237      4838.3982      9676.7913      0            
Loop time of 31.3683 on 4 procs for 300000 steps with 996 atoms

Performance: 413.156 ns/day, 0.058 hours/ns, 9563.807 timesteps/s
92.7% CPU use with 4 MPI tasks x no OpenMP threads

MPI task timing breakdown:
Section |  min time  |  avg time  |  max time  |%varavg| %total
---------------------------------------------------------------
Pair    | 12.884     | 14.479     | 16.241     |  31.3 | 46.16
Neigh   | 0.0097797  | 0.010666   | 0.012086   |   0.8 |  0.03
Comm    | 8.3918     | 10.081     | 11.638     |  36.2 | 32.14
Output  | 0.041935   | 0.047054   | 0.057967   |   2.9 |  0.15
Modify  | 5.0723     | 5.1738     | 5.3279     |   4.2 | 16.49
Other   |            | 1.577      |            |       |  5.03

Nlocal:            249 ave         276 max         230 min
Histogram: 1 0 1 0 1 0 0 0 0 1
Nghost:            815 ave         836 max         799 min
Histogram: 1 0 1 0 1 0 0 0 0 1
Neighs:         1704.5 ave        1887 max        1520 min
Histogram: 1 0 0 0 1 1 0 0 0 1

Total # of neighbors = 6818
Ave neighs/atom = 6.8453815
Neighbor list builds = 54
Dangerous builds = 0

# run_style
run_style verlet

# write restart
write_restart ${write_res}
write_restart ./pgnpmf/73/equpmf51.res
System init for write_restart ...
Generated 0 of 1 mixed pair_coeff terms from geometric mixing rule

Total wall time: 0:01:08
