LAMMPS (23 Jun 2022 - Update 1)
# Read restart
read_restart ${read_res}
read_restart ./pgnpmf/73/equpmf68.res
Reading restart file ...
  restart file = 23 Jun 2022, LAMMPS = 23 Jun 2022
  restoring atom style atomic from restart
  orthogonal box = (2202.2872 2202.2872 2202.2872) to (2797.7128 2797.7128 2797.7128)
  1 by 2 by 2 MPI processor grid
  restoring pair style table from restart
  996 atoms
  read_restart CPU = 0.005 seconds

# Settings

pair_style table spline 9941

pair_coeff 1 1 ./pgnpmf/N20.txt DE_GNP 75.6
pair_coeff 2 2 ./pgnpmf/N100.txt DE_GNP 115.92
WARNING: 3 of 9941 force values in table DE_GNP are inconsistent with -dE/dr.
WARNING:  Should only be flagged at inflection points (../pair_table.cpp:463)
pair_coeff 1 2 ./pgnpmf/mixed_potential.txt DE_GNP 95.66
WARNING: 1562 of 9941 force values in table DE_GNP are inconsistent with -dE/dr.
WARNING:  Should only be flagged at inflection points (../pair_table.cpp:463)

#Neigh_list Calc Frequency

neigh_modify delay 0 every 1 check yes

# Saving Frequency (50 frames)

variable ts_save equal ${steps_equ}
variable ts_save equal 5000

# Dump
#dump 1 all custom ${ts_save} ./pgnpmf/${folder}/equilibration/trajectory/trajectory_${usic}_${trial}.equ.custom type x y z ix iy iz
#dump_modify 1 first no sort id
#dump 2 all cfg 50000 ./equilibration/trajectory/ovito/dumpgen.tens_*.cfg mass type xs ys zs fx fy fz

# thermo_style
thermo_style custom step temp press pe density ke etotal lx ly lz xlo xhi ylo yhi zlo zhi vol dt time cpu tpcpu spcpu cpuremain

# run info
timestep ${ts}
timestep 0.5
thermo 200

# fix

fix 1 all momentum 1000 linear 1 1 1 angular
variable T equal ${temp}
variable T equal 300
fix 2 all nvt temp ${T} 370000 100.0
fix 2 all nvt temp 300 370000 100.0

run 100000
Generated 0 of 1 mixed pair_coeff terms from geometric mixing rule
Unused restart file global fix info:
  fix style: npt, fix ID: 5
Neighbor list info ...
  update every 1 steps, delay 0 steps, check yes
  max neighbors/atom: 2000, page size: 100000
  master list distance cutoff = 117.92
  ghost atom cutoff = 117.92
  binsize = 58.96, bins = 11 11 11
  1 neighbor lists, perpetual/occasional/extra = 1 0 0
  (1) pair table, perpetual
      attributes: half, newton on
      pair build: half/bin/atomonly/newton
      stencil: half/bin/3d
      bin: standard
Per MPI rank memory allocation (min/avg/max) = 3.086 | 3.089 | 3.092 Mbytes
   Step          Temp          Press          PotEng        Density         KinEng         TotEng           Lx             Ly             Lz            Xlo            Xhi            Ylo            Yhi            Zlo            Zhi           Volume           Dt            Time           CPU           T/CPU          S/CPU         CPULeft    
  47605000   304.04355     -3.7566723     -21656240       2.2042971      901.7646      -21655338       595.42555      595.42555      595.42555      2202.2872      2797.7128      2202.2872      2797.7128      2202.2872      2797.7128      2.1109716e+08  0.5            23805000       0              0              0              0            
  47605200   363.54883     -3.3466993     -21656253       2.2042971      1078.2517     -21655175       595.42555      595.42555      595.42555      2202.2872      2797.7128      2202.2872      2797.7128      2202.2872      2797.7128      2.1109716e+08  0.5            23805100       0.0186123      5372.5429      10744.551      9.2888531    
  47605400   511.07769     -2.4863975     -21654371       2.2042971      1515.8084     -21652855       595.42555      595.42555      595.42555      2202.2872      2797.7128      2202.2872      2797.7128      2202.2872      2797.7128      2.1109716e+08  0.5            23805200       0.037228258    5371.7954      10743.602      9.2704301    
  47605600   764.55271     -1.752461      -21654383       2.2042971      2267.5915     -21652116       595.42555      595.42555      595.42555      2202.2872      2797.7128      2202.2872      2797.7128      2202.2872      2797.7128      2.1109716e+08  0.5            23805300       0.055838864    5373.2943      10746.596      9.2510372    
  47605800   1174.7878     -0.48207201    -21654393       2.2042971      3484.3102     -21650908       595.42555      595.42555      595.42555      2202.2872      2797.7128      2202.2872      2797.7128      2202.2872      2797.7128      2.1109716e+08  0.5            23805400       0.074503424    5357.7527      10715.515      9.2387123    
  47606000   1811.5485      0.96504819    -21654386       2.2042971      5372.8825     -21649013       595.42555      595.42555      595.42555      2202.2872      2797.7128      2202.2872      2797.7128      2202.2872      2797.7128      2.1109716e+08  0.5            23805500       0.093194725    5350.0512      10700.106      9.2265156    
  47606200   2752.2718      2.5103027     -21653986       2.2042971      8162.9794     -21645823       595.42555      595.42555      595.42555      2202.2872      2797.7128      2202.2872      2797.7128      2202.2872      2797.7128      2.1109716e+08  0.5            23805600       0.11184811     5360.9487      10721.911      9.209021     
  47606400   4035.6109      4.4196442     -21653920       2.2042971      11969.243     -21641951       595.42555      595.42555      595.42555      2202.2872      2797.7128      2202.2872      2797.7128      2202.2872      2797.7128      2.1109716e+08  0.5            23805700       0.13045954     5373.1092      10746.192      9.1882291    
  47606600   5567.4027      6.3328343     -21653433       2.2042971      16512.393     -21636920       595.42555      595.42555      595.42555      2202.2872      2797.7128      2202.2872      2797.7128      2202.2872      2797.7128      2.1109716e+08  0.5            23805800       0.14910086     5364.4103      10728.852      9.1698416    
  47606800   7032.1615      8.7918219     -21653237       2.2042971      20856.73      -21632380       595.42555      595.42555      595.42555      2202.2872      2797.7128      2202.2872      2797.7128      2202.2872      2797.7128      2.1109716e+08  0.5            23805900       0.16764533     5392.4501      10784.863      9.1461099    
  47607000   7989.7933      10.417798     -21653325       2.2042971      23696.976     -21629628       595.42555      595.42555      595.42555      2202.2872      2797.7128      2202.2872      2797.7128      2202.2872      2797.7128      2.1109716e+08  0.5            23806000       0.18630156     5360.1311      10720.285      9.1288895    
  47607200   8388.0582      10.97744      -21654881       2.2042971      24878.192     -21630003       595.42555      595.42555      595.42555      2202.2872      2797.7128      2202.2872      2797.7128      2202.2872      2797.7128      2.1109716e+08  0.5            23806100       0.20493493     5366.7333      10733.446      9.1103858    
  47607400   8847.0954      11.560998     -21654104       2.2042971      26239.653     -21627865       595.42555      595.42555      595.42555      2202.2872      2797.7128      2202.2872      2797.7128      2202.2872      2797.7128      2.1109716e+08  0.5            23806200       0.22425525     5175.8843      10351.805      9.1198031    
  47607600   9799.2102      13.777453     -21651731       2.2042971      29063.536     -21622668       595.42555      595.42555      595.42555      2202.2872      2797.7128      2202.2872      2797.7128      2202.2872      2797.7128      2.1109716e+08  0.5            23806300       0.24309298     5308.4262      10616.839      9.1067287    
  47607800   10832.699      16.083461     -21650787       2.2042971      32128.766     -21618658       595.42555      595.42555      595.42555      2202.2872      2797.7128      2202.2872      2797.7128      2202.2872      2797.7128      2.1109716e+08  0.5            23806400       0.26188717     5320.8808      10641.731      9.0913027    
  47608000   11498.263      17.276571     -21650498       2.2042971      34102.767     -21616395       595.42555      595.42555      595.42555      2202.2872      2797.7128      2202.2872      2797.7128      2202.2872      2797.7128      2.1109716e+08  0.5            23806500       0.28057885     5349.9155      10699.837      9.0721285    
  47608200   11962.878      20.354475     -21649765       2.2042971      35480.772     -21614285       595.42555      595.42555      595.42555      2202.2872      2797.7128      2202.2872      2797.7128      2202.2872      2797.7128      2.1109716e+08  0.5            23806600       0.2993733      5320.7687      10641.576      9.0561085    
  47608400   12691.464      22.271943     -21648973       2.2042971      37641.688     -21611331       595.42555      595.42555      595.42555      2202.2872      2797.7128      2202.2872      2797.7128      2202.2872      2797.7128      2.1109716e+08  0.5            23806700       0.31808412     5344.4935      10688.981      9.0373916    
  47608600   13670.881      25.802001     -21648104       2.2042971      40546.549     -21607557       595.42555      595.42555      595.42555      2202.2872      2797.7128      2202.2872      2797.7128      2202.2872      2797.7128      2.1109716e+08  0.5            23806800       0.33703816     5275.9173      10551.856      9.0251925    
  47608800   14498.154      29.304875     -21647542       2.2042971      43000.163     -21604541       595.42555      595.42555      595.42555      2202.2872      2797.7128      2202.2872      2797.7128      2202.2872      2797.7128      2.1109716e+08  0.5            23806900       0.35563717     5376.6363      10753.244      9.00329      
  47609000   15055.994      31.042438     -21648460       2.2042971      44654.662     -21603805       595.42555      595.42555      595.42555      2202.2872      2797.7128      2202.2872      2797.7128      2202.2872      2797.7128      2.1109716e+08  0.5            23807000       0.37429412     5359.9338      10719.847      8.9831141    
  47609200   15665.172      33.540562     -21647084       2.2042971      46461.429     -21600623       595.42555      595.42555      595.42555      2202.2872      2797.7128      2202.2872      2797.7128      2202.2872      2797.7128      2.1109716e+08  0.5            23807100       0.39305215     5331.0232      10662.101      8.9653837    
  47609400   16538.875      37.214503     -21647165       2.2042971      49052.75      -21598112       595.42555      595.42555      595.42555      2202.2872      2797.7128      2202.2872      2797.7128      2202.2872      2797.7128      2.1109716e+08  0.5            23807200       0.41191328     5301.9146      10603.824      8.9497997    
  47609600   17440.015      40.165275     -21646479       2.2042971      51725.446     -21594754       595.42555      595.42555      595.42555      2202.2872      2797.7128      2202.2872      2797.7128      2202.2872      2797.7128      2.1109716e+08  0.5            23807300       0.43054927     5365.9595      10731.855      8.9292676    
  47609800   18103.225      49.241877     -21643494       2.2042971      53692.465     -21589801       595.42555      595.42555      595.42555      2202.2872      2797.7128      2202.2872      2797.7128      2202.2872      2797.7128      2.1109716e+08  0.5            23807400       0.44924835     5347.8901      10695.829      8.9101357    
  47610000   18674.936      54.162449     -21644657       2.2042971      55388.104     -21589268       595.42555      595.42555      595.42555      2202.2872      2797.7128      2202.2872      2797.7128      2202.2872      2797.7128      2.1109716e+08  0.5            23807500       0.46787129     5369.7041      10739.381      8.889597     
  47610200   19444.379      57.135793     -21649051       2.2042971      57670.199     -21591381       595.42555      595.42555      595.42555      2202.2872      2797.7128      2202.2872      2797.7128      2202.2872      2797.7128      2.1109716e+08  0.5            23807600       0.48680555     5281.4333      10562.908      8.8748807    
  47610400   20354.143      59.913678     -21648343       2.2042971      60368.474     -21587974       595.42555      595.42555      595.42555      2202.2872      2797.7128      2202.2872      2797.7128      2202.2872      2797.7128      2.1109716e+08  0.5            23807700       0.5053871      5381.6621      10763.303      8.853672     
  47610600   21112.192      64.550862     -21645352       2.2042971      62616.777     -21582736       595.42555      595.42555      595.42555      2202.2872      2797.7128      2202.2872      2797.7128      2202.2872      2797.7128      2.1109716e+08  0.5            23807800       0.5239533      5386.1437      10772.294      8.8323924    
  47610800   21703.016      71.993302     -21636528       2.2042971      64369.105     -21572158       595.42555      595.42555      595.42555      2202.2872      2797.7128      2202.2872      2797.7128      2202.2872      2797.7128      2.1109716e+08  0.5            23807900       0.54263179     5353.7487      10707.516      8.8131235    
  47611000   22375.998      78.742103     -21635816       2.2042971      66365.108     -21569451       595.42555      595.42555      595.42555      2202.2872      2797.7128      2202.2872      2797.7128      2202.2872      2797.7128      2.1109716e+08  0.5            23808000       0.56156369     5282.0914      10564.141      8.7978658    
  47611200   23242.225      82.023669     -21635475       2.2042971      68934.254     -21566541       595.42555      595.42555      595.42555      2202.2872      2797.7128      2202.2872      2797.7128      2202.2872      2797.7128      2.1109716e+08  0.5            23808100       0.58024522     5352.8766      10705.777      8.778582     
  47611400   24090.008      85.199173     -21636679       2.2042971      71448.699     -21565230       595.42555      595.42555      595.42555      2202.2872      2797.7128      2202.2872      2797.7128      2202.2872      2797.7128      2.1109716e+08  0.5            23808200       0.59889411     5362.2753      10724.537      8.7588586    
  47611600   24733.253      88.282604     -21635608       2.2042971      73356.505     -21562252       595.42555      595.42555      595.42555      2202.2872      2797.7128      2202.2872      2797.7128      2202.2872      2797.7128      2.1109716e+08  0.5            23808300       0.61756331     5356.3815      10712.792      8.7394884    
  47611800   25338.92       94.247183     -21635269       2.2042971      75152.854     -21560116       595.42555      595.42555      595.42555      2202.2872      2797.7128      2202.2872      2797.7128      2202.2872      2797.7128      2.1109716e+08  0.5            23808400       0.63646143     5291.5543      10583.09       8.7232965    
  47612000   26126.001      100.36986     -21634533       2.2042971      77487.264     -21557046       595.42555      595.42555      595.42555      2202.2872      2797.7128      2202.2872      2797.7128      2202.2872      2797.7128      2.1109716e+08  0.5            23808500       0.6552687      5317.0682      10634.054      8.7057465    
  47612200   27012.763      106.11151     -21632669       2.2042971      80117.315     -21552551       595.42555      595.42555      595.42555      2202.2872      2797.7128      2202.2872      2797.7128      2202.2872      2797.7128      2.1109716e+08  0.5            23808600       0.67398733     5342.3076      10684.697      8.6869754    
  47612400   27739.438      110.89727     -21630732       2.2042971      82272.565     -21548460       595.42555      595.42555      595.42555      2202.2872      2797.7128      2202.2872      2797.7128      2202.2872      2797.7128      2.1109716e+08  0.5            23808700       0.69306935     5240.5175      10481.003      8.6727625    
  47612600   28335.361      117.67547     -21629116       2.2042971      84040.018     -21545076       595.42555      595.42555      595.42555      2202.2872      2797.7128      2202.2872      2797.7128      2202.2872      2797.7128      2.1109716e+08  0.5            23808800       0.71172792     5359.4876      10719.026      8.653139     
  47612800   29042.526      121.61216     -21627815       2.2042971      86137.402     -21541677       595.42555      595.42555      595.42555      2202.2872      2797.7128      2202.2872      2797.7128      2202.2872      2797.7128      2.1109716e+08  0.5            23808900       0.73038112     5361.0099      10722.036      8.6335051    
  47613000   29909.886      129.45549     -21626091       2.2042971      88709.909     -21537381       595.42555      595.42555      595.42555      2202.2872      2797.7128      2202.2872      2797.7128      2202.2872      2797.7128      2.1109716e+08  0.5            23809000       0.74943626     5247.9182      10495.787      8.6185423    
  47613200   30712.788      134.45899     -21620850       2.2042971      91091.243     -21529759       595.42555      595.42555      595.42555      2202.2872      2797.7128      2202.2872      2797.7128      2202.2872      2797.7128      2.1109716e+08  0.5            23809100       0.76817662     5336.0862      10672.181      8.5998559    
  47613400   31349.272      141.17394     -21619690       2.2042971      92978.993     -21526711       595.42555      595.42555      595.42555      2202.2872      2797.7128      2202.2872      2797.7128      2202.2872      2797.7128      2.1109716e+08  0.5            23809200       0.78684754     5355.9322      10711.893      8.5804103    
  47613600   31996.501      149.32213     -21619615       2.2042971      94898.613     -21524716       595.42555      595.42555      595.42555      2202.2872      2797.7128      2202.2872      2797.7128      2202.2872      2797.7128      2.1109716e+08  0.5            23809300       0.80551898     5355.7679      10711.516      8.5610029    
  47613800   32813.129      159.0158      -21609483       2.2042971      97320.657     -21512162       595.42555      595.42555      595.42555      2202.2872      2797.7128      2202.2872      2797.7128      2202.2872      2797.7128      2.1109716e+08  0.5            23809400       0.82446627     5277.7857      10555.612      8.5444952    
  47614000   33655.657      165.90786     -21608913       2.2042971      99819.516     -21509094       595.42555      595.42555      595.42555      2202.2872      2797.7128      2202.2872      2797.7128      2202.2872      2797.7128      2.1109716e+08  0.5            23809500       0.84369812     5199.7086      10399.37       8.5307485    
  47614200   34357.111      170.09712     -21607117       2.2042971      101899.96     -21505217       595.42555      595.42555      595.42555      2202.2872      2797.7128      2202.2872      2797.7128      2202.2872      2797.7128      2.1109716e+08  0.5            23809600       0.86360967     5022.2112      10044.401      8.5234734    
  47614400   34985.975      176.06593     -21603360       2.2042971      103765.11     -21499595       595.42555      595.42555      595.42555      2202.2872      2797.7128      2202.2872      2797.7128      2202.2872      2797.7128      2.1109716e+08  0.5            23809700       0.88259797     5266.4087      10532.783      8.5067647    
  47614600   35728.685      182.27711     -21591787       2.2042971      105967.92     -21485819       595.42555      595.42555      595.42555      2202.2872      2797.7128      2202.2872      2797.7128      2202.2872      2797.7128      2.1109716e+08  0.5            23809800       0.90127149     5355.1776      10710.429      8.4869926    
  47614800   36581.966      194.61064     -21590185       2.2042971      108498.67     -21481686       595.42555      595.42555      595.42555      2202.2872      2797.7128      2202.2872      2797.7128      2202.2872      2797.7128      2.1109716e+08  0.5            23809900       0.91998393     5344.0425      10687.829      8.4676342    
  47615000   37345.651      201.57938     -21588159       2.2042971      110763.69     -21477396       595.42555      595.42555      595.42555      2202.2872      2797.7128      2202.2872      2797.7128      2202.2872      2797.7128      2.1109716e+08  0.5            23810000       0.93895471     5271.2437      10542.721      8.450613     
  47615200   37984.087      210.47962     -21586431       2.2042971      112657.23     -21473774       595.42555      595.42555      595.42555      2202.2872      2797.7128      2202.2872      2797.7128      2202.2872      2797.7128      2.1109716e+08  0.5            23810100       0.95770168     5334.1936      10668.401      8.4315496    
  47615400   38674.788      217.8563      -21582019       2.2042971      114705.78     -21467313       595.42555      595.42555      595.42555      2202.2872      2797.7128      2202.2872      2797.7128      2202.2872      2797.7128      2.1109716e+08  0.5            23810200       0.97643679     5337.5971      10675.221      8.4123966    
  47615600   39493.869      226.69075     -21574698       2.2042971      117135.1      -21457563       595.42555      595.42555      595.42555      2202.2872      2797.7128      2202.2872      2797.7128      2202.2872      2797.7128      2.1109716e+08  0.5            23810300       0.99529688     5302.1895      10604.371      8.3943148    
  47615800   40311.893      235.43752     -21570568       2.2042971      119561.29     -21451007       595.42555      595.42555      595.42555      2202.2872      2797.7128      2202.2872      2797.7128      2202.2872      2797.7128      2.1109716e+08  0.5            23810400       1.0138831      5380.3759      10760.749      8.3739404    
  47616000   40997.39       244.84498     -21567147       2.2042971      121594.4      -21445552       595.42555      595.42555      595.42555      2202.2872      2797.7128      2202.2872      2797.7128      2202.2872      2797.7128      2.1109716e+08  0.5            23810500       1.0325434      5358.9319      10717.859      8.3542319    
  47616200   41653.847      252.24815     -21564853       2.2042971      123541.39     -21441312       595.42555      595.42555      595.42555      2202.2872      2797.7128      2202.2872      2797.7128      2202.2872      2797.7128      2.1109716e+08  0.5            23810600       1.0516023      5246.8823      10493.751      8.3377209    
  47616400   42424.402      259.84185     -21562549       2.2042971      125826.79     -21436722       595.42555      595.42555      595.42555      2202.2872      2797.7128      2202.2872      2797.7128      2202.2872      2797.7128      2.1109716e+08  0.5            23810700       1.0702775      5354.6873      10709.337      8.3181399    
  47616600   43252.974      270.26406     -21563659       2.2042971      128284.26     -21435375       595.42555      595.42555      595.42555      2202.2872      2797.7128      2202.2872      2797.7128      2202.2872      2797.7128      2.1109716e+08  0.5            23810800       1.088889       5373.0544      10746.184      8.2981007    
  47616800   44001.858      277.9291      -21562899       2.2042971      130505.38     -21432394       595.42555      595.42555      595.42555      2202.2872      2797.7128      2202.2872      2797.7128      2202.2872      2797.7128      2.1109716e+08  0.5            23810900       1.107902       5259.5363      10519.086      8.2811142    
  47617000   44663.839      291.49207     -21558754       2.2042971      132468.75     -21426285       595.42555      595.42555      595.42555      2202.2872      2797.7128      2202.2872      2797.7128      2202.2872      2797.7128      2.1109716e+08  0.5            23811000       1.1266393      5336.9559      10673.808      8.2620391    
  47617200   45376.921      302.747       -21556876       2.2042971      134583.68     -21422292       595.42555      595.42555      595.42555      2202.2872      2797.7128      2202.2872      2797.7128      2202.2872      2797.7128      2.1109716e+08  0.5            23811100       1.1453726      5338.1012      10676.219      8.2429435    
  47617400   46196.792      308.04231     -21552791       2.2042971      137015.34     -21415775       595.42555      595.42555      595.42555      2202.2872      2797.7128      2202.2872      2797.7128      2202.2872      2797.7128      2.1109716e+08  0.5            23811200       1.1644154      5251.3388      10502.719      8.2260462    
  47617600   46988.661      315.13657     -21550651       2.2042971      139363.95     -21411287       595.42555      595.42555      595.42555      2202.2872      2797.7128      2202.2872      2797.7128      2202.2872      2797.7128      2.1109716e+08  0.5            23811300       1.1832907      5297.8813      10595.707      8.2079221    
  47617800   47667.373      321.23398     -21550413       2.2042971      141376.95     -21409036       595.42555      595.42555      595.42555      2202.2872      2797.7128      2202.2872      2797.7128      2202.2872      2797.7128      2.1109716e+08  0.5            23811400       1.202345       5248.2052      10496.463      8.1909897    
  47618000   48353.986      329.40543     -21538303       2.2042971      143413.38     -21394890       595.42555      595.42555      595.42555      2202.2872      2797.7128      2202.2872      2797.7128      2202.2872      2797.7128      2.1109716e+08  0.5            23811500       1.2212097      5300.9051      10601.832      8.172726     
  47618200   49153.168      338.11683     -21527328       2.2042971      145783.68     -21381545       595.42555      595.42555      595.42555      2202.2872      2797.7128      2202.2872      2797.7128      2202.2872      2797.7128      2.1109716e+08  0.5            23811600       1.2401337      5284.2736      10568.454      8.1548339    
  47618400   49964.302      350.67113     -21525625       2.2042971      148189.42     -21377436       595.42555      595.42555      595.42555      2202.2872      2797.7128      2202.2872      2797.7128      2202.2872      2797.7128      2.1109716e+08  0.5            23811700       1.2592743      5224.5182      10449.09       8.1383093    
  47618600   50689.907      354.59102     -21521281       2.2042971      150341.5      -21370939       595.42555      595.42555      595.42555      2202.2872      2797.7128      2202.2872      2797.7128      2202.2872      2797.7128      2.1109716e+08  0.5            23811800       1.2781338      5302.3605      10604.699      8.1199229    
  47618800   51408.413      363.4772      -21520718       2.2042971      152472.52     -21368245       595.42555      595.42555      595.42555      2202.2872      2797.7128      2202.2872      2797.7128      2202.2872      2797.7128      2.1109716e+08  0.5            23811900       1.2969259      5321.3797      10642.767      8.1011017    
  47619000   52219.577      369.93127     -21521595       2.2042971      154878.36     -21366716       595.42555      595.42555      595.42555      2202.2872      2797.7128      2202.2872      2797.7128      2202.2872      2797.7128      2.1109716e+08  0.5            23812000       1.3161103      5212.5539      10425.056      8.0846929    
  47619200   53119.089      382.106       -21519010       2.2042971      157546.22     -21361464       595.42555      595.42555      595.42555      2202.2872      2797.7128      2202.2872      2797.7128      2202.2872      2797.7128      2.1109716e+08  0.5            23812100       1.3351771      5244.7158      10489.488      8.0674921    
  47619400   54146.779      388.13519     -21523018       2.2042971      160594.26     -21362424       595.42555      595.42555      595.42555      2202.2872      2797.7128      2202.2872      2797.7128      2202.2872      2797.7128      2.1109716e+08  0.5            23812200       1.3543864      5205.7454      10411.524      8.0510889    
  47619600   55696.59       398.04358     -21516878       2.2042971      165190.85     -21351687       595.42555      595.42555      595.42555      2202.2872      2797.7128      2202.2872      2797.7128      2202.2872      2797.7128      2.1109716e+08  0.5            23812300       1.3732481      5301.8131      10603.591      8.0325736    
  47619800   57209.413      414.49409     -21507063       2.2042971      169677.74     -21337385       595.42555      595.42555      595.42555      2202.2872      2797.7128      2202.2872      2797.7128      2202.2872      2797.7128      2.1109716e+08  0.5            23812400       1.3924255      5214.4769      10428.929      8.0158678    
  47620000   55878.079      423.50451     -21499451       2.2042971      165729.13     -21333722       595.42555      595.42555      595.42555      2202.2872      2797.7128      2202.2872      2797.7128      2202.2872      2797.7128      2.1109716e+08  0.5            23812500       1.4113039      5297.0515      10594.077      7.9974024    
  47620200   52930.888      430.74821     -21495090       2.2042971      156988.04     -21338101       595.42555      595.42555      595.42555      2202.2872      2797.7128      2202.2872      2797.7128      2202.2872      2797.7128      2.1109716e+08  0.5            23812600       1.4306378      5172.2603      10344.53       7.9814665    
  47620400   55424.87       439.78914     -21493044       2.2042971      164384.95     -21328659       595.42555      595.42555      595.42555      2202.2872      2797.7128      2202.2872      2797.7128      2202.2872      2797.7128      2.1109716e+08  0.5            23812700       1.4494936      5303.4372      10606.913      7.9628139    
  47620600   57250.903      449.58874     -21499411       2.2042971      169800.8      -21329610       595.42555      595.42555      595.42555      2202.2872      2797.7128      2202.2872      2797.7128      2202.2872      2797.7128      2.1109716e+08  0.5            23812800       1.4683577      5301.0523      10602.109      7.9442037    
  47620800   58669.186      457.69528     -21489889       2.2042971      174007.29     -21315881       595.42555      595.42555      595.42555      2202.2872      2797.7128      2202.2872      2797.7128      2202.2872      2797.7128      2.1109716e+08  0.5            23812900       1.4875479      5210.9738      10421.931      7.9273246    
  47621000   59807.786      472.58251     -21479988       2.2042971      177384.27     -21302604       595.42555      595.42555      595.42555      2202.2872      2797.7128      2202.2872      2797.7128      2202.2872      2797.7128      2.1109716e+08  0.5            23813000       1.5064796      5282.1667      10564.36       7.9090297    
  47621200   60440.325      480.18187     -21470091       2.2042971      179260.32     -21290831       595.42555      595.42555      595.42555      2202.2872      2797.7128      2202.2872      2797.7128      2202.2872      2797.7128      2.1109716e+08  0.5            23813100       1.5257275      5195.3434      10390.664      7.8923556    
  47621400   61909.809      486.27793     -21479919       2.2042971      183618.67     -21296300       595.42555      595.42555      595.42555      2202.2872      2797.7128      2202.2872      2797.7128      2202.2872      2797.7128      2.1109716e+08  0.5            23813200       1.5445192      5321.5711      10643.168      7.8732919    
  47621600   64387.87       497.73262     -21477397       2.2042971      190968.37     -21286428       595.42555      595.42555      595.42555      2202.2872      2797.7128      2202.2872      2797.7128      2202.2872      2797.7128      2.1109716e+08  0.5            23813300       1.5633234      5317.9453      10635.929      7.8542982    
  47621800   62446.387      507.51156     -21482290       2.2042971      185210.11     -21297080       595.42555      595.42555      595.42555      2202.2872      2797.7128      2202.2872      2797.7128      2202.2872      2797.7128      2.1109716e+08  0.5            23813400       1.5824083      5239.7324      10479.458      7.8366994    
  47622000   58179.767      512.94006     -21484483       2.2042971      172555.72     -21311928       595.42555      595.42555      595.42555      2202.2872      2797.7128      2202.2872      2797.7128      2202.2872      2797.7128      2.1109716e+08  0.5            23813500       1.601068       5359.1418      10718.215      7.8169906    
  47622200   60756.487      520.99618     -21486397       2.2042971      180198.03     -21306199       595.42555      595.42555      595.42555      2202.2872      2797.7128      2202.2872      2797.7128      2202.2872      2797.7128      2.1109716e+08  0.5            23813600       1.6198758      5316.9744      10633.982      7.798017     
  47622400   63015.166      530.97948     -21495749       2.2042971      186897.06     -21308851       595.42555      595.42555      595.42555      2202.2872      2797.7128      2202.2872      2797.7128      2202.2872      2797.7128      2.1109716e+08  0.5            23813700       1.6388223      5277.9888      10556.008      7.7797069    
  47622600   65737.526      539.52406     -21507992       2.2042971      194971.32     -21313021       595.42555      595.42555      595.42555      2202.2872      2797.7128      2202.2872      2797.7128      2202.2872      2797.7128      2.1109716e+08  0.5            23813800       1.6575505      5339.5394      10679.062      7.7603607    
  47622800   66912.692      549.37233     -21513959       2.2042971      198456.76     -21315503       595.42555      595.42555      595.42555      2202.2872      2797.7128      2202.2872      2797.7128      2202.2872      2797.7128      2.1109716e+08  0.5            23813900       1.6761926      5364.2048      10728.362      7.7406306    
  47623000   66760.646      554.26965     -21509950       2.2042971      198005.8      -21311944       595.42555      595.42555      595.42555      2202.2872      2797.7128      2202.2872      2797.7128      2202.2872      2797.7128      2.1109716e+08  0.5            23814000       1.6953001      5233.5605      10467.093      7.7230442    
  47623200   67293.526      561.91063     -21522983       2.2042971      199586.27     -21323397       595.42555      595.42555      595.42555      2202.2872      2797.7128      2202.2872      2797.7128      2202.2872      2797.7128      2.1109716e+08  0.5            23814100       1.7141903      5293.7359      10587.516      7.704448     
  47623400   70053.573      570.55091     -21516125       2.2042971      207772.31     -21308352       595.42555      595.42555      595.42555      2202.2872      2797.7128      2202.2872      2797.7128      2202.2872      2797.7128      2.1109716e+08  0.5            23814200       1.733027       5308.779       10617.557      7.6856084    
  47623600   70350.96       578.99759     -21512828       2.2042971      208654.33     -21304173       595.42555      595.42555      595.42555      2202.2872      2797.7128      2202.2872      2797.7128      2202.2872      2797.7128      2.1109716e+08  0.5            23814300       1.7521727      5223.1218      10446.277      7.6681201    
  47623800   67224.914      586.79004     -21510662       2.2042971      199382.78     -21311280       595.42555      595.42555      595.42555      2202.2872      2797.7128      2202.2872      2797.7128      2202.2872      2797.7128      2.1109716e+08  0.5            23814400       1.7708761      5346.6052      10693.18       7.6486877    
  47624000   65191.107      591.763       -21514021       2.2042971      193350.7      -21320670       595.42555      595.42555      595.42555      2202.2872      2797.7128      2202.2872      2797.7128      2202.2872      2797.7128      2.1109716e+08  0.5            23814500       1.7895914      5343.2084      10686.381      7.6293209    
  47624200   70038.03       600.23588     -21518907       2.2042971      207726.21     -21311181       595.42555      595.42555      595.42555      2202.2872      2797.7128      2202.2872      2797.7128      2202.2872      2797.7128      2.1109716e+08  0.5            23814600       1.8089828      5156.9393      10313.92       7.6128123    
  47624400   72037.278      611.30116     -21518175       2.2042971      213655.79     -21304519       595.42555      595.42555      595.42555      2202.2872      2797.7128      2202.2872      2797.7128      2202.2872      2797.7128      2.1109716e+08  0.5            23814700       1.8281941      5205.2481      10410.485      7.5954968    
  47624600   73417.538      621.87769     -21515078       2.2042971      217749.52     -21297329       595.42555      595.42555      595.42555      2202.2872      2797.7128      2202.2872      2797.7128      2202.2872      2797.7128      2.1109716e+08  0.5            23814800       1.8474266      5199.5556      10399.012      7.5782297    
  47624800   73909.04       625.65244     -21511891       2.2042971      219207.27     -21292684       595.42555      595.42555      595.42555      2202.2872      2797.7128      2202.2872      2797.7128      2202.2872      2797.7128      2.1109716e+08  0.5            23814900       1.8670149      5105.0966      10210.296      7.5623624    
  47625000   74400.92       635.89643     -21507069       2.2042971      220666.13     -21286403       595.42555      595.42555      595.42555      2202.2872      2797.7128      2202.2872      2797.7128      2202.2872      2797.7128      2.1109716e+08  0.5            23815000       1.8862972      5186.1039      10372.147      7.5451982    
  47625200   76568.273      650.89843     -21500565       2.2042971      227094.3      -21273470       595.42555      595.42555      595.42555      2202.2872      2797.7128      2202.2872      2797.7128      2202.2872      2797.7128      2.1109716e+08  0.5            23815100       1.9058887      5104.2682      10208.616      7.5292124    
  47625400   77727.871      663.74536     -21498522       2.2042971      230533.56     -21267988       595.42555      595.42555      595.42555      2202.2872      2797.7128      2202.2872      2797.7128      2202.2872      2797.7128      2.1109716e+08  0.5            23815200       1.9250881      5208.4953      10417.022      7.5116258    
  47625600   75111.73       670.18649     -21486330       2.2042971      222774.33     -21263556       595.42555      595.42555      595.42555      2202.2872      2797.7128      2202.2872      2797.7128      2202.2872      2797.7128      2.1109716e+08  0.5            23815300       1.944442       5166.8663      10333.601      7.4946067    
  47625800   72208.562      678.86891     -21490838       2.2042971      214163.81     -21276674       595.42555      595.42555      595.42555      2202.2872      2797.7128      2202.2872      2797.7128      2202.2872      2797.7128      2.1109716e+08  0.5            23815400       1.9640115      5110.0075      10220.088      7.4783604    
  47626000   76680.84       690.39805     -21482096       2.2042971      227428.16     -21254668       595.42555      595.42555      595.42555      2202.2872      2797.7128      2202.2872      2797.7128      2202.2872      2797.7128      2.1109716e+08  0.5            23815500       1.9832844      5188.6309      10377.204      7.4609361    
  47626200   78534.065      700.65558     -21479506       2.2042971      232924.65     -21246581       595.42555      595.42555      595.42555      2202.2872      2797.7128      2202.2872      2797.7128      2202.2872      2797.7128      2.1109716e+08  0.5            23815600       2.0025402      5193.2381      10386.508      7.443413     
  47626400   79657.414      713.1741      -21480315       2.2042971      236256.4      -21244058       595.42555      595.42555      595.42555      2202.2872      2797.7128      2202.2872      2797.7128      2202.2872      2797.7128      2.1109716e+08  0.5            23815700       2.0217052      5217.8633      10435.759      7.4255236    
  47626600   80775.074      723.05034     -21477745       2.2042971      239571.28     -21238174       595.42555      595.42555      595.42555      2202.2872      2797.7128      2202.2872      2797.7128      2202.2872      2797.7128      2.1109716e+08  0.5            23815800       2.0413629      5087.0825      10174.196      7.4093992    
  47626800   82040.429      733.63259     -21474866       2.2042971      243324.2      -21231542       595.42555      595.42555      595.42555      2202.2872      2797.7128      2202.2872      2797.7128      2202.2872      2797.7128      2.1109716e+08  0.5            23815900       2.0607661      5153.7678      10307.478      7.3922978    
  47627000   83974.329      747.36052     -21464669       2.2042971      249059.97     -21215609       595.42555      595.42555      595.42555      2202.2872      2797.7128      2202.2872      2797.7128      2202.2872      2797.7128      2.1109716e+08  0.5            23816000       2.0802127      5142.2762      10284.504      7.375308     
  47627200   84331.327      753.29662     -21460789       2.2042971      250118.79     -21210670       595.42555      595.42555      595.42555      2202.2872      2797.7128      2202.2872      2797.7128      2202.2872      2797.7128      2.1109716e+08  0.5            23816100       2.0998815      5084.1917      10168.446      7.3590523    
  47627400   80739.631      764.77144     -21452289       2.2042971      239466.16     -21212823       595.42555      595.42555      595.42555      2202.2872      2797.7128      2202.2872      2797.7128      2202.2872      2797.7128      2.1109716e+08  0.5            23816200       2.1191954      5177.6139      10355.21       7.3415068    
  47627600   79848.833      771.37023     -21455899       2.2042971      236824.13     -21219075       595.42555      595.42555      595.42555      2202.2872      2797.7128      2202.2872      2797.7128      2202.2872      2797.7128      2.1109716e+08  0.5            23816300       2.1384801      5185.4773      10370.993      7.3238287    
  47627800   84858.209      787.26603     -21457149       2.2042971      251681.47     -21205468       595.42555      595.42555      595.42555      2202.2872      2797.7128      2202.2872      2797.7128      2202.2872      2797.7128      2.1109716e+08  0.5            23816400       2.1577276      5195.4551      10390.889      7.3059979    
  47628000   85555.693      798.38366     -21452597       2.2042971      253750.14     -21198847       595.42555      595.42555      595.42555      2202.2872      2797.7128      2202.2872      2797.7128      2202.2872      2797.7128      2.1109716e+08  0.5            23816500       2.1766941      5272.4588      10544.889      7.2872017    
  47628200   85628.477      805.14768     -21455126       2.2042971      253966.01     -21201160       595.42555      595.42555      595.42555      2202.2872      2797.7128      2202.2872      2797.7128      2202.2872      2797.7128      2.1109716e+08  0.5            23816600       2.195916       5202.4194      10404.895      7.2692467    
  47628400   87573.709      816.87125     -21455218       2.2042971      259735.39     -21195483       595.42555      595.42555      595.42555      2202.2872      2797.7128      2202.2872      2797.7128      2202.2872      2797.7128      2.1109716e+08  0.5            23816700       2.2148528      5280.7467      10561.491      7.250337     
  47628600   90707.431      826.9399      -21461922       2.2042971      269029.71     -21192892       595.42555      595.42555      595.42555      2202.2872      2797.7128      2202.2872      2797.7128      2202.2872      2797.7128      2.1109716e+08  0.5            23816800       2.23378        5283.3785      10566.764      7.2313973    
  47628800   88971.477      835.92248     -21458958       2.2042971      263881.04     -21195077       595.42555      595.42555      595.42555      2202.2872      2797.7128      2202.2872      2797.7128      2202.2872      2797.7128      2.1109716e+08  0.5            23816900       2.2529376      5219.8526      10439.605      7.2131948    
  47629000   83134.522      838.30304     -21459419       2.2042971      246569.18     -21212850       595.42555      595.42555      595.42555      2202.2872      2797.7128      2202.2872      2797.7128      2202.2872      2797.7128      2.1109716e+08  0.5            23817000       2.2723225      5158.644       10317.316      7.1956956    
  47629200   86241.672      847.36538     -21457261       2.2042971      255784.69     -21201476       595.42555      595.42555      595.42555      2202.2872      2797.7128      2202.2872      2797.7128      2202.2872      2797.7128      2.1109716e+08  0.5            23817100       2.291662       5170.7963      10341.641      7.1780227    
  47629400   89356.147      859.92737     -21457021       2.2042971      265021.93     -21191999       595.42555      595.42555      595.42555      2202.2872      2797.7128      2202.2872      2797.7128      2202.2872      2797.7128      2.1109716e+08  0.5            23817200       2.3111952      5119.4682      10238.858      7.160924     
  47629600   91650.478      876.59606     -21454848       2.2042971      271826.7      -21183021       595.42555      595.42555      595.42555      2202.2872      2797.7128      2202.2872      2797.7128      2202.2872      2797.7128      2.1109716e+08  0.5            23817300       2.3303876      5210.4132      10420.863      7.1427399    
  47629800   93108.327      887.52667     -21442626       2.2042971      276150.54     -21166475       595.42555      595.42555      595.42555      2202.2872      2797.7128      2202.2872      2797.7128      2202.2872      2797.7128      2.1109716e+08  0.5            23817400       2.3495739      5212.0632      10424.188      7.1245208    
  47630000   93090.663      893.37569     -21449295       2.2042971      276098.16     -21173197       595.42555      595.42555      595.42555      2202.2872      2797.7128      2202.2872      2797.7128      2202.2872      2797.7128      2.1109716e+08  0.5            23817500       2.3690318      5139.2764      10278.544      7.107102     
  47630200   92979.5        903.31516     -21448934       2.2042971      275768.46     -21173166       595.42555      595.42555      595.42555      2202.2872      2797.7128      2202.2872      2797.7128      2202.2872      2797.7128      2.1109716e+08  0.5            23817600       2.388124       5237.7718      10475.577      7.0885646    
  47630400   95153.245      913.09739     -21448916       2.2042971      282215.58     -21166701       595.42555      595.42555      595.42555      2202.2872      2797.7128      2202.2872      2797.7128      2202.2872      2797.7128      2.1109716e+08  0.5            23817700       2.4071181      5264.7869      10529.557      7.0697307    
  47630600   97062.949      927.13431     -21453951       2.2042971      287879.58     -21166071       595.42555      595.42555      595.42555      2202.2872      2797.7128      2202.2872      2797.7128      2202.2872      2797.7128      2.1109716e+08  0.5            23817800       2.4263904      5188.7808      10377.575      7.0517031    
  47630800   95525.804      938.05121     -21454187       2.2042971      283320.55     -21170866       595.42555      595.42555      595.42555      2202.2872      2797.7128      2202.2872      2797.7128      2202.2872      2797.7128      2.1109716e+08  0.5            23817900       2.4454633      5243.0703      10486.151      7.0330821    
  47631000   92091.902      945.10791     -21450693       2.2042971      273135.92     -21177557       595.42555      595.42555      595.42555      2202.2872      2797.7128      2202.2872      2797.7128      2202.2872      2797.7128      2.1109716e+08  0.5            23818000       2.4646257      5218.5244      10437.026      7.0147099    
  47631200   95319.604      953.53479     -21445243       2.2042971      282708.98     -21162534       595.42555      595.42555      595.42555      2202.2872      2797.7128      2202.2872      2797.7128      2202.2872      2797.7128      2.1109716e+08  0.5            23818100       2.4840667      5143.7786      10287.558      6.9971097    
  47631400   99247.761      968.0671      -21432337       2.2042971      294359.53     -21137978       595.42555      595.42555      595.42555      2202.2872      2797.7128      2202.2872      2797.7128      2202.2872      2797.7128      2.1109716e+08  0.5            23818200       2.5032117      5223.2866      10446.587      6.9786564    
  47631600   98690.48       979.49607     -21428544       2.2042971      292706.69     -21135838       595.42555      595.42555      595.42555      2202.2872      2797.7128      2202.2872      2797.7128      2202.2872      2797.7128      2.1109716e+08  0.5            23818300       2.5222675      5247.7601      10495.502      6.9599467    
  47631800   97990.122      993.84615     -21427738       2.2042971      290629.49     -21137109       595.42555      595.42555      595.42555      2202.2872      2797.7128      2202.2872      2797.7128      2202.2872      2797.7128      2.1109716e+08  0.5            23818400       2.5415075      5197.5036      10395.012      6.941735     
  47632000   101716.42      1005.647      -21419799       2.2042971      301681.33     -21118118       595.42555      595.42555      595.42555      2202.2872      2797.7128      2202.2872      2797.7128      2202.2872      2797.7128      2.1109716e+08  0.5            23818500       2.5605027      5264.4704      10528.911      6.9228465    
  47632200   104040.91      1019.3346     -21413158       2.2042971      308575.57     -21104582       595.42555      595.42555      595.42555      2202.2872      2797.7128      2202.2872      2797.7128      2202.2872      2797.7128      2.1109716e+08  0.5            23818600       2.5794712      5271.9193      10543.879      6.9038841    
  47632400   100277.41      1032.531      -21411074       2.2042971      297413.36     -21113661       595.42555      595.42555      595.42555      2202.2872      2797.7128      2202.2872      2797.7128      2202.2872      2797.7128      2.1109716e+08  0.5            23818700       2.598647       5214.8848      10429.757      6.8854715    
  47632600   96716.016      1042.8836     -21421425       2.2042971      286850.61     -21134575       595.42555      595.42555      595.42555      2202.2872      2797.7128      2202.2872      2797.7128      2202.2872      2797.7128      2.1109716e+08  0.5            23818800       2.6175817      5281.3296      10562.65       6.8664153    
  47632800   102943.31      1061.4462     -21411832       2.2042971      305320.19     -21106512       595.42555      595.42555      595.42555      2202.2872      2797.7128      2202.2872      2797.7128      2202.2872      2797.7128      2.1109716e+08  0.5            23818900       2.6365751      5264.9851      10529.996      6.8475132    
  47633000   105516.04      1076.7211     -21412941       2.2042971      312950.66     -21099990       595.42555      595.42555      595.42555      2202.2872      2797.7128      2202.2872      2797.7128      2202.2872      2797.7128      2.1109716e+08  0.5            23819000       2.6558548      5186.793       10373.545      6.8293463    
  47633200   104270.53      1091.9557     -21402579       2.2042971      309256.59     -21093322       595.42555      595.42555      595.42555      2202.2872      2797.7128      2202.2872      2797.7128      2202.2872      2797.7128      2.1109716e+08  0.5            23819100       2.6748523      5263.8475      10527.72       6.8104449    
  47633400   103421.44      1102.3397     -21400880       2.2042971      306738.26     -21094142       595.42555      595.42555      595.42555      2202.2872      2797.7128      2202.2872      2797.7128      2202.2872      2797.7128      2.1109716e+08  0.5            23819200       2.6938279      5269.9289      10539.875      6.7914868    
  47633600   107215.88      1121.4538     -21407514       2.2042971      317992.21     -21089521       595.42555      595.42555      595.42555      2202.2872      2797.7128      2202.2872      2797.7128      2202.2872      2797.7128      2.1109716e+08  0.5            23819300       2.7130729      5196.1511      10392.299      6.7732012    
  47633800   109178.18      1136.3907     -21396439       2.2042971      323812.22     -21072627       595.42555      595.42555      595.42555      2202.2872      2797.7128      2202.2872      2797.7128      2202.2872      2797.7128      2.1109716e+08  0.5            23819400       2.7320665      5264.918       10529.818      6.7542808    
  47634000   106452.53      1152.5741     -21392705       2.2042971      315728.21     -21076976       595.42555      595.42555      595.42555      2202.2872      2797.7128      2202.2872      2797.7128      2202.2872      2797.7128      2.1109716e+08  0.5            23819500       2.7510698      5262.2796      10524.575      6.7353827    
  47634200   103141.69      1164.8264     -21388689       2.2042971      305908.57     -21082780       595.42555      595.42555      595.42555      2202.2872      2797.7128      2202.2872      2797.7128      2202.2872      2797.7128      2.1109716e+08  0.5            23819600       2.7704305      5165.0772      10330.092      6.7173505    
  47634400   107289.84      1185.5026     -21385172       2.2042971      318211.57     -21066961       595.42555      595.42555      595.42555      2202.2872      2797.7128      2202.2872      2797.7128      2202.2872      2797.7128      2.1109716e+08  0.5            23819700       2.7892594      5310.9977      10622.061      6.6980223    
  47634600   111496.91      1200.2708     -21376714       2.2042971      330689.36     -21046025       595.42555      595.42555      595.42555      2202.2872      2797.7128      2202.2872      2797.7128      2202.2872      2797.7128      2.1109716e+08  0.5            23819800       2.808119       5302.3194      10604.628      6.6787745    
  47634800   111083.05      1213.4361     -21371242       2.2042971      329461.88     -21041780       595.42555      595.42555      595.42555      2202.2872      2797.7128      2202.2872      2797.7128      2202.2872      2797.7128      2.1109716e+08  0.5            23819900       2.8272715      5221.2829      10442.564      6.6602214    
  47635000   109436.71      1226.7829     -21365991       2.2042971      324578.99     -21041412       595.42555      595.42555      595.42555      2202.2872      2797.7128      2202.2872      2797.7128      2202.2872      2797.7128      2.1109716e+08  0.5            23820000       2.8465996      5173.7956      10347.578      6.6420707    
  47635200   111901.92      1244.6923     -21354723       2.2042971      331890.58     -21022832       595.42555      595.42555      595.42555      2202.2872      2797.7128      2202.2872      2797.7128      2202.2872      2797.7128      2.1109716e+08  0.5            23820100       2.8665067      5023.3404      10046.703      6.625242     
  47635400   116057.73      1261.4712     -21357431       2.2042971      344216.33     -21013215       595.42555      595.42555      595.42555      2202.2872      2797.7128      2202.2872      2797.7128      2202.2872      2797.7128      2.1109716e+08  0.5            23820200       2.8857079      5208.0021      10416.01       6.606757     
  47635600   113683.68      1275.9376     -21344190       2.2042971      337175.12     -21007015       595.42555      595.42555      595.42555      2202.2872      2797.7128      2202.2872      2797.7128      2202.2872      2797.7128      2.1109716e+08  0.5            23820300       2.9046145      5289.1594      10578.296      6.5875945    
  47635800   109345.44      1289.8749     -21340997       2.2042971      324308.3      -21016689       595.42555      595.42555      595.42555      2202.2872      2797.7128      2202.2872      2797.7128      2202.2872      2797.7128      2.1109716e+08  0.5            23820400       2.9235639      5277.2222      10554.459      6.5685312    
  47636000   111344.94      1306.5053     -21348066       2.2042971      330238.62     -21017828       595.42555      595.42555      595.42555      2202.2872      2797.7128      2202.2872      2797.7128      2202.2872      2797.7128      2.1109716e+08  0.5            23820500       2.942749       5212.3512      10424.716      6.5499944    
  47636200   117558.12      1320.3572     -21349195       2.2042971      348666.33     -21000529       595.42555      595.42555      595.42555      2202.2872      2797.7128      2202.2872      2797.7128      2202.2872      2797.7128      2.1109716e+08  0.5            23820600       2.9617417      5265.2022      10530.396      6.5310246    
  47636400   117534.97      1328.3238     -21347759       2.2042971      348597.67     -20999161       595.42555      595.42555      595.42555      2202.2872      2797.7128      2202.2872      2797.7128      2202.2872      2797.7128      2.1109716e+08  0.5            23820700       2.9807668      5256.2095      10512.417      6.5121256    
  47636600   115215.94      1341.7659     -21334443       2.2042971      341719.65     -20992724       595.42555      595.42555      595.42555      2202.2872      2797.7128      2202.2872      2797.7128      2202.2872      2797.7128      2.1109716e+08  0.5            23820800       2.9999628      5209.4279      10418.857      6.4935947    
  47636800   116322.96      1352.7831     -21339797       2.2042971      345002.96     -20994794       595.42555      595.42555      595.42555      2202.2872      2797.7128      2202.2872      2797.7128      2202.2872      2797.7128      2.1109716e+08  0.5            23820900       3.0188977      5281.2596      10562.509      6.4744956    
  47637000   121980.35      1365.2881     -21335057       2.2042971      361782.24     -20973275       595.42555      595.42555      595.42555      2202.2872      2797.7128      2202.2872      2797.7128      2202.2872      2797.7128      2.1109716e+08  0.5            23821000       3.0379473      5249.421       10498.796      6.4556427    
  47637200   120851.38      1377.6928     -21332016       2.2042971      358433.83     -20973582       595.42555      595.42555      595.42555      2202.2872      2797.7128      2202.2872      2797.7128      2202.2872      2797.7128      2.1109716e+08  0.5            23821100       3.0572407      5183.1384      10366.336      6.4372998    
  47637400   116917.64      1383.083      -21331424       2.2042971      346766.73     -20984657       595.42555      595.42555      595.42555      2202.2872      2797.7128      2202.2872      2797.7128      2202.2872      2797.7128      2.1109716e+08  0.5            23821200       3.0762123      5271.0317      10542.033      6.4182744    
  47637600   118454.48      1388.3132     -21326861       2.2042971      351324.85     -20975536       595.42555      595.42555      595.42555      2202.2872      2797.7128      2202.2872      2797.7128      2202.2872      2797.7128      2.1109716e+08  0.5            23821300       3.0951906      5269.1659      10538.339      6.3992634    
  47637800   125701.4       1408.8459     -21320878       2.2042971      372818.55     -20948059       595.42555      595.42555      595.42555      2202.2872      2797.7128      2202.2872      2797.7128      2202.2872      2797.7128      2.1109716e+08  0.5            23821400       3.1144119      5202.569       10405.139      6.3807506    
  47638000   123248.23      1418.5137     -21320957       2.2042971      365542.65     -20955415       595.42555      595.42555      595.42555      2202.2872      2797.7128      2202.2872      2797.7128      2202.2872      2797.7128      2.1109716e+08  0.5            23821500       3.133449       5252.8948      10505.792      6.3618553    
  47638200   118787.25      1420.8039     -21322694       2.2042971      352311.8      -20970382       595.42555      595.42555      595.42555      2202.2872      2797.7128      2202.2872      2797.7128      2202.2872      2797.7128      2.1109716e+08  0.5            23821600       3.1525066      5247.2626      10494.523      6.3429994    
  47638400   122064.95      1434.5552     -21309284       2.2042971      362033.16     -20947250       595.42555      595.42555      595.42555      2202.2872      2797.7128      2202.2872      2797.7128      2202.2872      2797.7128      2.1109716e+08  0.5            23821700       3.1717243      5203.5379      10407.091      6.3244602    
  47638600   127631.63      1445.7119     -21311273       2.2042971      378543.41     -20932730       595.42555      595.42555      595.42555      2202.2872      2797.7128      2202.2872      2797.7128      2202.2872      2797.7128      2.1109716e+08  0.5            23821800       3.1907189      5264.6586      10529.3        6.3054725    
  47638800   125551.08      1457.947      -21296805       2.2042971      372372.7      -20924433       595.42555      595.42555      595.42555      2202.2872      2797.7128      2202.2872      2797.7128      2202.2872      2797.7128      2.1109716e+08  0.5            23821900       3.2097163      5263.8807      10527.771      6.2864897    
  47639000   123453.19      1463.1972     -21296531       2.2042971      366150.57     -20930381       595.42555      595.42555      595.42555      2202.2872      2797.7128      2202.2872      2797.7128      2202.2872      2797.7128      2.1109716e+08  0.5            23822000       3.2290058      5184.099       10368.16       6.2680747    
  47639200   127465.24      1472.3221     -21290968       2.2042971      378049.92     -20912918       595.42555      595.42555      595.42555      2202.2872      2797.7128      2202.2872      2797.7128      2202.2872      2797.7128      2.1109716e+08  0.5            23822100       3.2480349      5255.1841      10510.415      6.2491469    
  47639400   133300.52      1487.7889     -21269821       2.2042971      395356.81     -20874464       595.42555      595.42555      595.42555      2202.2872      2797.7128      2202.2872      2797.7128      2202.2872      2797.7128      2.1109716e+08  0.5            23822200       3.2672968      5191.5713      10383.139      6.230663     
  47639600   128913.04      1496.0995     -21265985       2.2042971      382343.95     -20883641       595.42555      595.42555      595.42555      2202.2872      2797.7128      2202.2872      2797.7128      2202.2872      2797.7128      2.1109716e+08  0.5            23822300       3.2863063      5260.5304      10521.042      6.2116927    
  47639800   126291.14      1501.6236     -21259276       2.2042971      374567.64     -20884709       595.42555      595.42555      595.42555      2202.2872      2797.7128      2202.2872      2797.7128      2202.2872      2797.7128      2.1109716e+08  0.5            23822400       3.3053286      5256.9961      10514.018      6.1927458    
  47640000   128085.93      1512.259      -21264742       2.2042971      379890.83     -20884851       595.42555      595.42555      595.42555      2202.2872      2797.7128      2202.2872      2797.7128      2202.2872      2797.7128      2.1109716e+08  0.5            23822500       3.3245982      5189.5294      10379.043      6.1742577    
  47640200   130697.98      1521.8803     -21268088       2.2042971      387637.93     -20880450       595.42555      595.42555      595.42555      2202.2872      2797.7128      2202.2872      2797.7128      2202.2872      2797.7128      2.1109716e+08  0.5            23822600       3.3436145      5258.6427      10517.309      6.155294     
  47640400   130906.4       1535.6474     -21277550       2.2042971      388256.07     -20889294       595.42555      595.42555      595.42555      2202.2872      2797.7128      2202.2872      2797.7128      2202.2872      2797.7128      2.1109716e+08  0.5            23822700       3.3628536      5197.7494      10395.494      6.1367365    
  47640600   130832.21      1539.564      -21274750       2.2042971      388036.04     -20886713       595.42555      595.42555      595.42555      2202.2872      2797.7128      2202.2872      2797.7128      2202.2872      2797.7128      2.1109716e+08  0.5            23822800       3.3818658      5259.7883      10519.582      6.1177608    
  47640800   132124.76      1546.568      -21264873       2.2042971      391869.61     -20873004       595.42555      595.42555      595.42555      2202.2872      2797.7128      2202.2872      2797.7128      2202.2872      2797.7128      2.1109716e+08  0.5            23822900       3.4010987      5199.4034      10398.795      6.0991807    
  47641000   135544.16      1563.5358     -21267895       2.2042971      402011.24     -20865884       595.42555      595.42555      595.42555      2202.2872      2797.7128      2202.2872      2797.7128      2202.2872      2797.7128      2.1109716e+08  0.5            23823000       3.4202656      5217.3188      10434.627      6.080476     
  47641200   143319.94      1577.2707     -21261126       2.2042971      425073.47     -20836052       595.42555      595.42555      595.42555      2202.2872      2797.7128      2202.2872      2797.7128      2202.2872      2797.7128      2.1109716e+08  0.5            23823100       3.4393384      5243.1143      10486.257      6.0615997    
  47641400   138336.15      1586.4777     -21264932       2.2042971      410292.02     -20854640       595.42555      595.42555      595.42555      2202.2872      2797.7128      2202.2872      2797.7128      2202.2872      2797.7128      2.1109716e+08  0.5            23823200       3.4585848      5195.7474      10391.46       6.0430255    
  47641600   131278.55      1587.7051     -21278247       2.2042971      389359.84     -20888887       595.42555      595.42555      595.42555      2202.2872      2797.7128      2202.2872      2797.7128      2202.2872      2797.7128      2.1109716e+08  0.5            23823300       3.4775052      5285.3089      10570.638      6.0238786    
  47641800   134151.73      1602.8274     -21277098       2.2042971      397881.42     -20879217       595.42555      595.42555      595.42555      2202.2872      2797.7128      2202.2872      2797.7128      2202.2872      2797.7128      2.1109716e+08  0.5            23823400       3.4966845      5213.9408      10427.868      6.0051791    
  47642000   138916.11      1617.6922     -21274565       2.2042971      412012.12     -20862553       595.42555      595.42555      595.42555      2202.2872      2797.7128      2202.2872      2797.7128      2202.2872      2797.7128      2.1109716e+08  0.5            23823500       3.5157146      5254.8271      10509.634      5.9862204    
  47642200   139149.69      1628.329      -21284498       2.2042971      412704.9      -20871793       595.42555      595.42555      595.42555      2202.2872      2797.7128      2202.2872      2797.7128      2202.2872      2797.7128      2.1109716e+08  0.5            23823600       3.5347613      5250.2845      10500.607      5.9672884    
  47642400   136202.94      1632.3517     -21280191       2.2042971      403965.13     -20876226       595.42555      595.42555      595.42555      2202.2872      2797.7128      2202.2872      2797.7128      2202.2872      2797.7128      2.1109716e+08  0.5            23823700       3.5539856      5201.7347      10403.458      5.9486531    
  47642600   133345.65      1639.4034     -21287136       2.2042971      395490.65     -20891646       595.42555      595.42555      595.42555      2202.2872      2797.7128      2202.2872      2797.7128      2202.2872      2797.7128      2.1109716e+08  0.5            23823800       3.5729979      5259.7642      10519.55       5.9296594    
  47642800   140103.92      1651.0332     -21287220       2.2042971      415535.05     -20871685       595.42555      595.42555      595.42555      2202.2872      2797.7128      2202.2872      2797.7128      2202.2872      2797.7128      2.1109716e+08  0.5            23823900       3.591967       5271.7306      10543.445      5.9105945    
  47643000   143833.65      1660.3949     -21286087       2.2042971      426597.08     -20859490       595.42555      595.42555      595.42555      2202.2872      2797.7128      2202.2872      2797.7128      2202.2872      2797.7128      2.1109716e+08  0.5            23824000       3.6112757      5179.0013      10357.991      5.8920848    
  47643200   141178.02      1665.0094     -21282982       2.2042971      418720.75     -20864261       595.42555      595.42555      595.42555      2202.2872      2797.7128      2202.2872      2797.7128      2202.2872      2797.7128      2.1109716e+08  0.5            23824100       3.6303798      5234.4826      10468.986      5.8732355    
  47643400   137461.54      1669.6157     -21295468       2.2042971      407698.02     -20887770       595.42555      595.42555      595.42555      2202.2872      2797.7128      2202.2872      2797.7128      2202.2872      2797.7128      2.1109716e+08  0.5            23824200       3.6493863      5261.3466      10522.683      5.8542272    
  47643600   142626.76      1677.5184     -21295182       2.2042971      423017.56     -20872164       595.42555      595.42555      595.42555      2202.2872      2797.7128      2202.2872      2797.7128      2202.2872      2797.7128      2.1109716e+08  0.5            23824300       3.6686859      5181.4532      10362.901      5.835685     
  47643800   148119.89      1692.7892     -21299995       2.2042971      439309.68     -20860685       595.42555      595.42555      595.42555      2202.2872      2797.7128      2202.2872      2797.7128      2202.2872      2797.7128      2.1109716e+08  0.5            23824400       3.6877346      5249.7079      10499.434      5.8167392    
  47644000   144265.45      1702.1883     -21287082       2.2042971      427877.77     -20859204       595.42555      595.42555      595.42555      2202.2872      2797.7128      2202.2872      2797.7128      2202.2872      2797.7128      2.1109716e+08  0.5            23824500       3.7068512      5231.0634      10462.094      5.7978987    
  47644200   140338.77      1708.0137     -21272672       2.2042971      416231.59     -20856440       595.42555      595.42555      595.42555      2202.2872      2797.7128      2202.2872      2797.7128      2202.2872      2797.7128      2.1109716e+08  0.5            23824600       3.726161       5178.7114      10357.414      5.779355     
  47644400   147518.2       1723.3494     -21269319       2.2042971      437525.11     -20831794       595.42555      595.42555      595.42555      2202.2872      2797.7128      2202.2872      2797.7128      2202.2872      2797.7128      2.1109716e+08  0.5            23824700       3.7451764      5258.8907      10517.778      5.7603507    
  47644600   151651.99      1734.6531     -21261421       2.2042971      449785.53     -20811636       595.42555      595.42555      595.42555      2202.2872      2797.7128      2202.2872      2797.7128      2202.2872      2797.7128      2.1109716e+08  0.5            23824800       3.7643897      5204.7318      10409.522      5.7416479    
  47644800   146173.48      1740.6        -21260009       2.2042971      433536.79     -20826472       595.42555      595.42555      595.42555      2202.2872      2797.7128      2202.2872      2797.7128      2202.2872      2797.7128      2.1109716e+08  0.5            23824900       3.7834346      5250.744       10501.441      5.7226856    
  47645000   143579.71      1747.9664     -21254799       2.2042971      425843.93     -20828955       595.42555      595.42555      595.42555      2202.2872      2797.7128      2202.2872      2797.7128      2202.2872      2797.7128      2.1109716e+08  0.5            23825000       3.8024926      5247.1417      10494.297      5.7037421    
  47645200   151119.33      1760.593      -21260283       2.2042971      448205.72     -20812077       595.42555      595.42555      595.42555      2202.2872      2797.7128      2202.2872      2797.7128      2202.2872      2797.7128      2.1109716e+08  0.5            23825100       3.8218033      5178.4842      10356.978      5.6851731    
  47645400   153669.37      1769.5816     -21257336       2.2042971      455768.92     -20801567       595.42555      595.42555      595.42555      2202.2872      2797.7128      2202.2872      2797.7128      2202.2872      2797.7128      2.1109716e+08  0.5            23825200       3.840819       5258.7948      10517.583      5.6661618    
  47645600   149528.26      1783.3801     -21260445       2.2042971      443486.75     -20816958       595.42555      595.42555      595.42555      2202.2872      2797.7128      2202.2872      2797.7128      2202.2872      2797.7128      2.1109716e+08  0.5            23825300       3.8599047      5239.5312      10479.085      5.6472527    
  47645800   147877.8       1791.8432     -21243453       2.2042971      438591.64     -20804861       595.42555      595.42555      595.42555      2202.2872      2797.7128      2202.2872      2797.7128      2202.2872      2797.7128      2.1109716e+08  0.5            23825400       3.8791245      5202.971       10405.92       5.6285366    
  47646000   154114.65      1806.8973     -21234153       2.2042971      457089.58     -20777064       595.42555      595.42555      595.42555      2202.2872      2797.7128      2202.2872      2797.7128      2202.2872      2797.7128      2.1109716e+08  0.5            23825500       3.8981734      5249.6616      10499.31       5.6095697    
  47646200   157940.91      1819.8572     -21223599       2.2042971      468437.9      -20755161       595.42555      595.42555      595.42555      2202.2872      2797.7128      2202.2872      2797.7128      2202.2872      2797.7128      2.1109716e+08  0.5            23825600       3.917226       5248.6181      10497.251      5.590607     
  47646400   153464.15      1830.2194     -21228529       2.2042971      455160.25     -20773369       595.42555      595.42555      595.42555      2202.2872      2797.7128      2202.2872      2797.7128      2202.2872      2797.7128      2.1109716e+08  0.5            23825700       3.9365169      5183.8005      10367.578      5.571981     
  47646600   151631.11      1839.8492     -21209490       2.2042971      449723.61     -20759767       595.42555      595.42555      595.42555      2202.2872      2797.7128      2202.2872      2797.7128      2202.2872      2797.7128      2.1109716e+08  0.5            23825800       3.9555324      5258.8523      10517.742      5.5529618    
  47646800   153835.87      1848.127      -21205372       2.2042971      456262.73     -20749110       595.42555      595.42555      595.42555      2202.2872      2797.7128      2202.2872      2797.7128      2202.2872      2797.7128      2.1109716e+08  0.5            23825900       3.9748116      5186.934       10373.814      5.5343101    
  47647000   158009.02      1861.4125     -21199871       2.2042971      468639.89     -20731231       595.42555      595.42555      595.42555      2202.2872      2797.7128      2202.2872      2797.7128      2202.2872      2797.7128      2.1109716e+08  0.5            23826000       3.99385        5252.5155      10505.07       5.5153197    
  47647200   160226.83      1872.4528     -21186217       2.2042971      475217.7      -20710999       595.42555      595.42555      595.42555      2202.2872      2797.7128      2202.2872      2797.7128      2202.2872      2797.7128      2.1109716e+08  0.5            23826100       4.0129822      5226.8443      10453.681      5.496457     
  47647400   160098.76      1879.1593     -21186138       2.2042971      474837.86     -20711300       595.42555      595.42555      595.42555      2202.2872      2797.7128      2202.2872      2797.7128      2202.2872      2797.7128      2.1109716e+08  0.5            23826200       4.0323092      5174.0876      10348.153      5.4778569    
  47647600   154604.9       1882.9884     -21183837       2.2042971      458543.6      -20725293       595.42555      595.42555      595.42555      2202.2872      2797.7128      2202.2872      2797.7128      2202.2872      2797.7128      2.1109716e+08  0.5            23826300       4.0513739      5245.296       10490.611      5.4588962    
  47647800   153905.93      1887.4502     -21180014       2.2042971      456470.53     -20723544       595.42555      595.42555      595.42555      2202.2872      2797.7128      2202.2872      2797.7128      2202.2872      2797.7128      2.1109716e+08  0.5            23826400       4.0704312      5247.3498      10494.722      5.4399247    
  47648000   161623.58      1901.1006     -21186199       2.2042971      479360.35     -20706839       595.42555      595.42555      595.42555      2202.2872      2797.7128      2202.2872      2797.7128      2202.2872      2797.7128      2.1109716e+08  0.5            23826500       4.0897539      5175.2385      10350.456      5.4213045    
  47648200   163171.98      1910.2209     -21178478       2.2042971      483952.76     -20694525       595.42555      595.42555      595.42555      2202.2872      2797.7128      2202.2872      2797.7128      2202.2872      2797.7128      2.1109716e+08  0.5            23826600       4.1088759      5229.5747      10459.149      5.4024137    
  47648400   158835.42      1907.99       -21184272       2.2042971      471090.93     -20713181       595.42555      595.42555      595.42555      2202.2872      2797.7128      2202.2872      2797.7128      2202.2872      2797.7128      2.1109716e+08  0.5            23826700       4.1278981      5257.0329      10514.076      5.3833904    
  47648600   155202.45      1915.5808     -21193152       2.2042971      460315.88     -20732836       595.42555      595.42555      595.42555      2202.2872      2797.7128      2202.2872      2797.7128      2202.2872      2797.7128      2.1109716e+08  0.5            23826800       4.1472353      5171.3883      10342.79       5.3647749    
  47648800   162082.85      1921.9388     -21193197       2.2042971      480722.49     -20712474       595.42555      595.42555      595.42555      2202.2872      2797.7128      2202.2872      2797.7128      2202.2872      2797.7128      2.1109716e+08  0.5            23826900       4.1662607      5256.1269      10512.253      5.3457526    
  47649000   168001.45      1937.0672     -21189036       2.2042971      498276.51     -20690759       595.42555      595.42555      595.42555      2202.2872      2797.7128      2202.2872      2797.7128      2202.2872      2797.7128      2.1109716e+08  0.5            23827000       4.1853999      5224.8826      10449.742      5.3268752    
  47649200   163680.69      1937.7835     -21180258       2.2042971      485461.55     -20694796       595.42555      595.42555      595.42555      2202.2872      2797.7128      2202.2872      2797.7128      2202.2872      2797.7128      2.1109716e+08  0.5            23827100       4.2047961      5155.6296      10311.256      5.3083199    
  47649400   158307.84      1939.4759     -21164499       2.2042971      469526.16     -20694973       595.42555      595.42555      595.42555      2202.2872      2797.7128      2202.2872      2797.7128      2202.2872      2797.7128      2.1109716e+08  0.5            23827200       4.2238291      5254.054       10508.113      5.289302     
  47649600   164821.65      1957.5042     -21163548       2.2042971      488845.53     -20674703       595.42555      595.42555      595.42555      2202.2872      2797.7128      2202.2872      2797.7128      2202.2872      2797.7128      2.1109716e+08  0.5            23827300       4.2431328      5180.3393      10360.674      5.2706205    
  47649800   170894.19      1965.3239     -21143441       2.2042971      506856.12     -20636585       595.42555      595.42555      595.42555      2202.2872      2797.7128      2202.2872      2797.7128      2202.2872      2797.7128      2.1109716e+08  0.5            23827400       4.262096       5273.3602      10546.728      5.2515138    
[...]
  48294400   304.74767     -2.0129782     -21687569       2.2086071      903.85293     -21686665       595.03798      595.03798      595.03798      2202.481       2797.519       2202.481       2797.519       2202.481       2797.519       2.1068521e+08  0.5            24149700       31.53696       4605.9226      9211.8337      1.1551202    
  48294600   297.81502     -8.5971226     -21687575       2.2084472      883.29136     -21686691       595.05234      595.05234      595.05234      2202.4738      2797.5262      2202.4738      2797.5262      2202.4738      2797.5262      2.1070047e+08  0.5            24149800       31.558718      4595.9209      9191.8566      1.1333242    
  48294800   310.98483     -4.1108451     -21687582       2.2085526      922.35178     -21686660       595.04287      595.04287      595.04287      2202.4786      2797.5214      2202.4786      2797.5214      2202.4786      2797.5214      2.1069041e+08  0.5            24149900       31.58045       4601.6533      9203.3066      1.1115273    
  48295000   291.44645      2.6662658     -21687588       2.2087164      864.40279     -21686723       595.02817      595.02817      595.02817      2202.4859      2797.5141      2202.4859      2797.5141      2202.4859      2797.5141      2.1067479e+08  0.5            24150000       31.602211      4595.3549      9190.6739      1.0897315    
  48295200   308.01333      8.3093185     -21687591       2.2088537      913.53858     -21686678       595.01584      595.01584      595.01584      2202.4921      2797.5079      2202.4921      2797.5079      2202.4921      2797.5079      2.1066169e+08  0.5            24150100       31.623951      4599.7028      9199.4441      1.067935     
  48295400   283.31134      7.6953296     -21687596       2.2088411      840.27479     -21686756       595.01697      595.01697      595.01697      2202.4915      2797.5085      2202.4915      2797.5085      2202.4915      2797.5085      2.106629e+08   0.5            24150200       31.645674      4603.3636      9206.717       1.0461381    
  48295600   306.15402      0.50719056    -21687602       2.2086666      908.02405     -21686694       595.03263      595.03263      595.03263      2202.4837      2797.5163      2202.4837      2797.5163      2202.4837      2797.5163      2.1067954e+08  0.5            24150300       31.667395      4603.9782      9207.9709      1.0243411    
  48295800   293.12619     -4.6314156     -21687608       2.2085371      869.38471     -21686739       595.04426      595.04426      595.04426      2202.4779      2797.5221      2202.4779      2797.5221      2202.4779      2797.5221      2.1069189e+08  0.5            24150400       31.689201      4585.9096      9171.7943      1.002547     
  48296000   315.96454     -5.5148732     -21687614       2.2085055      937.12112     -21686677       595.04711      595.04711      595.04711      2202.4764      2797.5236      2202.4764      2797.5236      2202.4764      2797.5236      2.1069491e+08  0.5            24150500       31.71101       4585.2501      9170.5007      0.98075295   
  48296200   298.5041      -5.0661319     -21687621       2.2085046      885.3351      -21686736       595.04718      595.04718      595.04718      2202.4764      2797.5236      2202.4764      2797.5236      2202.4764      2797.5236      2.1069499e+08  0.5            24150600       31.732774      4594.5929      9189.1984      0.95895754   
  48296400   301.42213     -4.5501044     -21687628       2.2085074      893.98971     -21686734       595.04693      595.04693      595.04693      2202.4765      2797.5235      2202.4765      2797.5235      2202.4765      2797.5235      2.1069473e+08  0.5            24150700       31.75448       4607.1665      9214.3474      0.93716042   
  48296600   305.83099     -3.1268679     -21687634       2.2085344      907.06596     -21686727       595.04451      595.04451      595.04451      2202.4777      2797.5223      2202.4777      2797.5223      2202.4777      2797.5223      2.1069215e+08  0.5            24150800       31.776201      4603.7678      9207.5211      0.91536388   
  48296800   296.57912     -3.3655795     -21687640       2.2085235      879.62578     -21686760       595.04549      595.04549      595.04549      2202.4773      2797.5227      2202.4773      2797.5227      2202.4773      2797.5227      2.1069319e+08  0.5            24150900       31.797954      4596.9901      9193.9697      0.89356836   
  48297000   304.04295     -0.080742917   -21689908       2.2086083      901.76282     -21689006       595.03787      595.03787      595.03787      2202.4811      2797.5189      2202.4811      2797.5189      2202.4811      2797.5189      2.106851e+08   0.5            24151000       31.819712      4596.1446      9192.2892      0.87177299   
  48297200   288.69459      0.28132598    -21689911       2.2086164      856.24101     -21689055       595.03714      595.03714      595.03714      2202.4814      2797.5186      2202.4814      2797.5186      2202.4814      2797.5186      2.1068432e+08  0.5            24151100       31.84145       4600.118       9200.238       0.84997718   
  48297400   305.97911      1.7050251     -21689914       2.2086519      907.50526     -21689006       595.03395      595.03395      595.03395      2202.483       2797.517       2202.483       2797.517       2202.483       2797.517       2.1068094e+08  0.5            24151200       31.863142      4610.1617      9220.3226      0.82818021   
  48297600   286.85476      2.8575102     -21689915       2.2086811      850.78426     -21689065       595.03134      595.03134      595.03134      2202.4843      2797.5157      2202.4843      2797.5157      2202.4843      2797.5157      2.1067816e+08  0.5            24151300       31.884911      4593.6138      9187.2174      0.80638537   
  48297800   312.43345      0.58456951    -21689917       2.2086247      926.64825     -21688991       595.0364       595.0364       595.0364       2202.4818      2797.5182      2202.4818      2797.5182      2202.4818      2797.5182      2.1068354e+08  0.5            24151400       31.906619      4606.5784      9213.1806      0.78458905   
  48298000   293.94196      0.34808793    -21689920       2.2086179      871.80421     -21689048       595.03701      595.03701      595.03701      2202.4815      2797.5185      2202.4815      2797.5185      2202.4815      2797.5185      2.1068418e+08  0.5            24151500       31.928351      4601.5254      9203.0482      0.76279343   
  48298200   311.40448      2.0705855     -21689923       2.2086624      923.59642     -21688999       595.03301      595.03301      595.03301      2202.4835      2797.5165      2202.4835      2797.5165      2202.4835      2797.5165      2.1067994e+08  0.5            24151600       31.950078      4602.6523      9205.3114      0.74099776   
  48298400   293.5288      -0.2913157     -21689926       2.2086109      870.57881     -21689056       595.03764      595.03764      595.03764      2202.4812      2797.5188      2202.4812      2797.5188      2202.4812      2797.5188      2.1068485e+08  0.5            24151700       31.971822      4598.8317      9197.6469      0.7192026    
  48298600   305.30279      2.3370343     -21689929       2.2086771      905.49937     -21689024       595.03169      595.03169      595.03169      2202.4842      2797.5158      2202.4842      2797.5158      2202.4842      2797.5158      2.1067853e+08  0.5            24151800       31.993556      4601.0386      9202.0951      0.69740728   
  48298800   292.76239     -0.12056496    -21689933       2.2086185      868.30573     -21689064       595.03696      595.03696      595.03696      2202.4815      2797.5185      2202.4815      2797.5185      2202.4815      2797.5185      2.1068413e+08  0.5            24151900       32.015262      4607.0548      9214.1105      0.67561144   
  48299000   299.00074      1.4092502     -21689938       2.2086611      886.8081      -21689051       595.03313      595.03313      595.03313      2202.4834      2797.5166      2202.4834      2797.5166      2202.4834      2797.5166      2.1068007e+08  0.5            24152000       32.037044      4590.9686      9181.9106      0.65381728   
  48299200   300.87218      2.0777707     -21689944       2.208685       892.35861     -21689052       595.03099      595.03099      595.03099      2202.4845      2797.5155      2202.4845      2797.5155      2202.4845      2797.5155      2.1067779e+08  0.5            24152100       32.058763      4604.4083      9208.8493      0.63202188   
  48299400   288.69966     -0.047289921   -21689951       2.2086377      856.25605     -21689095       595.03523      595.03523      595.03523      2202.4824      2797.5176      2202.4824      2797.5176      2202.4824      2797.5176      2.106823e+08   0.5            24152200       32.080499      4600.5979      9201.1675      0.61022692   
  48299600   312.25537     -0.69889728    -21689957       2.2086207      926.12007     -21689030       595.03675      595.03675      595.03675      2202.4816      2797.5184      2202.4816      2797.5184      2202.4816      2797.5184      2.1068391e+08  0.5            24152300       32.102212      4605.4529      9210.9135      0.58843163   
  48299800   293.81841      0.52136586    -21689962       2.2086469      871.43779     -21689090       595.0344       595.0344       595.0344       2202.4828      2797.5172      2202.4828      2797.5172      2202.4828      2797.5172      2.1068142e+08  0.5            24152400       32.123843      4622.9413      9245.8682      0.566635     
  48300000   302.43744      2.4380278     -21689968       2.2086846      897.00101     -21689071       595.03102      595.03102      595.03102      2202.4845      2797.5155      2202.4845      2797.5155      2202.4845      2797.5155      2.1067782e+08  0.5            24152500       32.145583      4599.8171      9199.6295      0.54484044   
  48300200   288.75722      3.5867106     -21689974       2.2087015      856.42678     -21689118       595.0295       595.0295       595.0295       2202.4853      2797.5147      2202.4853      2797.5147      2202.4853      2797.5147      2.1067621e+08  0.5            24152600       32.167327      4599.0011      9198.0255      0.52304601   
  48300400   299.42384      3.6704862     -21689981       2.2086976      888.06296     -21689092       595.02985      595.02985      595.02985      2202.4851      2797.5149      2202.4851      2797.5149      2202.4851      2797.5149      2.1067658e+08  0.5            24152700       32.189062      4601.0185      9202.0345      0.5012515    
  48300600   300.299        3.1421415     -21689987       2.2086853      890.6586      -21689097       595.03096      595.03096      595.03096      2202.4845      2797.5155      2202.4845      2797.5155      2202.4845      2797.5155      2.1067776e+08  0.5            24152800       32.21077       4606.4695      9212.9433      0.4794567    
  48300800   293.74966      2.4427741     -21689993       2.20867        871.23389     -21689122       595.03233      595.03233      595.03233      2202.4838      2797.5162      2202.4838      2797.5162      2202.4838      2797.5162      2.1067922e+08  0.5            24152900       32.232786      4542.291       9084.5598      0.45766636   
  48301000   308.66321      1.3497222     -21689999       2.2086409      915.46607     -21689083       595.03494      595.03494      595.03494      2202.4825      2797.5175      2202.4825      2797.5175      2202.4825      2797.5175      2.1068199e+08  0.5            24153000       32.254588      4586.6678      9173.3239      0.43587284   
  48301200   296.97003      0.95053385    -21690005       2.2086259      880.7852      -21689124       595.03629      595.03629      595.03629      2202.4819      2797.5181      2202.4819      2797.5181      2202.4819      2797.5181      2.1068342e+08  0.5            24153100       32.276346      4596.0267      9192.0758      0.41407874   
  48301400   305.53011      2.3570635     -21690010       2.2086562      906.17358     -21689104       595.03357      595.03357      595.03357      2202.4832      2797.5168      2202.4832      2797.5168      2202.4832      2797.5168      2.1068053e+08  0.5            24153200       32.29812       4592.621       9185.2335      0.39228489   
  48301600   288.79421      4.497766      -21690015       2.2087065      856.53647     -21689158       595.02905      595.02905      595.02905      2202.4855      2797.5145      2202.4855      2797.5145      2202.4855      2797.5145      2.1067573e+08  0.5            24153300       32.319866      4598.5731      9197.1686      0.37049073   
  48301800   309.09574      6.0346533     -21690019       2.2087348      916.74892     -21689102       595.02651      595.02651      595.02651      2202.4867      2797.5133      2202.4867      2797.5133      2202.4867      2797.5133      2.1067303e+08  0.5            24153400       32.341551      4611.3225      9222.6356      0.348696     
  48302000   296.57802      6.8620018     -21690023       2.2087461      879.62254     -21689144       595.02549      595.02549      595.02549      2202.4873      2797.5127      2202.4873      2797.5127      2202.4873      2797.5127      2.1067195e+08  0.5            24153500       32.363265      4605.4941      9210.9843      0.32690169   
  48302200   302.08149      7.2481072     -21690028       2.2087556      895.94532     -21689132       595.02464      595.02464      595.02464      2202.4877      2797.5123      2202.4877      2797.5123      2202.4877      2797.5123      2.1067105e+08  0.5            24153600       32.385028      4594.8245      9189.6515      0.30510796   
  48302400   287.16385      6.9994545     -21690032       2.2087542      851.70099     -21689181       595.02477      595.02477      595.02477      2202.4876      2797.5124      2202.4876      2797.5124      2202.4876      2797.5124      2.1067119e+08  0.5            24153700       32.406719      4610.2967      9220.6006      0.28331364   
  48302600   307.77685      5.9756652     -21690037       2.2087327      912.83719     -21689124       595.0267       595.0267       595.0267       2202.4866      2797.5134      2202.4866      2797.5134      2202.4866      2797.5134      2.1067324e+08  0.5            24153800       32.428435      4604.8943      9209.8026      0.26151965   
  48302800   296.85081      3.3705439     -21690042       2.2086718      880.4316      -21689161       595.03217      595.03217      595.03217      2202.4839      2797.5161      2202.4839      2797.5161      2202.4839      2797.5161      2.1067905e+08  0.5            24153900       32.450119      4611.6636      9223.302       0.23972554   
  48303000   302.72236     -2.7865542     -21690047       2.2085219      897.84605     -21689149       595.04563      595.04563      595.04563      2202.4772      2797.5228      2202.4772      2797.5228      2202.4772      2797.5228      2.1069335e+08  0.5            24154000       32.471859      4599.7331      9199.4759      0.21793196   
  48303200   316.62938     -6.9216021     -21690052       2.2084198      939.09299     -21689112       595.0548       595.0548       595.0548       2202.4726      2797.5274      2202.4726      2797.5274      2202.4726      2797.5274      2.1070308e+08  0.5            24154100       32.493679      4583.0048      9166.0146      0.19613892   
  48303400   294.6369       6.9006786     -21690057       2.2087413      873.86536     -21689183       595.02592      595.02592      595.02592      2202.487       2797.513       2202.487       2797.513       2202.487       2797.513       2.1067241e+08  0.5            24154200       32.51538       4608.0386      9216.0781      0.17434522   
  48303600   308.68462      1.1865865     -21690060       2.2085991      915.52957     -21689145       595.0387       595.0387       595.0387       2202.4807      2797.5193      2202.4807      2797.5193      2202.4807      2797.5193      2.1068598e+08  0.5            24154300       32.537089      4606.401       9212.7833      0.15255167   
  48303800   287.76121     -5.7144701     -21690062       2.2084284      853.47269     -21689208       595.05403      595.05403      595.05403      2202.473       2797.527       2202.473       2797.527       2202.473       2797.527       2.1070226e+08  0.5            24154400       32.558771      4612.1066      9224.2345      0.13075813   
  48304000   303.25308      11.338811     -21690062       2.2088248      899.42014     -21689163       595.01843      595.01843      595.01843      2202.4908      2797.5092      2202.4908      2797.5092      2202.4908      2797.5092      2.1066445e+08  0.5            24154500       32.580483      4605.7794      9211.529       0.10896484   
  48304200   298.98473     -8.9748307     -21690066       2.2083539      886.7606      -21689179       595.06072      595.06072      595.06072      2202.4696      2797.5304      2202.4696      2797.5304      2202.4696      2797.5304      2.1070937e+08  0.5            24154600       32.602188      4607.2839      9214.5826      0.087171632  
  48304400   299.94708      9.0218649     -21690069       2.2087747      889.61484     -21689179       595.02293      595.02293      595.02293      2202.4885      2797.5115      2202.4885      2797.5115      2202.4885      2797.5115      2.1066923e+08  0.5            24154700       32.623851      4616.1074      9232.2285      0.065378464  
  48304600   303.15685     -6.1648352     -21690073       2.2084174      899.13471     -21689174       595.05502      595.05502      595.05502      2202.4725      2797.5275      2202.4725      2797.5275      2202.4725      2797.5275      2.1070331e+08  0.5            24154800       32.645546      4609.4093      9218.8138      0.043585512  
  48304800   295.53861      10.811747     -21690076       2.2088048      876.53972     -21689200       595.02023      595.02023      595.02023      2202.4899      2797.5101      2202.4899      2797.5101      2202.4899      2797.5101      2.1066636e+08  0.5            24154900       32.667253      4606.8587      9213.7255      0.021792699  
  48305000   308.4788      -9.3432205     -21690081       2.2083342      914.91911     -21689166       595.06249      595.06249      595.06249      2202.4688      2797.5312      2202.4688      2797.5312      2202.4688      2797.5312      2.1071125e+08  0.5            24155000       32.68899       4600.3497      9200.682       0            
Loop time of 32.689 on 4 procs for 300000 steps with 996 atoms

Performance: 396.463 ns/day, 0.061 hours/ns, 9177.394 timesteps/s
91.3% CPU use with 4 MPI tasks x no OpenMP threads

MPI task timing breakdown:
Section |  min time  |  avg time  |  max time  |%varavg| %total
---------------------------------------------------------------
Pair    | 13.099     | 14.858     | 15.833     |  28.1 | 45.45
Neigh   | 0.0094674  | 0.011329   | 0.012288   |   1.0 |  0.03
Comm    | 9.9033     | 10.844     | 12.56      |  31.8 | 33.17
Output  | 0.043924   | 0.049948   | 0.063568   |   3.6 |  0.15
Modify  | 5.079      | 5.3074     | 5.4352     |   6.2 | 16.24
Other   |            | 1.618      |            |       |  4.95

Nlocal:            249 ave         271 max         218 min
Histogram: 1 0 0 0 0 1 0 1 0 1
Nghost:            868 ave         882 max         848 min
Histogram: 1 0 0 0 0 0 1 1 0 1
Neighs:         1704.5 ave        1849 max        1476 min
Histogram: 1 0 0 0 0 0 1 1 0 1

Total # of neighbors = 6818
Ave neighs/atom = 6.8453815
Neighbor list builds = 56
Dangerous builds = 0

# run_style
run_style verlet

# write restart
write_restart ${write_res}
write_restart ./pgnpmf/73/equpmf69.res
System init for write_restart ...
Generated 0 of 1 mixed pair_coeff terms from geometric mixing rule

Total wall time: 0:01:11
