LAMMPS (23 Jun 2022 - Update 1)
# Read restart
read_restart ${read_res}
read_restart ./pgnpmf/73/equpmf36.res
Reading restart file ...
  restart file = 23 Jun 2022, LAMMPS = 23 Jun 2022
  restoring atom style atomic from restart
  orthogonal box = (2202.2048 2202.2048 2202.2048) to (2797.7952 2797.7952 2797.7952)
  1 by 2 by 2 MPI processor grid
  restoring pair style table from restart
  996 atoms
  read_restart CPU = 0.004 seconds

# Settings

pair_style table spline 9941

pair_coeff 1 1 ./pgnpmf/N20.txt DE_GNP 75.6
pair_coeff 2 2 ./pgnpmf/N100.txt DE_GNP 115.92
WARNING: 3 of 9941 force values in table DE_GNP are inconsistent with -dE/dr.
WARNING:  Should only be flagged at inflection points (../pair_table.cpp:463)
pair_coeff 1 2 ./pgnpmf/mixed_potential.txt DE_GNP 95.66
WARNING: 1562 of 9941 force values in table DE_GNP are inconsistent with -dE/dr.
WARNING:  Should only be flagged at inflection points (../pair_table.cpp:463)

#Neigh_list Calc Frequency

neigh_modify delay 0 every 1 check yes

# Saving Frequency (50 frames)

variable ts_save equal ${steps_equ}
variable ts_save equal 5000

# Dump
#dump 1 all custom ${ts_save} ./pgnpmf/${folder}/equilibration/trajectory/trajectory_${usic}_${trial}.equ.custom type x y z ix iy iz
#dump_modify 1 first no sort id
#dump 2 all cfg 50000 ./equilibration/trajectory/ovito/dumpgen.tens_*.cfg mass type xs ys zs fx fy fz

# thermo_style
thermo_style custom step temp press pe density ke etotal lx ly lz xlo xhi ylo yhi zlo zhi vol dt time cpu tpcpu spcpu cpuremain

# run info
timestep ${ts}
timestep 0.5
thermo 200

# fix

fix 1 all momentum 1000 linear 1 1 1 angular
variable T equal ${temp}
variable T equal 300
fix 2 all nvt temp ${T} 370000 100.0
fix 2 all nvt temp 300 370000 100.0

run 100000
Generated 0 of 1 mixed pair_coeff terms from geometric mixing rule
Unused restart file global fix info:
  fix style: npt, fix ID: 5
Neighbor list info ...
  update every 1 steps, delay 0 steps, check yes
  max neighbors/atom: 2000, page size: 100000
  master list distance cutoff = 117.92
  ghost atom cutoff = 117.92
  binsize = 58.96, bins = 11 11 11
  1 neighbor lists, perpetual/occasional/extra = 1 0 0
  (1) pair table, perpetual
      attributes: half, newton on
      pair build: half/bin/atomonly/newton
      stencil: half/bin/3d
      bin: standard
Per MPI rank memory allocation (min/avg/max) = 3.086 | 3.086 | 3.087 Mbytes
   Step          Temp          Press          PotEng        Density         KinEng         TotEng           Lx             Ly             Lz            Xlo            Xhi            Ylo            Yhi            Zlo            Zhi           Volume           Dt            Time           CPU           T/CPU          S/CPU         CPULeft    
  25205000   290.71375      13.101395     -21584882       2.2024663      862.22964     -21584020       595.59048      595.59048      595.59048      2202.2048      2797.7952      2202.2048      2797.7952      2202.2048      2797.7952      2.1127264e+08  0.5            12605000       0              0              0              0            
  25205200   348.31128      13.189466     -21584889       2.2024663      1033.0585     -21583856       595.59048      595.59048      595.59048      2202.2048      2797.7952      2202.2048      2797.7952      2202.2048      2797.7952      2.1127264e+08  0.5            12605100       0.018915766    5286.384       10572.274      9.4402152    
  25205400   490.14989      13.270134     -21584895       2.2024663      1453.7385     -21583442       595.59048      595.59048      595.59048      2202.2048      2797.7952      2202.2048      2797.7952      2202.2048      2797.7952      2.1127264e+08  0.5            12605200       0.037576235    5358.956       10717.959      9.3570328    
  25205600   732.77978      13.385887     -21584897       2.2024663      2173.3559     -21582724       595.59048      595.59048      595.59048      2202.2048      2797.7952      2202.2048      2797.7952      2202.2048      2797.7952      2.1127264e+08  0.5            12605300       0.056259959    5352.2755      10704.559      9.3207488    
  25205800   1125.5503      13.628258     -21584889       2.2024663      3338.2764     -21581551       595.59048      595.59048      595.59048      2202.2048      2797.7952      2202.2048      2797.7952      2202.2048      2797.7952      2.1127264e+08  0.5            12605400       0.074900939    5364.5243      10729.024      9.2879824    
  25206000   1740.3914      13.937062     -21584868       2.2024663      5161.8373     -21579707       595.59048      595.59048      595.59048      2202.2048      2797.7952      2202.2048      2797.7952      2202.2048      2797.7952      2.1127264e+08  0.5            12605500       0.093695113    5320.7822      10641.57       9.2760376    
  25206200   2657.8919      13.999688     -21584820       2.2024663      7883.0574     -21576937       595.59048      595.59048      595.59048      2202.2048      2797.7952      2202.2048      2797.7952      2202.2048      2797.7952      2.1127264e+08  0.5            12605600       0.11242278     5339.6934      10679.404      9.2563221    
  25206400   3920.2174      14.798585     -21585086       2.2024663      11626.996     -21573459       595.59048      595.59048      595.59048      2202.2048      2797.7952      2202.2048      2797.7952      2202.2048      2797.7952      2.1127264e+08  0.5            12605700       0.13109769     5354.7951      10709.589      9.2331716    
  25206600   5453.1443      16.701749     -21591924       2.2024663      16173.513     -21575750       595.59048      595.59048      595.59048      2202.2048      2797.7952      2202.2048      2797.7952      2202.2048      2797.7952      2.1127264e+08  0.5            12605800       0.14973551     5365.4511      10730.921      9.2088559    
  25206800   6960.6108      19.079011     -21593550       2.2024663      20644.517     -21572906       595.59048      595.59048      595.59048      2202.2048      2797.7952      2202.2048      2797.7952      2202.2048      2797.7952      2.1127264e+08  0.5            12605900       0.16844995     5343.4591      10686.917      9.1899948    
  25207000   7995.934       20.562972     -21593180       2.2024663      23715.189     -21569465       595.59048      595.59048      595.59048      2202.2048      2797.7952      2202.2048      2797.7952      2202.2048      2797.7952      2.1127264e+08  0.5            12606000       0.18741885     5271.7914      10543.556      9.1836289    
  25207200   8431.3292      21.564177     -21592719       2.2024663      25006.53      -21567712       595.59048      595.59048      595.59048      2202.2048      2797.7952      2202.2048      2797.7952      2202.2048      2797.7952      2.1127264e+08  0.5            12606100       0.20626048     5307.3956      10614.787      9.1693097    
  25207400   8847.2942      24.36866      -21592174       2.2024663      26240.243     -21565934       595.59048      595.59048      595.59048      2202.2048      2797.7952      2202.2048      2797.7952      2202.2048      2797.7952      2.1127264e+08  0.5            12606200       0.22490275     5364.1507      10728.325      9.1461304    
  25207600   9745.3319      26.147709     -21593048       2.2024663      28903.738     -21564144       595.59048      595.59048      595.59048      2202.2048      2797.7952      2202.2048      2797.7952      2202.2048      2797.7952      2.1127264e+08  0.5            12606300       0.24359779     5349.0184      10698.018      9.1256244    
  25207800   10798.943      27.615283     -21592297       2.2024663      32028.65      -21560268       595.59048      595.59048      595.59048      2202.2048      2797.7952      2202.2048      2797.7952      2202.2048      2797.7952      2.1127264e+08  0.5            12606400       0.26253673     5280.1324      10560.256      9.1138464    
  25208000   11514.925      29.071388     -21591444       2.2024663      34152.186     -21557292       595.59048      595.59048      595.59048      2202.2048      2797.7952      2202.2048      2797.7952      2202.2048      2797.7952      2.1127264e+08  0.5            12606500       0.28125719     5341.7522      10683.518      9.0940497    
  25208200   11983.563      33.751641     -21590486       2.2024663      35542.123     -21554944       595.59048      595.59048      595.59048      2202.2048      2797.7952      2202.2048      2797.7952      2202.2048      2797.7952      2.1127264e+08  0.5            12606600       0.30015565     5291.4205      10582.832      9.079773     
  25208400   12666.272      39.597049     -21589435       2.2024663      37566.971     -21551868       595.59048      595.59048      595.59048      2202.2048      2797.7952      2202.2048      2797.7952      2202.2048      2797.7952      2.1127264e+08  0.5            12606700       0.31912445     5271.8162      10543.622      9.0669505    
  25208600   13624.107      44.633067     -21588291       2.2024663      40407.819     -21547884       595.59048      595.59048      595.59048      2202.2048      2797.7952      2202.2048      2797.7952      2202.2048      2797.7952      2.1127264e+08  0.5            12606800       0.33784061     5342.9809      10686.002      9.0466744    
  25208800   14475.674      49.635051     -21587039       2.2024663      42933.487     -21544106       595.59048      595.59048      595.59048      2202.2048      2797.7952      2202.2048      2797.7952      2202.2048      2797.7952      2.1127264e+08  0.5            12606900       0.35648045     5364.8667      10729.727      9.0246336    
  25209000   15075.185      53.023959     -21585732       2.2024663      44711.58      -21541021       595.59048      595.59048      595.59048      2202.2048      2797.7952      2202.2048      2797.7952      2202.2048      2797.7952      2.1127264e+08  0.5            12607000       0.37545871     5269.1659      10538.313      9.0110603    
  25209200   15676.824      56.331775     -21584007       2.2024663      46495.987     -21537511       595.59048      595.59048      595.59048      2202.2048      2797.7952      2202.2048      2797.7952      2202.2048      2797.7952      2.1127264e+08  0.5            12607100       0.39420445     5334.5559      10669.115      8.9916621    
  25209400   16501.395      61.82627      -21582595       2.2024663      48941.586     -21533654       595.59048      595.59048      595.59048      2202.2048      2797.7952      2202.2048      2797.7952      2202.2048      2797.7952      2.1127264e+08  0.5            12607200       0.4128805      5354.4544      10708.931      8.9708102    
  25209600   17397.78       70.800033     -21581524       2.2024663      51600.181     -21529924       595.59048      595.59048      595.59048      2202.2048      2797.7952      2202.2048      2797.7952      2202.2048      2797.7952      2.1127264e+08  0.5            12607300       0.43180843     5283.1934      10566.389      8.9553737    
  25209800   18111.493      77.571855     -21580052       2.2024663      53716.985     -21526335       595.59048      595.59048      595.59048      2202.2048      2797.7952      2202.2048      2797.7952      2202.2048      2797.7952      2.1127264e+08  0.5            12607400       0.45041191     5375.3465      10750.672      8.9332097    
  25210000   18707.044      83.34631      -21578199       2.2024663      55483.333     -21522715       595.59048      595.59048      595.59048      2202.2048      2797.7952      2202.2048      2797.7952      2202.2048      2797.7952      2.1127264e+08  0.5            12607500       0.4693266      5286.8759      10573.753      8.9172467    
  25210200   19431.567      88.707393     -21576710       2.2024663      57632.203     -21519078       595.59048      595.59048      595.59048      2202.2048      2797.7952      2202.2048      2797.7952      2202.2048      2797.7952      2.1127264e+08  0.5            12607600       0.48809085     5329.2942      10658.575      8.8983093    
  25210400   20300.435      95.291182     -21575202       2.2024663      60209.181     -21514992       595.59048      595.59048      595.59048      2202.2048      2797.7952      2202.2048      2797.7952      2202.2048      2797.7952      2.1127264e+08  0.5            12607700       0.5068959      5317.7242      10635.459      8.8801009    
  25210600   21100.109      98.449964     -21574433       2.2024663      62580.938     -21511852       595.59048      595.59048      595.59048      2202.2048      2797.7952      2202.2048      2797.7952      2202.2048      2797.7952      2.1127264e+08  0.5            12607800       0.52578013     5295.4075      10590.815      8.8631861    
  25210800   21739.381      104.67164     -21581836       2.2024663      64476.96      -21517359       595.59048      595.59048      595.59048      2202.2048      2797.7952      2202.2048      2797.7952      2202.2048      2797.7952      2.1127264e+08  0.5            12607900       0.54460729     5311.493       10622.987      8.845207     
  25211000   22397.609      111.21569     -21578097       2.2024663      66429.202     -21511668       595.59048      595.59048      595.59048      2202.2048      2797.7952      2202.2048      2797.7952      2202.2048      2797.7952      2.1127264e+08  0.5            12608000       0.56362375     5258.5932      10517.158      8.8301398    
  25211200   23196.242      118.54338     -21567684       2.2024663      68797.873     -21498886       595.59048      595.59048      595.59048      2202.2048      2797.7952      2202.2048      2797.7952      2202.2048      2797.7952      2.1127264e+08  0.5            12608100       0.58229914     5354.6531      10709.357      8.8096525    
  25211400   24030.659      129.85978     -21566143       2.2024663      71272.676     -21494870       595.59048      595.59048      595.59048      2202.2048      2797.7952      2202.2048      2797.7952      2202.2048      2797.7952      2.1127264e+08  0.5            12608200       0.60119309     5292.6892      10585.349      8.7924797    
  25211600   24741.402      136.21621     -21566458       2.2024663      73380.672     -21493077       595.59048      595.59048      595.59048      2202.2048      2797.7952      2202.2048      2797.7952      2202.2048      2797.7952      2.1127264e+08  0.5            12608300       0.61988315     5350.4402      10700.884      8.7723146    
  25211800   25376.953      144.78528     -21562925       2.2024663      75265.656     -21487660       595.59048      595.59048      595.59048      2202.2048      2797.7952      2202.2048      2797.7952      2202.2048      2797.7952      2.1127264e+08  0.5            12608400       0.63870365     5313.3466      10626.702      8.7540255    
  25212000   26107.127      151.55056     -21563481       2.2024663      77431.284     -21486050       595.59048      595.59048      595.59048      2202.2048      2797.7952      2202.2048      2797.7952      2202.2048      2797.7952      2.1127264e+08  0.5            12608500       0.65731392     5373.3786      10746.752      8.7329128    
  25212200   26928.552      158.22164     -21563549       2.2024663      79867.553     -21483682       595.59048      595.59048      595.59048      2202.2048      2797.7952      2202.2048      2797.7952      2202.2048      2797.7952      2.1127264e+08  0.5            12608600       0.67617653     5301.4966      10602.995      8.7151908    
  25212400   27696.341      165.8318      -21554950       2.2024663      82144.743     -21472805       595.59048      595.59048      595.59048      2202.2048      2797.7952      2202.2048      2797.7952      2202.2048      2797.7952      2.1127264e+08  0.5            12608700       0.69503118     5303.7348      10607.481      8.6973075    
  25212600   28360.857      175.82271     -21552473       2.2024663      84115.637     -21468357       595.59048      595.59048      595.59048      2202.2048      2797.7952      2202.2048      2797.7952      2202.2048      2797.7952      2.1127264e+08  0.5            12608800       0.71364401     5372.6396      10745.255      8.676434     
  25212800   29054.99       184.33005     -21547981       2.2024663      86174.37      -21461806       595.59048      595.59048      595.59048      2202.2048      2797.7952      2202.2048      2797.7952      2202.2048      2797.7952      2.1127264e+08  0.5            12608900       0.73251756     5298.4133      10596.839      8.6587582    
  25213000   29843.479      192.66244     -21547509       2.2024663      88512.954     -21458996       595.59048      595.59048      595.59048      2202.2048      2797.7952      2202.2048      2797.7952      2202.2048      2797.7952      2.1127264e+08  0.5            12609000       0.75119354     5354.4668      10708.913      8.6387499    
  25213200   30651.1        197.22472     -21544692       2.2024663      90908.281     -21453783       595.59048      595.59048      595.59048      2202.2048      2797.7952      2202.2048      2797.7952      2202.2048      2797.7952      2.1127264e+08  0.5            12609100       0.77010132     5288.8237      10577.688      8.6214016    
  25213400   31367.062      204.52208     -21542159       2.2024663      93031.758     -21449127       595.59048      595.59048      595.59048      2202.2048      2797.7952      2202.2048      2797.7952      2202.2048      2797.7952      2.1127264e+08  0.5            12609200       0.78861513     5401.3862      10802.725      8.5996829    
  25213600   32057.346      214.62283     -21547001       2.2024663      95079.076     -21451922       595.59048      595.59048      595.59048      2202.2048      2797.7952      2202.2048      2797.7952      2202.2048      2797.7952      2.1127264e+08  0.5            12609300       0.80744743     5310.0194      10620.078      8.581498     
  25213800   32817.928      225.53423     -21537494       2.2024663      97334.888     -21440159       595.59048      595.59048      595.59048      2202.2048      2797.7952      2202.2048      2797.7952      2202.2048      2797.7952      2.1127264e+08  0.5            12609400       0.82684391     5155.5826      10311.147      8.5691313    
  25214000   33622.916      235.07489     -21534708       2.2024663      99722.409     -21434985       595.59048      595.59048      595.59048      2202.2048      2797.7952      2202.2048      2797.7952      2202.2048      2797.7952      2.1127264e+08  0.5            12609500       0.84568324     5308.0317      10616.033      8.5508195    
  25214200   34374.449      242.66578     -21530496       2.2024663      101951.38     -21428545       595.59048      595.59048      595.59048      2202.2048      2797.7952      2202.2048      2797.7952      2202.2048      2797.7952      2.1127264e+08  0.5            12609600       0.86453113     5305.6545      10611.329      8.5325664    
  25214400   35074.616      250.94614     -21530599       2.2024663      104028.01     -21426571       595.59048      595.59048      595.59048      2202.2048      2797.7952      2202.2048      2797.7952      2202.2048      2797.7952      2.1127264e+08  0.5            12609700       0.88315268     5370.1159      10740.245      8.5121086    
  25214600   35808.458      256.44193     -21528630       2.2024663      106204.52     -21422426       595.59048      595.59048      595.59048      2202.2048      2797.7952      2202.2048      2797.7952      2202.2048      2797.7952      2.1127264e+08  0.5            12609800       0.90197082     5314.0124      10628.021      8.4935783    
  25214800   36578.694      265.91672     -21526817       2.2024663      108488.97     -21418328       595.59048      595.59048      595.59048      2202.2048      2797.7952      2202.2048      2797.7952      2202.2048      2797.7952      2.1127264e+08  0.5            12609900       0.92067543     5346.2927      10692.579      8.4739909    
  25215000   37333.684      271.59743     -21525161       2.2024663      110728.2      -21414433       595.59048      595.59048      595.59048      2202.2048      2797.7952      2202.2048      2797.7952      2202.2048      2797.7952      2.1127264e+08  0.5            12610000       0.93933719     5358.5436      10717.1        8.4540541    
  25215200   38036.898      279.41604     -21523219       2.2024663      112813.86     -21410405       595.59048      595.59048      595.59048      2202.2048      2797.7952      2202.2048      2797.7952      2202.2048      2797.7952      2.1127264e+08  0.5            12610100       0.95827627     5280.0853      10560.168      8.4366071    
  25215400   38757.346      286.35091     -21522124       2.2024663      114950.65     -21407173       595.59048      595.59048      595.59048      2202.2048      2797.7952      2202.2048      2797.7952      2202.2048      2797.7952      2.1127264e+08  0.5            12610200       0.97689328     5371.4405      10742.875      8.4163292    
  25215600   39514.709      289.12765     -21518084       2.2024663      117196.91     -21400888       595.59048      595.59048      595.59048      2202.2048      2797.7952      2202.2048      2797.7952      2202.2048      2797.7952      2.1127264e+08  0.5            12610300       0.99589177     5263.5693      10527.138      8.3993318    
  25215800   40263.84       297.16334     -21522526       2.2024663      119418.76     -21403107       595.59048      595.59048      595.59048      2202.2048      2797.7952      2202.2048      2797.7952      2202.2048      2797.7952      2.1127264e+08  0.5            12610400       1.014558       5357.2751      10714.569      8.3795142    
  25216000   40971.766      307.72227     -21518788       2.2024663      121518.41     -21397270       595.59048      595.59048      595.59048      2202.2048      2797.7952      2202.2048      2797.7952      2202.2048      2797.7952      2.1127264e+08  0.5            12610500       1.033514       5275.3787      10550.714      8.3620845    
  25216200   41686.296      313.81121     -21518172       2.2024663      123637.63     -21394535       595.59048      595.59048      595.59048      2202.2048      2797.7952      2202.2048      2797.7952      2202.2048      2797.7952      2.1127264e+08  0.5            12610600       1.0524298      5286.5886      10573.217      8.344281     
  25216400   42445.067      320.78607     -21518754       2.2024663      125888.08     -21392866       595.59048      595.59048      595.59048      2202.2048      2797.7952      2202.2048      2797.7952      2202.2048      2797.7952      2.1127264e+08  0.5            12610700       1.0710361      5374.5349      10749.084      8.3240324    
  25216600   43206.268      328.57596     -21518410       2.2024663      128145.73     -21390264       595.59048      595.59048      595.59048      2202.2048      2797.7952      2202.2048      2797.7952      2202.2048      2797.7952      2.1127264e+08  0.5            12610800       1.0899437      5288.873       10577.688      8.3061389    
  25216800   43911.329      334.91398     -21521683       2.2024663      130236.88     -21391446       595.59048      595.59048      595.59048      2202.2048      2797.7952      2202.2048      2797.7952      2202.2048      2797.7952      2.1127264e+08  0.5            12610900       1.1086947      5333.0495      10666.113      8.2870384    
  25217000   44616.833      341.62341     -21524905       2.2024663      132329.33     -21392576       595.59048      595.59048      595.59048      2202.2048      2797.7952      2202.2048      2797.7952      2202.2048      2797.7952      2.1127264e+08  0.5            12611000       1.1276694      5270.1792      10540.353      8.2695907    
  25217200   45371.572      348.89754     -21520514       2.2024663      134567.82     -21385946       595.59048      595.59048      595.59048      2202.2048      2797.7952      2202.2048      2797.7952      2202.2048      2797.7952      2.1127264e+08  0.5            12611100       1.1465912      5284.9072      10569.869      8.2517116    
  25217400   46140.308      357.94143     -21512093       2.2024663      136847.82     -21375245       595.59048      595.59048      595.59048      2202.2048      2797.7952      2202.2048      2797.7952      2202.2048      2797.7952      2.1127264e+08  0.5            12611200       1.1652998      5345.1485      10690.296      8.2322927    
  25217600   46872.063      368.39011     -21510655       2.2024663      139018.13     -21371636       595.59048      595.59048      595.59048      2202.2048      2797.7952      2202.2048      2797.7952      2202.2048      2797.7952      2.1127264e+08  0.5            12611300       1.1841961      5292.036       10584.014      8.2141996    
  25217800   47589.818      379.52016     -21506352       2.2024663      141146.93     -21365205       595.59048      595.59048      595.59048      2202.2048      2797.7952      2202.2048      2797.7952      2202.2048      2797.7952      2.1127264e+08  0.5            12611400       1.2029091      5343.8774      10687.807      8.1948314    
  25218000   48331.037      390.15032     -21503855       2.2024663      143345.31     -21360510       595.59048      595.59048      595.59048      2202.2048      2797.7952      2202.2048      2797.7952      2202.2048      2797.7952      2.1127264e+08  0.5            12611500       1.2218692      5274.2285      10548.419      8.1771383    
  25218200   49106.833      397.86336     -21506364       2.2024663      145646.25     -21360718       595.59048      595.59048      595.59048      2202.2048      2797.7952      2202.2048      2797.7952      2202.2048      2797.7952      2.1127264e+08  0.5            12611600       1.2405518      5352.5944      10705.22       8.1575805    
  25218400   49885.531      410.55334     -21499288       2.2024663      147955.8      -21351332       595.59048      595.59048      595.59048      2202.2048      2797.7952      2202.2048      2797.7952      2202.2048      2797.7952      2.1127264e+08  0.5            12611700       1.2595014      5277.1214      10554.233      8.1397761    
  25218600   50643.942      419.51503     -21498046       2.2024663      150205.17     -21347840       595.59048      595.59048      595.59048      2202.2048      2797.7952      2202.2048      2797.7952      2202.2048      2797.7952      2.1127264e+08  0.5            12611800       1.2785084      5261.2248      10522.45       8.122302     
  25218800   51396.277      427.48797     -21488102       2.2024663      152436.53     -21335666       595.59048      595.59048      595.59048      2202.2048      2797.7952      2202.2048      2797.7952      2202.2048      2797.7952      2.1127264e+08  0.5            12611900       1.2974353      5283.5036      10567.022      8.1042817    
  25219000   52178.756      440.60284     -21475819       2.2024663      154757.29     -21321062       595.59048      595.59048      595.59048      2202.2048      2797.7952      2202.2048      2797.7952      2202.2048      2797.7952      2.1127264e+08  0.5            12612000       1.3161919      5331.4348      10662.847      8.0851915    
  25219200   52985.115      450.06715     -21467629       2.2024663      157148.87     -21310480       595.59048      595.59048      595.59048      2202.2048      2797.7952      2202.2048      2797.7952      2202.2048      2797.7952      2.1127264e+08  0.5            12612100       1.3349137      5341.399       10682.784      8.065899     
  25219400   53797.882      453.90869     -21463679       2.2024663      159559.46     -21304120       595.59048      595.59048      595.59048      2202.2048      2797.7952      2202.2048      2797.7952      2202.2048      2797.7952      2.1127264e+08  0.5            12612200       1.3538201      5289.1913      10578.404      8.0477204    
  25219600   54686.123      463.99103     -21463366       2.2024663      162193.9      -21301172       595.59048      595.59048      595.59048      2202.2048      2797.7952      2202.2048      2797.7952      2202.2048      2797.7952      2.1127264e+08  0.5            12612300       1.3724987      5353.7369      10707.485      8.0281884    
  25219800   55910.598      470.33281     -21462001       2.2024663      165825.58     -21296176       595.59048      595.59048      595.59048      2202.2048      2797.7952      2202.2048      2797.7952      2202.2048      2797.7952      2.1127264e+08  0.5            12612400       1.3914777      5268.959       10537.9        8.0104107    
  25220000   57522.77       478.99632     -21460992       2.2024663      170607.13     -21290385       595.59048      595.59048      595.59048      2202.2048      2797.7952      2202.2048      2797.7952      2202.2048      2797.7952      2.1127264e+08  0.5            12612500       1.410218       5336.0996      10672.179      7.9912473    
  25220200   57773.378      484.61589     -21464316       2.2024663      171350.41     -21292966       595.59048      595.59048      595.59048      2202.2048      2797.7952      2202.2048      2797.7952      2202.2048      2797.7952      2.1127264e+08  0.5            12612600       1.429263       5250.7159      10501.471      7.9737941    
  25220400   55303.454      488.47498     -21470592       2.2024663      164024.85     -21306567       595.59048      595.59048      595.59048      2202.2048      2797.7952      2202.2048      2797.7952      2202.2048      2797.7952      2.1127264e+08  0.5            12612700       1.4480471      5323.6661      10647.315      7.9548671    
  25220600   55205.566      497.35008     -21460254       2.2024663      163734.52     -21296520       595.59048      595.59048      595.59048      2202.2048      2797.7952      2202.2048      2797.7952      2202.2048      2797.7952      2.1127264e+08  0.5            12612800       1.4669991      5276.4963      10553.012      7.9368517    
  25220800   58450.481      507.03039     -21451824       2.2024663      173358.63     -21278465       595.59048      595.59048      595.59048      2202.2048      2797.7952      2202.2048      2797.7952      2202.2048      2797.7952      2.1127264e+08  0.5            12612900       1.485667       5356.7625      10713.519      7.9172994    
  25221000   59267.619      511.96925     -21453888       2.2024663      175782.19     -21278106       595.59048      595.59048      595.59048      2202.2048      2797.7952      2202.2048      2797.7952      2202.2048      2797.7952      2.1127264e+08  0.5            12613000       1.5046864      5257.8013      10515.595      7.8996141    
  25221200   60202.248      518.80784     -21452918       2.2024663      178554.21     -21274363       595.59048      595.59048      595.59048      2202.2048      2797.7952      2202.2048      2797.7952      2202.2048      2797.7952      2.1127264e+08  0.5            12613100       1.5234933      5317.1946      10634.398      7.8807967    
  25221400   61616.069      530.70301     -21436009       2.2024663      182747.47     -21253261       595.59048      595.59048      595.59048      2202.2048      2797.7952      2202.2048      2797.7952      2202.2048      2797.7952      2.1127264e+08  0.5            12613200       1.5424251      5282.1154      10564.24       7.8626165    
  25221600   62993.824      540.82604     -21432059       2.2024663      186833.76     -21245225       595.59048      595.59048      595.59048      2202.2048      2797.7952      2202.2048      2797.7952      2202.2048      2797.7952      2.1127264e+08  0.5            12613300       1.561092       5357.075       10714.105      7.8430869    
  25221800   64853.295      549.68138     -21431589       2.2024663      192348.78     -21239241       595.59048      595.59048      595.59048      2202.2048      2797.7952      2202.2048      2797.7952      2202.2048      2797.7952      2.1127264e+08  0.5            12613400       1.5799813      5294.0041      10588.051      7.8246789    
  25222000   64700.253      557.8539      -21430816       2.2024663      191894.87     -21238921       595.59048      595.59048      595.59048      2202.2048      2797.7952      2202.2048      2797.7952      2202.2048      2797.7952      2.1127264e+08  0.5            12613500       1.5986614      5353.2844      10706.547      7.8052392    
  25222200   61217.329      560.63503     -21421264       2.2024663      181564.84     -21239699       595.59048      595.59048      595.59048      2202.2048      2797.7952      2202.2048      2797.7952      2202.2048      2797.7952      2.1127264e+08  0.5            12613600       1.6177155      5248.2388      10496.461      7.7876168    
  25222400   61976.317      563.93934     -21423360       2.2024663      183815.93     -21239545       595.59048      595.59048      595.59048      2202.2048      2797.7952      2202.2048      2797.7952      2202.2048      2797.7952      2.1127264e+08  0.5            12613700       1.6363512      5366.0272      10732.06       7.7679758    
  25222600   65147.88       574.14529     -21426570       2.2024663      193222.49     -21233347       595.59048      595.59048      595.59048      2202.2048      2797.7952      2202.2048      2797.7952      2202.2048      2797.7952      2.1127264e+08  0.5            12613800       1.6552936      5279.1646      10558.36       7.7497931    
  25222800   65817.257      583.69609     -21422187       2.2024663      195207.8      -21226979       595.59048      595.59048      595.59048      2202.2048      2797.7952      2202.2048      2797.7952      2202.2048      2797.7952      2.1127264e+08  0.5            12613900       1.6739538      5358.9882      10717.956      7.7302906    
  25223000   66944.252      587.98626     -21422591       2.2024663      198550.36     -21224041       595.59048      595.59048      595.59048      2202.2048      2797.7952      2202.2048      2797.7952      2202.2048      2797.7952      2.1127264e+08  0.5            12614000       1.6929492      5264.4333      10528.874      7.7123337    
  25223200   68551.58       597.89107     -21420510       2.2024663      203317.54     -21217192       595.59048      595.59048      595.59048      2202.2048      2797.7952      2202.2048      2797.7952      2202.2048      2797.7952      2.1127264e+08  0.5            12614100       1.7116461      5348.4948      10697.011      7.6930114    
  25223400   69785.634      608.49697     -21417468       2.2024663      206977.63     -21210490       595.59048      595.59048      595.59048      2202.2048      2797.7952      2202.2048      2797.7952      2202.2048      2797.7952      2.1127264e+08  0.5            12614200       1.7305877      5279.375       10558.721      7.6747894    
  25223600   70908.569      620.04486     -21411082       2.2024663      210308.15     -21200774       595.59048      595.59048      595.59048      2202.2048      2797.7952      2202.2048      2797.7952      2202.2048      2797.7952      2.1127264e+08  0.5            12614300       1.7493222      5337.7516      10675.498      7.6556448    
  25223800   70402.814      627.88188     -21403162       2.2024663      208808.13     -21194354       595.59048      595.59048      595.59048      2202.2048      2797.7952      2202.2048      2797.7952      2202.2048      2797.7952      2.1127264e+08  0.5            12614400       1.7681992      5297.4598      10594.946      7.6371242    
  25224000   68485.842      638.06326     -21401698       2.2024663      203122.57     -21198575       595.59048      595.59048      595.59048      2202.2048      2797.7952      2202.2048      2797.7952      2202.2048      2797.7952      2.1127264e+08  0.5            12614500       1.7869152      5343.0115      10685.972      7.6179106    
  25224200   70254.186      649.30153     -21401243       2.2024663      208367.31     -21192875       595.59048      595.59048      595.59048      2202.2048      2797.7952      2202.2048      2797.7952      2202.2048      2797.7952      2.1127264e+08  0.5            12614600       1.8061787      5191.1679      10382.37       7.6010104    
  25224400   72732.089      659.64373     -21398046       2.2024663      215716.54     -21182329       595.59048      595.59048      595.59048      2202.2048      2797.7952      2202.2048      2797.7952      2202.2048      2797.7952      2.1127264e+08  0.5            12614700       1.825046       5300.1614      10600.322      7.5824158    
  25224600   72420.427      673.45428     -21389784       2.2024663      214792.18     -21174992       595.59048      595.59048      595.59048      2202.2048      2797.7952      2202.2048      2797.7952      2202.2048      2797.7952      2.1127264e+08  0.5            12614800       1.8437041      5359.6157      10719.25       7.5629578    
  25224800   72959.343      684.94853     -21384483       2.2024663      216390.55     -21168092       595.59048      595.59048      595.59048      2202.2048      2797.7952      2202.2048      2797.7952      2202.2048      2797.7952      2.1127264e+08  0.5            12614900       1.8628297      5228.5903      10457.153      7.5454093    
  25225000   76608.951      693.99903     -21381579       2.2024663      227214.95     -21154364       595.59048      595.59048      595.59048      2202.2048      2797.7952      2202.2048      2797.7952      2202.2048      2797.7952      2.1127264e+08  0.5            12615000       1.8817243      5292.5401      10585.084      7.5269049    
  25225200   76353.828      705.21515     -21380727       2.2024663      226458.28     -21154269       595.59048      595.59048      595.59048      2202.2048      2797.7952      2202.2048      2797.7952      2202.2048      2797.7952      2.1127264e+08  0.5            12615100       1.9003523      5368.2363      10736.493      7.5073402    
  25225400   74546.614      713.156       -21387560       2.2024663      221098.25     -21166462       595.59048      595.59048      595.59048      2202.2048      2797.7952      2202.2048      2797.7952      2202.2048      2797.7952      2.1127264e+08  0.5            12615200       1.9192731      5285.2022      10570.362      7.4889361    
  25225600   74851.736      722.43389     -21375394       2.2024663      222003.21     -21153391       595.59048      595.59048      595.59048      2202.2048      2797.7952      2202.2048      2797.7952      2202.2048      2797.7952      2.1127264e+08  0.5            12615300       1.9378437      5384.862       10769.749      7.4691721    
  25225800   76675.596      736.90974     -21380489       2.2024663      227412.61     -21153076       595.59048      595.59048      595.59048      2202.2048      2797.7952      2202.2048      2797.7952      2202.2048      2797.7952      2.1127264e+08  0.5            12615400       1.956406       5387.2428      10774.507      7.4493995    
  25226000   78099.17       742.76757     -21374563       2.2024663      231634.8      -21142929       595.59048      595.59048      595.59048      2202.2048      2797.7952      2202.2048      2797.7952      2202.2048      2797.7952      2.1127264e+08  0.5            12615500       1.9752918      5294.9788      10589.915      7.4308677    
  25226200   78474.759      749.24512     -21373571       2.2024663      232748.76     -21140822       595.59048      595.59048      595.59048      2202.2048      2797.7952      2202.2048      2797.7952      2202.2048      2797.7952      2.1127264e+08  0.5            12615600       1.9939617      5356.2409      10712.519      7.4115252    
  25226400   78835.461      761.85358     -21364093       2.2024663      233818.57     -21130275       595.59048      595.59048      595.59048      2202.2048      2797.7952      2202.2048      2797.7952      2202.2048      2797.7952      2.1127264e+08  0.5            12615700       2.0128369      5297.9428      10595.875      7.3929504    
  25226600   79576.411      769.77122     -21362288       2.2024663      236016.15     -21126272       595.59048      595.59048      595.59048      2202.2048      2797.7952      2202.2048      2797.7952      2202.2048      2797.7952      2.1127264e+08  0.5            12615800       2.0313638      5397.5641      10795.13       7.3731054    
  25226800   79719.562      774.76835     -21366321       2.2024663      236440.73     -21129880       595.59048      595.59048      595.59048      2202.2048      2797.7952      2202.2048      2797.7952      2202.2048      2797.7952      2.1127264e+08  0.5            12615900       2.0501247      5330.2395      10660.469      7.3541241    
  25227000   80998.134      786.46506     -21367928       2.2024663      240232.85     -21127695       595.59048      595.59048      595.59048      2202.2048      2797.7952      2202.2048      2797.7952      2202.2048      2797.7952      2.1127264e+08  0.5            12616000       2.0687772      5361.1947      10722.393      7.3347629    
  25227200   83308.66       799.37268     -21375561       2.2024663      247085.65     -21128475       595.59048      595.59048      595.59048      2202.2048      2797.7952      2202.2048      2797.7952      2202.2048      2797.7952      2.1127264e+08  0.5            12616100       2.0877992      5257.0918      10514.172      7.3167087    
  25227400   84061.355      806.70177     -21371786       2.2024663      249318.08     -21122468       595.59048      595.59048      595.59048      2202.2048      2797.7952      2202.2048      2797.7952      2202.2048      2797.7952      2.1127264e+08  0.5            12616200       2.106501       5347.0549      10694.134      7.2975283    
  25227600   83637.551      817.67996     -21367877       2.2024663      248061.11     -21119816       595.59048      595.59048      595.59048      2202.2048      2797.7952      2202.2048      2797.7952      2202.2048      2797.7952      2.1127264e+08  0.5            12616300       2.1252007      5347.6888      10695.386      7.2783489    
  25227800   84893.743      823.67676     -21362775       2.2024663      251786.86     -21110989       595.59048      595.59048      595.59048      2202.2048      2797.7952      2202.2048      2797.7952      2202.2048      2797.7952      2.1127264e+08  0.5            12616400       2.1439771      5325.8439      10651.692      7.2594377    
  25228000   87049.748      836.37557     -21355950       2.2024663      258181.37     -21097769       595.59048      595.59048      595.59048      2202.2048      2797.7952      2202.2048      2797.7952      2202.2048      2797.7952      2.1127264e+08  0.5            12616500       2.1626414      5357.8193      10715.607      7.2401539    
  25228200   86636.474      842.54881     -21355742       2.2024663      256955.64     -21098786       595.59048      595.59048      595.59048      2202.2048      2797.7952      2202.2048      2797.7952      2202.2048      2797.7952      2.1127264e+08  0.5            12616600       2.1814661      5312.1609      10624.331      7.2214115    
  25228400   84756.52       850.69152     -21354948       2.2024663      251379.87     -21103569       595.59048      595.59048      595.59048      2202.2048      2797.7952      2202.2048      2797.7952      2202.2048      2797.7952      2.1127264e+08  0.5            12616700       2.2001455      5353.5142      10707.038      7.2021918    
  25228600   86444.827      863.28191     -21353936       2.2024663      256387.23     -21097549       595.59048      595.59048      595.59048      2202.2048      2797.7952      2202.2048      2797.7952      2202.2048      2797.7952      2.1127264e+08  0.5            12616800       2.2189873      5307.3424      10614.681      7.1835075    
  25228800   90286.483      870.07459     -21350838       2.2024663      267781.22     -21083056       595.59048      595.59048      595.59048      2202.2048      2797.7952      2202.2048      2797.7952      2202.2048      2797.7952      2.1127264e+08  0.5            12616900       2.2375352      5391.4445      10782.859      7.1638796    
  25229000   89483.831      876.35952     -21364867       2.2024663      265400.63     -21099467       595.59048      595.59048      595.59048      2202.2048      2797.7952      2202.2048      2797.7952      2202.2048      2797.7952      2.1127264e+08  0.5            12617000       2.2562157      5353.1614      10706.329      7.1446894    
  25229200   87418.794      886.84451     -21354290       2.2024663      259275.93     -21095014       595.59048      595.59048      595.59048      2202.2048      2797.7952      2202.2048      2797.7952      2202.2048      2797.7952      2.1127264e+08  0.5            12617100       2.2748432      5368.4133      10736.852      7.1253415    
  25229400   89846.99       891.62437     -21353013       2.2024663      266477.73     -21086535       595.59048      595.59048      595.59048      2202.2048      2797.7952      2202.2048      2797.7952      2202.2048      2797.7952      2.1127264e+08  0.5            12617200       2.2937732      5282.6333      10565.25       7.1069427    
  25229600   93916.577      904.62992     -21349464       2.2024663      278547.74     -21070916       595.59048      595.59048      595.59048      2202.2048      2797.7952      2202.2048      2797.7952      2202.2048      2797.7952      2.1127264e+08  0.5            12617300       2.3124608      5351.1104      10702.245      7.0877923    
  25229800   92067.71       912.98006     -21346195       2.2024663      273064.17     -21073131       595.59048      595.59048      595.59048      2202.2048      2797.7952      2202.2048      2797.7952      2202.2048      2797.7952      2.1127264e+08  0.5            12617400       2.3313707      5288.2643      10576.535      7.0693234    
  25230000   89422.772      918.91106     -21348873       2.2024663      265219.54     -21083653       595.59048      595.59048      595.59048      2202.2048      2797.7952      2202.2048      2797.7952      2202.2048      2797.7952      2.1127264e+08  0.5            12617500       2.3500241      5360.928       10721.782      7.0500788    
  25230200   93582.97       934.89714     -21336544       2.2024663      277558.29     -21058985       595.59048      595.59048      595.59048      2202.2048      2797.7952      2202.2048      2797.7952      2202.2048      2797.7952      2.1127264e+08  0.5            12617600       2.3686804      5360.1251      10720.294      7.0308508    
  25230400   96400.546      944.46907     -21334335       2.2024663      285914.96     -21048420       595.59048      595.59048      595.59048      2202.2048      2797.7952      2202.2048      2797.7952      2202.2048      2797.7952      2.1127264e+08  0.5            12617700       2.3875901      5288.2929      10576.574      7.012377     
  25230600   94059.885      958.03765     -21331921       2.2024663      278972.78     -21052948       595.59048      595.59048      595.59048      2202.2048      2797.7952      2202.2048      2797.7952      2202.2048      2797.7952      2.1127264e+08  0.5            12617800       2.4063572      5328.4885      10657.015      6.9934812    
  25230800   93022.115      964.99754     -21331615       2.2024663      275894.85     -21055720       595.59048      595.59048      595.59048      2202.2048      2797.7952      2202.2048      2797.7952      2202.2048      2797.7952      2.1127264e+08  0.5            12617900       2.4250799      5341.1057      10682.204      6.9744602    
  25231000   98469.627      977.97994     -21340056       2.2024663      292051.66     -21048004       595.59048      595.59048      595.59048      2202.2048      2797.7952      2202.2048      2797.7952      2202.2048      2797.7952      2.1127264e+08  0.5            12618000       2.4441038      5256.5371      10513.051      6.9563012    
  25231200   98704.835      990.24913     -21338283       2.2024663      292749.26     -21045533       595.59048      595.59048      595.59048      2202.2048      2797.7952      2202.2048      2797.7952      2202.2048      2797.7952      2.1127264e+08  0.5            12618100       2.4629052      5318.7523      10637.513      6.937502     
  25231400   96167.794      1004.3006     -21332235       2.2024663      285224.64     -21047010       595.59048      595.59048      595.59048      2202.2048      2797.7952      2202.2048      2797.7952      2202.2048      2797.7952      2.1127264e+08  0.5            12618200       2.4819209      5258.8149      10517.644      6.9193001    
  25231600   97185.381      1014.3864     -21326909       2.2024663      288242.71     -21038666       595.59048      595.59048      595.59048      2202.2048      2797.7952      2202.2048      2797.7952      2202.2048      2797.7952      2.1127264e+08  0.5            12618300       2.5006271      5345.8226      10691.615      6.9002322    
  25231800   102818.97      1032.1323     -21322596       2.2024663      304951.41     -21017645       595.59048      595.59048      595.59048      2202.2048      2797.7952      2202.2048      2797.7952      2202.2048      2797.7952      2.1127264e+08  0.5            12618400       2.5193555      5339.4796      10678.989      6.8812301    
  25232000   100643.71      1047.6326     -21313030       2.2024663      298499.79     -21014530       595.59048      595.59048      595.59048      2202.2048      2797.7952      2202.2048      2797.7952      2202.2048      2797.7952      2.1127264e+08  0.5            12618500       2.5382537      5291.4989      10582.96       6.8626917    
  25232200   98330.36       1054.5792     -21317368       2.2024663      291638.6      -21025729       595.59048      595.59048      595.59048      2202.2048      2797.7952      2202.2048      2797.7952      2202.2048      2797.7952      2.1127264e+08  0.5            12618600       2.556937       5352.3715      10704.775      6.843572     
  25232400   101374.11      1064.3889     -21322776       2.2024663      300666.09     -21022110       595.59048      595.59048      595.59048      2202.2048      2797.7952      2202.2048      2797.7952      2202.2048      2797.7952      2.1127264e+08  0.5            12618700       2.5755949      5359.6738      10719.352      6.8243918    
  25232600   105051.02      1073.916      -21317698       2.2024663      311571.44     -21006127       595.59048      595.59048      595.59048      2202.2048      2797.7952      2202.2048      2797.7952      2202.2048      2797.7952      2.1127264e+08  0.5            12618800       2.5945367      5279.3327      10558.666      6.8059638    
  25232800   102922.12      1084.7938     -21316214       2.2024663      305257.34     -21010957       595.59048      595.59048      595.59048      2202.2048      2797.7952      2202.2048      2797.7952      2202.2048      2797.7952      2.1127264e+08  0.5            12618900       2.6132993      5329.7657      10659.527      6.7870629    
  25233000   101786.54      1093.413      -21314532       2.2024663      301889.3      -21012642       595.59048      595.59048      595.59048      2202.2048      2797.7952      2202.2048      2797.7952      2202.2048      2797.7952      2.1127264e+08  0.5            12619000       2.632018       5342.2254      10684.433      6.7680516    
  25233200   105353.66      1107.552      -21310903       2.2024663      312469.07     -20998434       595.59048      595.59048      595.59048      2202.2048      2797.7952      2202.2048      2797.7952      2202.2048      2797.7952      2.1127264e+08  0.5            12619100       2.6509669      5277.3537      10554.696      6.7496302    
  25233400   109101.31      1118.3552     -21322156       2.2024663      323584.23     -20998572       595.59048      595.59048      595.59048      2202.2048      2797.7952      2202.2048      2797.7952      2202.2048      2797.7952      2.1127264e+08  0.5            12619200       2.6695767      5373.5363      10747.106      6.730346     
  25233600   106629.21      1125.202      -21324537       2.2024663      316252.2      -21008285       595.59048      595.59048      595.59048      2202.2048      2797.7952      2202.2048      2797.7952      2202.2048      2797.7952      2.1127264e+08  0.5            12619300       2.688232       5360.3696      10720.74       6.7111858    
  25233800   105382.97      1130.6455     -21314688       2.2024663      312555.99     -21002132       595.59048      595.59048      595.59048      2202.2048      2797.7952      2202.2048      2797.7952      2202.2048      2797.7952      2.1127264e+08  0.5            12619400       2.707198       5272.6072      10545.219      6.6928001    
  25234000   106714.11      1140.6799     -21311101       2.2024663      316504.01     -20994597       595.59048      595.59048      595.59048      2202.2048      2797.7952      2202.2048      2797.7952      2202.2048      2797.7952      2.1127264e+08  0.5            12619500       2.725904       5345.8838      10691.751      6.6737699    
  25234200   110218.21      1152.8317     -21305417       2.2024663      326896.86     -20978520       595.59048      595.59048      595.59048      2202.2048      2797.7952      2202.2048      2797.7952      2202.2048      2797.7952      2.1127264e+08  0.5            12619600       2.7446187      5343.3989      10686.781      6.6547653    
  25234400   112412.29      1159.9996     -21303582       2.2024663      333404.28     -20970178       595.59048      595.59048      595.59048      2202.2048      2797.7952      2202.2048      2797.7952      2202.2048      2797.7952      2.1127264e+08  0.5            12619700       2.7634664      5305.6844      10611.386      6.6360839    
  25234600   109205.59      1164.0814     -21309825       2.2024663      323893.52     -20985931       595.59048      595.59048      595.59048      2202.2048      2797.7952      2202.2048      2797.7952      2202.2048      2797.7952      2.1127264e+08  0.5            12619800       2.7821004      5366.5415      10733.105      6.616892     
  25234800   105126.44      1167.9748     -21316499       2.2024663      311795.13     -21004704       595.59048      595.59048      595.59048      2202.2048      2797.7952      2202.2048      2797.7952      2202.2048      2797.7952      2.1127264e+08  0.5            12619900       2.8008372      5337.0929      10674.175      6.59795      
  25235000   109982.53      1174.005      -21324666       2.2024663      326197.85     -20998468       595.59048      595.59048      595.59048      2202.2048      2797.7952      2202.2048      2797.7952      2202.2048      2797.7952      2.1127264e+08  0.5            12620000       2.8203709      5119.3245      10238.647      6.5808704    
  25235200   113480.1       1191.5771     -21301265       2.2024663      336571.31     -20964694       595.59048      595.59048      595.59048      2202.2048      2797.7952      2202.2048      2797.7952      2202.2048      2797.7952      2.1127264e+08  0.5            12620100       2.8393313      5274.1642      10548.336      6.5624326    
  25235400   112697.04      1195.1686     -21298611       2.2024663      334248.84     -20964362       595.59048      595.59048      595.59048      2202.2048      2797.7952      2202.2048      2797.7952      2202.2048      2797.7952      2.1127264e+08  0.5            12620200       2.8581558      5312.2362      10624.482      6.543677     
  25235600   111587.73      1205.5637     -21294901       2.2024663      330958.71     -20963942       595.59048      595.59048      595.59048      2202.2048      2797.7952      2202.2048      2797.7952      2202.2048      2797.7952      2.1127264e+08  0.5            12620300       2.8771547      5263.4745      10526.942      6.5253161    
  25235800   115796.53      1220.0576     -21271607       2.2024663      343441.62     -20928165       595.59048      595.59048      595.59048      2202.2048      2797.7952      2202.2048      2797.7952      2202.2048      2797.7952      2.1127264e+08  0.5            12620400       2.8959429      5322.4942      10644.974      6.5064736    
  25236000   118844.81      1233.8162     -21270615       2.2024663      352482.55     -20918133       595.59048      595.59048      595.59048      2202.2048      2797.7952      2202.2048      2797.7952      2202.2048      2797.7952      2.1127264e+08  0.5            12620500       2.915125       5213.1569      10426.293      6.4885089    
  25236200   114292.61      1245.0872     -21266613       2.2024663      338981.15     -20927632       595.59048      595.59048      595.59048      2202.2048      2797.7952      2202.2048      2797.7952      2202.2048      2797.7952      2.1127264e+08  0.5            12620600       2.9340035      5297.0638      10594.173      6.4698581    
  25236400   110883.48      1253.4141     -21251260       2.2024663      328869.99     -20922390       595.59048      595.59048      595.59048      2202.2048      2797.7952      2202.2048      2797.7952      2202.2048      2797.7952      2.1127264e+08  0.5            12620700       2.952769       5328.9187      10657.826      6.4509583    
  25236600   119132.51      1270.9332     -21255431       2.2024663      353335.83     -20902095       595.59048      595.59048      595.59048      2202.2048      2797.7952      2202.2048      2797.7952      2202.2048      2797.7952      2.1127264e+08  0.5            12620800       2.9718016      5254.1429      10508.28       6.4326381    
  25236800   119393.64      1288.5881     -21252962       2.2024663      354110.33     -20898852       595.59048      595.59048      595.59048      2202.2048      2797.7952      2202.2048      2797.7952      2202.2048      2797.7952      2.1127264e+08  0.5            12620900       2.9906453      5306.8098      10613.634      6.4139038    
  25237000   116370.55      1295.5304     -21245956       2.2024663      345144.11     -20900812       595.59048      595.59048      595.59048      2202.2048      2797.7952      2202.2048      2797.7952      2202.2048      2797.7952      2.1127264e+08  0.5            12621000       3.0095493      5289.888       10579.719      6.3952968    
  25237200   117256.84      1307.283      -21249680       2.2024663      347772.75     -20901907       595.59048      595.59048      595.59048      2202.2048      2797.7952      2202.2048      2797.7952      2202.2048      2797.7952      2.1127264e+08  0.5            12621100       3.028479       5282.6925      10565.421      6.3767396    
  25237400   122695.57      1325.7709     -21241580       2.2024663      363903.52     -20877676       595.59048      595.59048      595.59048      2202.2048      2797.7952      2202.2048      2797.7952      2202.2048      2797.7952      2.1127264e+08  0.5            12621200       3.0473365      5302.931       10605.851      6.3580273    
  25237600   121854.97      1339.0104     -21240556       2.2024663      361410.4      -20879146       595.59048      595.59048      595.59048      2202.2048      2797.7952      2202.2048      2797.7952      2202.2048      2797.7952      2.1127264e+08  0.5            12621300       3.066209       5298.726       10597.446      6.3393443    
  25237800   119425.78      1351.0761     -21238214       2.2024663      354205.65     -20884008       595.59048      595.59048      595.59048      2202.2048      2797.7952      2202.2048      2797.7952      2202.2048      2797.7952      2.1127264e+08  0.5            12621400       3.085262       5248.514       10497.033      6.3210287    
  25238000   122872.03      1364.2896     -21237921       2.2024663      364426.88     -20873494       595.59048      595.59048      595.59048      2202.2048      2797.7952      2202.2048      2797.7952      2202.2048      2797.7952      2.1127264e+08  0.5            12621500       3.1040531      5321.6433      10643.302      6.3021727    
  25238200   128920.83      1384.6772     -21236229       2.2024663      382367.07     -20853862       595.59048      595.59048      595.59048      2202.2048      2797.7952      2202.2048      2797.7952      2202.2048      2797.7952      2.1127264e+08  0.5            12621600       3.1231991      5223.058       10446.111      6.284031     
  25238400   123487.88      1394.4187     -21228621       2.2024663      366253.43     -20862367       595.59048      595.59048      595.59048      2202.2048      2797.7952      2202.2048      2797.7952      2202.2048      2797.7952      2.1127264e+08  0.5            12621700       3.1424409      5197.0168      10394.039      6.2660687    
  25238600   120406.27      1403.3838     -21225047       2.2024663      357113.67     -20867933       595.59048      595.59048      595.59048      2202.2048      2797.7952      2202.2048      2797.7952      2202.2048      2797.7952      2.1127264e+08  0.5            12621800       3.1616816      5197.3237      10394.651      6.2480888    
  25238800   124857.31      1420.1607     -21228341       2.2024663      370315.05     -20858026       595.59048      595.59048      595.59048      2202.2048      2797.7952      2202.2048      2797.7952      2202.2048      2797.7952      2.1127264e+08  0.5            12621900       3.1811916      5125.559       10251.115      6.2306217    
  25239000   127700.26      1430.1858     -21226216       2.2024663      378746.97     -20847469       595.59048      595.59048      595.59048      2202.2048      2797.7952      2202.2048      2797.7952      2202.2048      2797.7952      2.1127264e+08  0.5            12622000       3.2008963      5074.9406      10149.881      6.2135084    
  25239200   126168.06      1444.0038     -21224499       2.2024663      374202.59     -20850297       595.59048      595.59048      595.59048      2202.2048      2797.7952      2202.2048      2797.7952      2202.2048      2797.7952      2.1127264e+08  0.5            12622100       3.2206718      5056.7586      10113.519      6.1965009    
  25239400   125903.92      1450.743      -21219494       2.2024663      373419.2      -20846075       595.59048      595.59048      595.59048      2202.2048      2797.7952      2202.2048      2797.7952      2202.2048      2797.7952      2.1127264e+08  0.5            12622200       3.2398534      5213.3224      10426.644      6.178329     
  25239600   130471.35      1469.6983     -21224897       2.2024663      386965.77     -20837931       595.59048      595.59048      595.59048      2202.2048      2797.7952      2202.2048      2797.7952      2202.2048      2797.7952      2.1127264e+08  0.5            12622300       3.2594881      5093.0134      10186.044      6.1610016    
  25239800   134573.6       1485.5922     -21224372       2.2024663      399132.65     -20825239       595.59048      595.59048      595.59048      2202.2048      2797.7952      2202.2048      2797.7952      2202.2048      2797.7952      2.1127264e+08  0.5            12622400       3.2787038      5204.0936      10408.191      6.1428625    
  25240000   126868.46      1488.5261     -21218448       2.2024663      376279.91     -20842168       595.59048      595.59048      595.59048      2202.2048      2797.7952      2202.2048      2797.7952      2202.2048      2797.7952      2.1127264e+08  0.5            12622500       3.2982483      5116.5436      10233.049      6.1253219    
  25240200   122195.87      1495.9728     -21200527       2.2024663      362421.47     -20838106       595.59048      595.59048      595.59048      2202.2048      2797.7952      2202.2048      2797.7952      2202.2048      2797.7952      2.1127264e+08  0.5            12622600       3.317951       5075.4285      10150.87       6.1080498    
  25240400   127381.6       1511.5197     -21189353       2.2024663      377801.85     -20811551       595.59048      595.59048      595.59048      2202.2048      2797.7952      2202.2048      2797.7952      2202.2048      2797.7952      2.1127264e+08  0.5            12622700       3.3372737      5175.2773      10350.568      6.0900567    
  25240600   132368.88      1525.6903     -21181491       2.2024663      392593.66     -20788898       595.59048      595.59048      595.59048      2202.2048      2797.7952      2202.2048      2797.7952      2202.2048      2797.7952      2.1127264e+08  0.5            12622800       3.3569334      5086.5357      10173.031      6.0726585    
  25240800   134398.12      1540.4437     -21179484       2.2024663      398612.18     -20780872       595.59048      595.59048      595.59048      2202.2048      2797.7952      2202.2048      2797.7952      2202.2048      2797.7952      2.1127264e+08  0.5            12622900       3.3763942      5138.5481      10277.135      6.054878     
  25241000   133348.65      1547.9152     -21177348       2.2024663      395499.55     -20781848       595.59048      595.59048      595.59048      2202.2048      2797.7952      2202.2048      2797.7952      2202.2048      2797.7952      2.1127264e+08  0.5            12623000       3.3961086      5072.4104      10144.812      6.03753      
  25241200   131426.53      1557.5454     -21171162       2.2024663      389798.72     -20781363       595.59048      595.59048      595.59048      2202.2048      2797.7952      2202.2048      2797.7952      2202.2048      2797.7952      2.1127264e+08  0.5            12623100       3.4153693      5191.922       10383.832      6.0193562    
  25241400   134842.37      1569.8546     -21168210       2.2024663      399929.8      -20768280       595.59048      595.59048      595.59048      2202.2048      2797.7952      2202.2048      2797.7952      2202.2048      2797.7952      2.1127264e+08  0.5            12623200       3.4350242      5087.7875      10175.604      6.0018589    
  25241600   139435.1       1588.7453     -21163227       2.2024663      413551.39     -20749676       595.59048      595.59048      595.59048      2202.2048      2797.7952      2202.2048      2797.7952      2202.2048      2797.7952      2.1127264e+08  0.5            12623300       3.4541817      5219.875       10439.71       5.983477     
  25241800   136732.39      1593.2175     -21171554       2.2024663      405535.41     -20766018       595.59048      595.59048      595.59048      2202.2048      2797.7952      2202.2048      2797.7952      2202.2048      2797.7952      2.1127264e+08  0.5            12623400       3.4735654      5158.9996      10317.995      5.9654745    
  25242000   130563.08      1601.4993     -21171824       2.2024663      387237.83     -20784586       595.59048      595.59048      595.59048      2202.2048      2797.7952      2202.2048      2797.7952      2202.2048      2797.7952      2.1127264e+08  0.5            12623500       3.4927815      5203.9625      10407.953      5.9471719    
  25242200   133361.93      1614.8856     -21173117       2.2024663      395538.93     -20777578       595.59048      595.59048      595.59048      2202.2048      2797.7952      2202.2048      2797.7952      2202.2048      2797.7952      2.1127264e+08  0.5            12623600       3.5121048      5175.1107      10350.225      5.9290404    
  25242400   140985.91      1630.17       -21162646       2.2024663      418150.96     -20744495       595.59048      595.59048      595.59048      2202.2048      2797.7952      2202.2048      2797.7952      2202.2048      2797.7952      2.1127264e+08  0.5            12623700       3.5314346      5173.3587      10346.713      5.9109072    
  25242600   140136.17      1642.7194     -21176143       2.2024663      415630.71     -20760512       595.59048      595.59048      595.59048      2202.2048      2797.7952      2202.2048      2797.7952      2202.2048      2797.7952      2.1127264e+08  0.5            12623800       3.5506305      5209.4181      10418.851      5.8925391    
  25242800   137383.16      1648.8746     -21168346       2.2024663      407465.53     -20760881       595.59048      595.59048      595.59048      2202.2048      2797.7952      2202.2048      2797.7952      2202.2048      2797.7952      2.1127264e+08  0.5            12623900       3.5700382      5152.6129      10305.224      5.8745105    
  25243000   139518.08      1664.5562     -21141367       2.2024663      413797.51     -20727569       595.59048      595.59048      595.59048      2202.2048      2797.7952      2202.2048      2797.7952      2202.2048      2797.7952      2.1127264e+08  0.5            12624000       3.5888985      5302.1561      10604.297      5.8555745    
  25243200   146158.83      1678.5112     -21138417       2.2024663      433493.36     -20704923       595.59048      595.59048      595.59048      2202.2048      2797.7952      2202.2048      2797.7952      2202.2048      2797.7952      2.1127264e+08  0.5            12624100       3.6080116      5231.9972      10463.983      5.8370482    
  25243400   143911.76      1690.5667     -21133562       2.2024663      426828.74     -20706733       595.59048      595.59048      595.59048      2202.2048      2797.7952      2202.2048      2797.7952      2202.2048      2797.7952      2.1127264e+08  0.5            12624200       3.6268101      5319.5847      10639.174      5.818011     
  25243600   138680.09      1691.3909     -21147481       2.2024663      411312.11     -20736169       595.59048      595.59048      595.59048      2202.2048      2797.7952      2202.2048      2797.7952      2202.2048      2797.7952      2.1127264e+08  0.5            12624300       3.6458955      5239.5886      10479.151      5.7994329    
  25243800   142234.41      1706.156      -21147225       2.2024663      421853.9      -20725371       595.59048      595.59048      595.59048      2202.2048      2797.7952      2202.2048      2797.7952      2202.2048      2797.7952      2.1127264e+08  0.5            12624400       3.664723       5311.4005      10622.839      5.7804425    
  25244000   150435.01      1713.4758     -21142012       2.2024663      446176.1      -20695836       595.59048      595.59048      595.59048      2202.2048      2797.7952      2202.2048      2797.7952      2202.2048      2797.7952      2.1127264e+08  0.5            12624500       3.6838255      5234.8961      10469.77       5.7618843    
  25244200   145229.25      1723.1589     -21135813       2.2024663      430736.31     -20705077       595.59048      595.59048      595.59048      2202.2048      2797.7952      2202.2048      2797.7952      2202.2048      2797.7952      2.1127264e+08  0.5            12624600       3.7029109      5239.6344      10479.294      5.7432934    
  25244400   140608.79      1728.3045     -21130511       2.2024663      417032.45     -20713478       595.59048      595.59048      595.59048      2202.2048      2797.7952      2202.2048      2797.7952      2202.2048      2797.7952      2.1127264e+08  0.5            12624700       3.7216142      5346.6478      10693.278      5.7241101    
  25244600   145880.1       1741.2491     -21123109       2.2024663      432666.65     -20690442       595.59048      595.59048      595.59048      2202.2048      2797.7952      2202.2048      2797.7952      2202.2048      2797.7952      2.1127264e+08  0.5            12624800       3.7405965      5268.065       10536.103      5.7053572    
  25244800   150598.78      1752.2701     -21117957       2.2024663      446661.82     -20671295       595.59048      595.59048      595.59048      2202.2048      2797.7952      2202.2048      2797.7952      2202.2048      2797.7952      2.1127264e+08  0.5            12624900       3.7593398      5335.2304      10670.5        5.6862407    
  25245000   148303.07      1761.2731     -21109895       2.2024663      439852.98     -20670042       595.59048      595.59048      595.59048      2202.2048      2797.7952      2202.2048      2797.7952      2202.2048      2797.7952      2.1127264e+08  0.5            12625000       3.7783968      5247.417       10494.8        5.6675984    
  25245200   146595.49      1768.9149     -21126167       2.2024663      434788.45     -20691379       595.59048      595.59048      595.59048      2202.2048      2797.7952      2202.2048      2797.7952      2202.2048      2797.7952      2.1127264e+08  0.5            12625100       3.7972618      5300.8222      10601.699      5.6486659    
  25245400   150704.32      1779.1429     -21121934       2.2024663      446974.84     -20674959       595.59048      595.59048      595.59048      2202.2048      2797.7952      2202.2048      2797.7952      2202.2048      2797.7952      2.1127264e+08  0.5            12625200       3.8163595      5236.2291      10472.444      5.6300778    
  25245600   158839.65      1799.098      -21117932       2.2024663      471103.48     -20646829       595.59048      595.59048      595.59048      2202.2048      2797.7952      2202.2048      2797.7952      2202.2048      2797.7952      2.1127264e+08  0.5            12625300       3.8351863      5311.5689      10623.15       5.6110882    
  25245800   153028.34      1803.2131     -21117431       2.2024663      453867.68     -20663563       595.59048      595.59048      595.59048      2202.2048      2797.7952      2202.2048      2797.7952      2202.2048      2797.7952      2.1127264e+08  0.5            12625400       3.8542498      5245.649       10491.276      5.5924437    
  25246000   149349.66      1809.8145     -21102299       2.2024663      442957.04     -20659342       595.59048      595.59048      595.59048      2202.2048      2797.7952      2202.2048      2797.7952      2202.2048      2797.7952      2.1127264e+08  0.5            12625500       3.8731279      5297.1402      10594.27       5.5735284    
  25246200   150879.81      1818.3937     -21108439       2.2024663      447495.32     -20660944       595.59048      595.59048      595.59048      2202.2048      2797.7952      2202.2048      2797.7952      2202.2048      2797.7952      2.1127264e+08  0.5            12625600       3.8919782      5304.9371      10609.896      5.5545737    
  25246400   155245.06      1832.2291     -21102685       2.2024663      460442.26     -20642243       595.59048      595.59048      595.59048      2202.2048      2797.7952      2202.2048      2797.7952      2202.2048      2797.7952      2.1127264e+08  0.5            12625700       3.9109881      5260.4192      10520.815      5.5358459    
  25246600   157209.96      1842.6604     -21119947       2.2024663      466269.97     -20653677       595.59048      595.59048      595.59048      2202.2048      2797.7952      2202.2048      2797.7952      2202.2048      2797.7952      2.1127264e+08  0.5            12625800       3.9297653      5325.6139      10651.246      5.5167887    
  25246800   153083.14      1851.0862     -21117244       2.2024663      454030.21     -20663214       595.59048      595.59048      595.59048      2202.2048      2797.7952      2202.2048      2797.7952      2202.2048      2797.7952      2.1127264e+08  0.5            12625900       3.9487671      5262.6607      10525.305      5.4980469    
  25247000   148296.72      1856.6228     -21113006       2.2024663      439834.13     -20673172       595.59048      595.59048      595.59048      2202.2048      2797.7952      2202.2048      2797.7952      2202.2048      2797.7952      2.1127264e+08  0.5            12626000       3.9675334      5328.6833      10657.386      5.4789776    
  25247200   155442.18      1868.9773     -21105908       2.2024663      461026.89     -20644882       595.59048      595.59048      595.59048      2202.2048      2797.7952      2202.2048      2797.7952      2202.2048      2797.7952      2.1127264e+08  0.5            12626100       3.9865966      5245.723       10491.442      5.4603175    
  25247400   160008.97      1887.8744     -21098124       2.2024663      474571.57     -20623553       595.59048      595.59048      595.59048      2202.2048      2797.7952      2202.2048      2797.7952      2202.2048      2797.7952      2.1127264e+08  0.5            12626200       4.0053729      5325.8658      10651.744      5.441264     
  25247600   157913.25      1899.0787     -21093554       2.2024663      468355.87     -20625198       595.59048      595.59048      595.59048      2202.2048      2797.7952      2202.2048      2797.7952      2202.2048      2797.7952      2.1127264e+08  0.5            12626300       4.0241529      5324.8241      10649.658      5.422218     
  25247800   154025.98      1907.8034     -21091782       2.2024663      456826.59     -20634956       595.59048      595.59048      595.59048      2202.2048      2797.7952      2202.2048      2797.7952      2202.2048      2797.7952      2.1127264e+08  0.5            12626400       4.0432307      5241.6775      10483.323      5.4035727    
  25248000   157101.31      1916.8515     -21092939       2.2024663      465947.71     -20626991       595.59048      595.59048      595.59048      2202.2048      2797.7952      2202.2048      2797.7952      2202.2048      2797.7952      2.1127264e+08  0.5            12626500       4.062061       5310.5865      10621.157      5.3845953    
  25248200   164959.77      1933.4429     -21087801       2.2024663      489255.16     -20598546       595.59048      595.59048      595.59048      2202.2048      2797.7952      2202.2048      2797.7952      2202.2048      2797.7952      2.1127264e+08  0.5            12626600       4.080921       5302.2123      10604.471      5.365658     
  25248400   162027.39      1944.3376     -21093881       2.2024663      480558.02     -20613323       595.59048      595.59048      595.59048      2202.2048      2797.7952      2202.2048      2797.7952      2202.2048      2797.7952      2.1127264e+08  0.5            12626700       4.099974       5248.5134      10497.014      5.3469734    
  25248600   155949.32      1953.8656     -21092252       2.2024663      462531.02     -20629721       595.59048      595.59048      595.59048      2202.2048      2797.7952      2202.2048      2797.7952      2202.2048      2797.7952      2.1127264e+08  0.5            12626800       4.1187553      5324.4683      10648.928      5.3279337    
  25248800   160242.58      1969.6638     -21091317       2.2024663      475264.43     -20616052       595.59048      595.59048      595.59048      2202.2048      2797.7952      2202.2048      2797.7952      2202.2048      2797.7952      2.1127264e+08  0.5            12626900       4.137807       5248.8583      10497.711      5.3092436    
  25249000   168172         1989.3998     -21088870       2.2024663      498782.34     -20590087       595.59048      595.59048      595.59048      2202.2048      2797.7952      2202.2048      2797.7952      2202.2048      2797.7952      2.1127264e+08  0.5            12627000       4.156665       5302.791       10605.546      5.2903036    
  25249200   163425.53      1998.3477     -21084918       2.2024663      484704.76     -20600213       595.59048      595.59048      595.59048      2202.2048      2797.7952      2202.2048      2797.7952      2202.2048      2797.7952      2.1127264e+08  0.5            12627100       4.1755034      5308.325       10616.691      5.2713394    
  25249400   159190.44      2008.6929     -21086033       2.2024663      472143.9      -20613889       595.59048      595.59048      595.59048      2202.2048      2797.7952      2202.2048      2797.7952      2202.2048      2797.7952      2.1127264e+08  0.5            12627200       4.194579       5242.2861      10484.592      5.2526735    
  25249600   166021.57      2026.0783     -21094301       2.2024663      492404.37     -20601897       595.59048      595.59048      595.59048      2202.2048      2797.7952      2202.2048      2797.7952      2202.2048      2797.7952      2.1127264e+08  0.5            12627300       4.2133727      5320.9459      10641.865      5.2336538    
  25249800   170386.62      2040.502      -21093887       2.2024663      505350.71     -20588536       595.59048      595.59048      595.59048      2202.2048      2797.7952      2202.2048      2797.7952      2202.2048      2797.7952      2.1127264e+08  0.5            12627400       4.2321905      5314.1206      10628.25       5.2146658    
[...]
  25894400   293.59533     -5.2452552     -21490359       2.2027444      870.77615     -21489489       595.56541      595.56541      595.56541      2202.2173      2797.7827      2202.2173      2797.7827      2202.2173      2797.7827      2.1124596e+08  0.5            12949700       31.201736      4661.8141      9323.6386      1.1428418    
  25894600   303.60203      10.903811     -21490369       2.2031133      900.45508     -21489469       595.53217      595.53217      595.53217      2202.2339      2797.7661      2202.2339      2797.7661      2202.2339      2797.7661      2.1121059e+08  0.5            12949800       31.223546      4584.9556      9169.9163      1.1212877    
  25894800   284.30718     -11.28588      -21490380       2.2025946      843.22837     -21489537       595.57892      595.57892      595.57892      2202.2105      2797.7895      2202.2105      2797.7895      2202.2105      2797.7895      2.1126033e+08  0.5            12949900       31.245163      4626.0862      9252.1621      1.0997263    
  25895000   310.33283      11.048597     -21490390       2.2031018      920.418       -21489470       595.53321      595.53321      595.53321      2202.2334      2797.7666      2202.2334      2797.7666      2202.2334      2797.7666      2.1121169e+08  0.5            12950000       31.266662      4651.4079      9302.8223      1.0781608    
  25895200   294.56971     -10.030725     -21490032       2.202603       873.66608     -21489158       595.57816      595.57816      595.57816      2202.2109      2797.7891      2202.2109      2797.7891      2202.2109      2797.7891      2.1125952e+08  0.5            12950100       31.288225      4637.5493      9275.0995      1.0565976    
  25895400   309.05529      10.715643     -21490042       2.203083       916.62893     -21489126       595.53491      595.53491      595.53491      2202.2325      2797.7675      2202.2325      2797.7675      2202.2325      2797.7675      2.112135e+08   0.5            12950200       31.309682      4660.4909      9320.9979      1.0350309    
  25895600   298.79519     -6.5353652     -21490053       2.2026818      886.19846     -21489167       595.57106      595.57106      595.57106      2202.2145      2797.7855      2202.2145      2797.7855      2202.2145      2797.7855      2.1125196e+08  0.5            12950300       31.331323      4620.7909      9241.58        1.0134703    
  25895800   301.48856      8.4090546     -21490060       2.2030329      894.18672     -21489166       595.53942      595.53942      595.53942      2202.2303      2797.7697      2202.2303      2797.7697      2202.2303      2797.7697      2.112183e+08   0.5            12950400       31.35305       4602.668       9205.3271      0.99191224   
  25896000   298.41626     -7.0259008     -21490068       2.2026735      885.07456     -21489183       595.57181      595.57181      595.57181      2202.2141      2797.7859      2202.2141      2797.7859      2202.2141      2797.7859      2.1125276e+08  0.5            12950500       31.374559      4649.2203      9298.4311      0.97034725   
  25896200   298.02158      6.474869      -21490074       2.2029863      883.904       -21489190       595.54362      595.54362      595.54362      2202.2282      2797.7718      2202.2282      2797.7718      2202.2282      2797.7718      2.1122276e+08  0.5            12950600       31.396152      4630.976       9261.9538      0.94878489   
  25896400   303.0461       7.1223694     -21491976       2.2030033      898.80624     -21491077       595.54208      595.54208      595.54208      2202.229       2797.771       2202.229       2797.771       2202.229       2797.771       2.1122113e+08  0.5            12950700       31.41766       4649.5538      9299.1012      0.92721995   
  25896600   295.92404     -1.0785578     -21491986       2.2028024      877.68287     -21491108       595.56019      595.56019      595.56019      2202.2199      2797.7801      2202.2199      2797.7801      2202.2199      2797.7801      2.112404e+08   0.5            12950800       31.439101      4663.8232      9327.6538      0.90565319   
  25896800   312.64549     -1.2779962     -21491994       2.2027857      927.27713     -21491066       595.56169      595.56169      595.56169      2202.2192      2797.7808      2202.2192      2797.7808      2202.2192      2797.7808      2.11242e+08    0.5            12950900       31.46077       4614.9125      9229.8225      0.88409299   
  25897000   291.78717      5.9660218     -21492001       2.2029515      865.41333     -21491136       595.54675      595.54675      595.54675      2202.2266      2797.7734      2202.2266      2797.7734      2202.2266      2797.7734      2.112261e+08   0.5            12951000       31.482326      4639.1638      9278.3142      0.86252954   
  25897200   308.09957     -4.4761477     -21492009       2.2027071      913.79436     -21491096       595.56878      595.56878      595.56878      2202.2156      2797.7844      2202.2156      2797.7844      2202.2156      2797.7844      2.1124954e+08  0.5            12951100       31.503831      4650.1568      9300.3331      0.84096474   
  25897400   284.65706      6.3460579     -21492017       2.2029568      844.26607     -21491172       595.54628      595.54628      595.54628      2202.2269      2797.7731      2202.2269      2797.7731      2202.2269      2797.7731      2.112256e+08   0.5            12951200       31.525388      4638.76        9277.508       0.81940139   
  25897600   308.36874     -3.5737898     -21492024       2.2027217      914.5927      -21491110       595.56746      595.56746      595.56746      2202.2163      2797.7837      2202.2163      2797.7837      2202.2163      2797.7837      2.1124813e+08  0.5            12951300       31.546998      4627.4594      9254.9411      0.79783938   
  25897800   293.07573      3.2021699     -21492033       2.2028736      869.23508     -21491164       595.55377      595.55377      595.55377      2202.2231      2797.7769      2202.2231      2797.7769      2202.2231      2797.7769      2.1123357e+08  0.5            12951400       31.568465      4658.3442      9316.6793      0.77627379   
  25898000   321.21595      4.3819539     -21492042       2.2028962      952.69631     -21491089       595.55173      595.55173      595.55173      2202.2241      2797.7759      2202.2241      2797.7759      2202.2241      2797.7759      2.112314e+08   0.5            12951500       31.589955      4653.3167      9306.6304      0.75470888   
  25898200   305.19718     -4.546385      -21492051       2.2026875      905.18614     -21491145       595.57055      595.57055      595.57055      2202.2147      2797.7853      2202.2147      2797.7853      2202.2147      2797.7853      2.1125142e+08  0.5            12951600       31.61156       4628.6006      9257.2295      0.73314673   
  25898400   295.02069     -0.52487497    -21492058       2.2027802      875.00362     -21491183       595.56219      595.56219      595.56219      2202.2189      2797.7811      2202.2189      2797.7811      2202.2189      2797.7811      2.1124253e+08  0.5            12951700       31.633121      4637.9509      9275.8932      0.71158355   
  25898600   310.33365      7.291668      -21492064       2.2029624      920.42045     -21491143       595.54577      595.54577      595.54577      2202.2271      2797.7729      2202.2271      2797.7729      2202.2271      2797.7729      2.1122506e+08  0.5            12951800       31.654861      4599.7502      9199.497       0.69002428   
  25898800   291.31814     -0.6622698     -21492072       2.2027837      864.02223     -21491208       595.56188      595.56188      595.56188      2202.2191      2797.7809      2202.2191      2797.7809      2202.2191      2797.7809      2.112422e+08   0.5            12951900       31.67633       4657.9738      9315.9273      0.66845902   
  25899000   305.7062       3.8318228     -21490185       2.2028865      906.69585     -21489279       595.55261      595.55261      595.55261      2202.2237      2797.7763      2202.2237      2797.7763      2202.2237      2797.7763      2.1123233e+08  0.5            12952000       31.697819      4653.519       9307.0129      0.64689432   
  25899200   284.81017      7.159516      -21490194       2.2029691      844.72018     -21489349       595.54516      595.54516      595.54516      2202.2274      2797.7726      2202.2274      2797.7726      2202.2274      2797.7726      2.1122441e+08  0.5            12952100       31.719338      4647.0328      9294.0988      0.6253303    
  25899400   298.24836      7.1702778     -21490571       2.2029776      884.57661     -21489686       595.54441      595.54441      595.54441      2202.2278      2797.7722      2202.2278      2797.7722      2202.2278      2797.7722      2.112236e+08   0.5            12952200       31.740792      4661.2858      9322.5955      0.6037651    
  25899600   301.507       -5.4337707     -21489054       2.2026854      894.24143     -21488160       595.57073      595.57073      595.57073      2202.2146      2797.7854      2202.2146      2797.7854      2202.2146      2797.7854      2.1125162e+08  0.5            12952300       31.762303      4648.6398      9297.2614      0.58220112   
  25899800   295.65443     -5.4105315     -21489063       2.2026815      876.88326     -21488186       595.57109      595.57109      595.57109      2202.2145      2797.7855      2202.2145      2797.7855      2202.2145      2797.7855      2.11252e+08    0.5            12952400       31.783845      4642.0764      9284.1451      0.56063775   
  25900000   311.02617      3.8226162     -21489071       2.2028887      922.47438     -21488149       595.55242      595.55242      595.55242      2202.2238      2797.7762      2202.2238      2797.7762      2202.2238      2797.7762      2.1123213e+08  0.5            12952500       31.805381      4643.4458      9286.8843      0.53907429   
  25900200   298.07233      8.5200782     -21489077       2.2029932      884.05451     -21488193       595.543        595.543        595.543        2202.2285      2797.7715      2202.2285      2797.7715      2202.2285      2797.7715      2.1122211e+08  0.5            12952600       31.826913      4644.2856      9288.5759      0.51751082   
  25900400   303.96699     -7.0969224     -21489083       2.2026262      901.53752     -21488181       595.57607      595.57607      595.57607      2202.212       2797.788       2202.212       2797.788       2202.212       2797.788       2.112573e+08   0.5            12952700       31.848381      4658.0272      9316.0475      0.49594639   
  25900600   289.20037      9.7078703     -21489086       2.2030129      857.74111     -21488229       595.54122      595.54122      595.54122      2202.2294      2797.7706      2202.2294      2797.7706      2202.2294      2797.7706      2.1122021e+08  0.5            12952800       31.869867      4654.2866      9308.5615      0.47438236   
  25900800   309.11567     -0.75849234    -21489093       2.2027628      916.80802     -21488177       595.56376      595.56376      595.56376      2202.2181      2797.7819      2202.2181      2797.7819      2202.2181      2797.7819      2.112442e+08   0.5            12952900       31.891474      4628.1405      9256.3084      0.45282015   
  25901000   295.63074     -7.9466818     -21489098       2.2025888      876.81298     -21488222       595.57944      595.57944      595.57944      2202.2103      2797.7897      2202.2103      2797.7897      2202.2103      2797.7897      2.1126088e+08  0.5            12953000       31.913314      4578.7047      9157.3884      0.43126103   
  25901200   316.63639     -8.0806251     -21489104       2.2025854      939.11378     -21488165       595.57975      595.57975      595.57975      2202.2101      2797.7899      2202.2101      2797.7899      2202.2101      2797.7899      2.1126122e+08  0.5            12953100       31.935015      4608.09        9216.2038      0.40969975   
  25901400   295.80962     -8.7586547     -21489110       2.2025763      877.34353     -21488233       595.58057      595.58057      595.58057      2202.2097      2797.7903      2202.2097      2797.7903      2202.2097      2797.7903      2.1126208e+08  0.5            12953200       31.956497      4655.0982      9310.1834      0.38813562   
  25901600   304.59173     -8.9019082     -21489118       2.2025817      903.39045     -21488214       595.58008      595.58008      595.58008      2202.21        2797.79        2202.21        2797.79        2202.21        2797.79        2.1126157e+08  0.5            12953300       31.977958      4659.6364      9319.2676      0.36657136   
  25901800   291.26039     -8.5862577     -21489127       2.2025929      863.85095     -21488263       595.57907      595.57907      595.57907      2202.2105      2797.7895      2202.2105      2797.7895      2202.2105      2797.7895      2.1126049e+08  0.5            12953400       31.999483      4645.7502      9291.5172      0.34500792   
  25902000   304.65727     -10.322994     -21489136       2.2025467      903.58484     -21488233       595.58323      595.58323      595.58323      2202.2084      2797.7916      2202.2084      2797.7916      2202.2084      2797.7916      2.1126492e+08  0.5            12953500       32.021057      4635.0303      9270.0537      0.32344505   
  25902200   302.30624     -7.016303      -21489146       2.2026159      896.6119      -21488249       595.577        595.577        595.577        2202.2115      2797.7885      2202.2115      2797.7885      2202.2115      2797.7885      2.1125828e+08  0.5            12953600       32.043479      4459.9866      8919.9824      0.30189013   
  25902400   298.03022      2.3675342     -21487260       2.2028231      883.92962     -21486377       595.55833      595.55833      595.55833      2202.2208      2797.7792      2202.2208      2797.7792      2202.2208      2797.7792      2.1123841e+08  0.5            12953700       32.064964      4654.3713      9308.7413      0.28032587   
  25902600   307.93501      10.488409     -21487268       2.2030088      913.3063      -21486354       595.54159      595.54159      595.54159      2202.2292      2797.7708      2202.2292      2797.7708      2202.2292      2797.7708      2.1122061e+08  0.5            12953800       32.086436      4657.3202      9314.6495      0.2587616    
  25902800   290.98133     -0.85614048    -21486910       2.2027354      863.02328     -21486047       595.56623      595.56623      595.56623      2202.2169      2797.7831      2202.2169      2797.7831      2202.2169      2797.7831      2.1124683e+08  0.5            12953900       32.107892      4660.6775      9321.3481      0.23719734   
  25903000   314.74971     -1.5463618     -21486918       2.202714       933.51804     -21485984       595.56816      595.56816      595.56816      2202.2159      2797.7841      2202.2159      2797.7841      2202.2159      2797.7841      2.1124888e+08  0.5            12954000       32.129618      4602.8464      9205.6873      0.21563503   
  25903200   291.02941      7.0907257     -21486923       2.2029111      863.16587     -21486060       595.55039      595.55039      595.55039      2202.2248      2797.7752      2202.2248      2797.7752      2202.2248      2797.7752      2.1122998e+08  0.5            12954100       32.151163      4641.3249      9282.6546      0.19407142   
  25903400   308.0191      -6.4794374     -21486929       2.2025878      913.55569     -21486015       595.57953      595.57953      595.57953      2202.2102      2797.7898      2202.2102      2797.7898      2202.2102      2797.7898      2.1126098e+08  0.5            12954200       32.172687      4646.0172      9292.0235      0.17250772   
  25903600   289.0113      -5.7808636     -21486566       2.2025939      857.18035     -21485709       595.57898      595.57898      595.57898      2202.2105      2797.7895      2202.2105      2797.7895      2202.2105      2797.7895      2.112604e+08   0.5            12954300       32.194433      4598.55        9197.0899      0.15094511   
  25903800   309.87866     -0.31389201    -21486573       2.2027192      919.07097     -21485654       595.56769      595.56769      595.56769      2202.2162      2797.7838      2202.2162      2797.7838      2202.2162      2797.7838      2.1124838e+08  0.5            12954400       32.216053      4625.3634      9250.7267      0.12938175   
  25904000   299.89637      6.6618835     -21486579       2.2028869      889.46444     -21485690       595.55258      595.55258      595.55258      2202.2237      2797.7763      2202.2237      2797.7763      2202.2237      2797.7763      2.112323e+08   0.5            12954500       32.237719      4615.594       9231.1619      0.10781847   
  25904200   298.68333     -2.0120174     -21486587       2.2026917      885.86667     -21485701       595.57017      595.57017      595.57017      2202.2149      2797.7851      2202.2149      2797.7851      2202.2149      2797.7851      2.1125101e+08  0.5            12954600       32.259329      4627.4459      9254.9292      0.086254896  
  25904400   308.5859       0.27577171    -21486596       2.202752       915.23676     -21485680       595.56473      595.56473      595.56473      2202.2176      2797.7824      2202.2176      2797.7824      2202.2176      2797.7824      2.1124523e+08  0.5            12954700       32.280778      4662.249       9324.4897      0.064690942  
  25904600   297.22007      3.3240743     -21486604       2.2028267      881.52678     -21485722       595.558        595.558        595.558        2202.221       2797.779       2202.221       2797.779       2202.221       2797.779       2.1123807e+08  0.5            12954800       32.30232       4641.9753      9283.9481      0.043127266  
  25904800   304.17516     -1.1418041     -21486611       2.2027262      902.15494     -21485709       595.56706      595.56706      595.56706      2202.2165      2797.7835      2202.2165      2797.7835      2202.2165      2797.7835      2.1124771e+08  0.5            12954900       32.323905      4632.8885      9265.7899      0.021563647  
  25905000   292.06602      2.333706      -21486617       2.202811       866.24037     -21485751       595.55942      595.55942      595.55942      2202.2203      2797.7797      2202.2203      2797.7797      2202.2203      2797.7797      2.1123957e+08  0.5            12955000       32.345352      4662.5937      9325.1562      0            
Loop time of 32.3454 on 4 procs for 300000 steps with 996 atoms

Performance: 400.676 ns/day, 0.060 hours/ns, 9274.896 timesteps/s
90.8% CPU use with 4 MPI tasks x no OpenMP threads

MPI task timing breakdown:
Section |  min time  |  avg time  |  max time  |%varavg| %total
---------------------------------------------------------------
Pair    | 12.088     | 14.37      | 16.01      |  39.2 | 44.43
Neigh   | 0.011593   | 0.014152   | 0.016306   |   1.4 |  0.04
Comm    | 9.632      | 11.261     | 13.515     |  43.6 | 34.81
Output  | 0.041805   | 0.046722   | 0.056623   |   2.7 |  0.14
Modify  | 4.8943     | 5.121      | 5.2343     |   6.0 | 15.83
Other   |            | 1.532      |            |       |  4.74

Nlocal:            249 ave         268 max         214 min
Histogram: 1 0 0 0 0 0 1 0 0 2
Nghost:         874.75 ave         889 max         850 min
Histogram: 1 0 0 0 0 0 0 2 0 1
Neighs:        1702.25 ave        1874 max        1436 min
Histogram: 1 0 0 0 1 0 0 0 0 2

Total # of neighbors = 6809
Ave neighs/atom = 6.8363454
Neighbor list builds = 70
Dangerous builds = 0

# run_style
run_style verlet

# write restart
write_restart ${write_res}
write_restart ./pgnpmf/73/equpmf37.res
System init for write_restart ...
Generated 0 of 1 mixed pair_coeff terms from geometric mixing rule

Total wall time: 0:01:10
