LAMMPS data file, Author: Jerry Qin

1000 atoms
0 bonds
0 angles

2 atom types

-100 5100 xlo xhi
-100 5100 ylo yhi
-100 5100 zlo zhi

Masses

1 221851
2 422051

Atoms

1 2  4999.995 4759.296 25.080
2 2  3303.060 3511.393 0.042
3 2  681.212 0.018 4575.798
4 2  1149.789 4978.589 0.000
5 2  4395.784 3371.193 214.011
6 2  2416.544 1705.184 1339.065
7 2  2191.640 452.269 0.000
8 2  1796.018 4755.741 3479.926
9 2  2637.875 778.489 0.007
10 2  0.000 4999.981 3700.703
11 2  4021.465 1562.785 4999.989
12 2  1818.804 1224.277 1180.962
13 2  4619.634 1749.099 4999.998
14 2  2061.041 4878.048 2748.087
15 2  3923.682 181.222 0.004
16 2  2094.644 602.428 49.846
17 2  4999.993 2848.723 2646.530
18 2  1728.806 4300.948 0.000
19 2  1294.885 0.016 4015.764
20 2  0.022 4999.998 2569.075
21 2  2464.680 3059.668 4102.877
22 2  1325.287 4244.327 2744.381
23 2  0.013 4999.953 3290.249
24 2  4999.989 4999.983 0.005
25 2  236.809 4999.987 2299.480
26 2  2763.121 2349.573 5000.000
27 2  0.003 3962.653 4999.992
28 2  0.004 1785.591 4999.998
29 2  427.443 4938.228 4560.590
30 2  0.004 4999.978 4805.726
31 2  415.096 3474.699 2492.455
32 2  2460.002 4295.670 3150.796
33 2  1124.396 1349.462 281.800
34 2  2224.592 4435.018 3460.386
35 2  4926.933 0.015 3803.614
36 2  1693.365 3142.045 2745.854
37 2  0.006 1130.899 2546.047
38 2  1653.184 4996.828 4.528
39 2  0.015 4999.960 1697.808
40 2  1836.880 0.029 4999.973
41 2  2798.583 0.015 0.009
42 2  0.005 3348.658 286.351
43 2  4999.988 1209.067 4999.995
44 2  1535.485 3096.315 4999.999
45 2  799.729 1377.491 911.556
46 2  926.612 3768.675 343.819
47 2  0.004 4110.444 2730.830
48 2  3490.725 2729.953 2418.204
49 2  3264.040 0.013 2990.329
50 2  2320.444 4667.688 1971.684
51 2  0.011 4896.279 4999.984
52 2  0.000 2729.293 2012.569
53 2  1859.395 2529.725 5000.000
54 2  4999.994 3854.805 4327.073
55 2  4999.999 3446.432 2.712
56 2  1252.247 1666.411 1072.431
57 2  2227.848 2182.013 0.011
58 2  404.088 1096.661 2420.705
59 2  374.255 4999.962 1952.392
60 2  1549.462 2452.873 214.243
61 2  0.034 2478.799 4999.954
62 2  3753.514 0.000 4903.827
63 2  1799.132 3632.316 5000.000
64 2  2844.764 224.189 4999.996
65 2  2730.707 82.282 5000.000
66 2  3452.569 96.236 1084.301
67 2  0.007 3542.084 4999.399
68 2  98.327 1646.908 4999.986
69 2  3922.754 1168.207 0.000
70 2  3142.428 3570.350 2924.087
71 2  173.704 676.977 5000.000
72 2  56.815 3044.365 1607.562
73 2  0.005 3433.604 4868.505
74 2  2085.888 5000.000 2381.805
75 2  216.752 1798.996 3416.540
76 2  4528.958 3142.789 4517.504
77 2  0.021 4999.982 4040.745
78 2  0.000 608.197 2153.128
79 2  1614.026 4612.638 1209.659
80 2  3555.394 1545.445 2222.511
81 2  828.937 4486.462 4744.416
82 2  617.057 1327.731 1665.849
83 2  439.258 5000.000 3420.903
84 2  2203.123 2312.987 3040.235
85 2  4895.837 3912.819 4162.825
86 2  1553.775 2361.872 4096.008
87 2  4998.618 3312.663 2141.634
88 2  2760.600 2643.074 4612.655
89 2  4807.358 575.191 168.534
90 2  4409.319 1540.884 2853.656
91 2  1338.745 1557.615 0.000
92 2  477.927 689.053 3117.059
93 2  4192.535 3809.000 3272.745
94 2  4968.814 5000.000 244.772
95 2  4648.845 0.000 2339.015
96 2  1655.347 1615.319 2586.967
97 2  4504.236 0.000 2870.329
98 2  5000.000 69.286 419.960
99 2  0.000 1396.402 482.745
100 2  3782.988 501.237 2079.415
101 2  3107.708 740.155 3666.853
102 2  0.000 48.476 1337.602
103 2  114.043 1241.905 1351.353
104 2  2196.760 0.000 978.577
105 2  0.000 2401.285 1318.788
106 2  2958.493 90.936 2548.692
107 2  670.537 1527.072 1748.642
108 2  97.939 3335.164 931.270
109 2  1104.567 817.001 1005.920
110 2  879.812 2770.684 1711.653
111 2  1763.007 0.000 387.282
112 2  1271.254 0.000 32.490
113 2  2636.029 0.000 2792.373
114 2  2033.811 2849.602 4127.712
115 2  411.200 1432.062 413.724
116 2  904.578 825.238 1619.271
117 2  562.028 0.000 1955.757
118 2  1375.373 1557.406 2306.889
119 2  1431.969 388.181 609.647
120 2  592.589 267.873 1770.959
121 2  24.146 353.306 1863.923
122 2  960.526 439.922 675.652
123 2  1074.453 1333.369 120.056
124 2  925.556 564.766 345.836
125 2  390.861 179.214 327.639
126 2  297.055 1236.759 740.187
127 2  2356.043 2110.637 85.872
128 2  506.004 1535.966 786.418
129 2  0.000 2169.623 0.000
130 2  687.958 971.231 838.901
131 2  133.601 1993.848 461.241
132 2  259.109 2113.910 508.990
133 2  458.453 289.331 207.274
134 2  2826.729 746.663 4103.491
135 2  1105.341 1244.617 1106.727
136 2  2778.839 495.370 1772.949
137 2  1535.910 2788.533 1840.989
138 2  1950.556 0.000 1280.628
139 2  654.363 648.923 504.031
140 2  1187.201 1826.344 3968.574
141 2  34.930 1423.886 191.082
142 2  603.102 1402.074 490.827
143 2  1537.290 594.067 935.016
144 2  643.540 1168.298 1611.805
145 2  18.430 3394.609 1686.093
146 2  2231.370 1774.367 1427.209
147 2  1418.413 785.835 417.739
148 2  729.339 144.765 780.982
149 2  1295.269 332.142 1177.082
150 2  2374.957 2480.565 647.327
151 2  1427.401 335.821 0.000
152 2  19.615 796.182 1037.454
153 2  604.605 509.041 1660.796
154 2  508.313 1988.286 243.792
155 2  1057.515 2012.559 19.363
156 2  257.298 515.753 938.288
157 2  1787.174 2204.758 2861.995
158 2  2581.691 0.000 1679.817
159 2  582.314 583.563 1481.494
160 2  2646.902 2982.048 4716.527
161 2  374.462 1079.127 622.826
162 2  1051.677 258.272 968.687
163 2  222.186 4298.382 2806.406
164 2  1517.363 0.000 741.725
165 2  927.948 840.449 525.889
166 2  4889.544 2431.266 2796.958
167 2  1328.287 538.678 906.112
168 2  1048.874 1194.675 315.647
169 2  656.632 1601.055 521.064
170 2  771.550 3612.701 3331.220
171 2  949.493 169.615 176.730
172 2  1144.856 1024.171 44.477
173 2  1386.716 0.000 503.480
174 2  1447.439 1006.040 144.062
175 2  841.218 687.505 118.620
176 2  896.515 916.753 1453.690
177 2  2388.411 0.000 1496.028
178 2  684.512 1981.309 215.610
179 2  2854.370 1289.226 699.806
180 2  646.279 736.337 1637.161
181 2  197.574 228.333 521.714
182 2  1108.624 1.019 923.272
183 2  954.644 245.583 1233.467
184 2  219.424 486.482 1102.044
185 2  1448.249 906.724 1855.820
186 2  673.131 210.231 193.221
187 2  343.844 313.632 611.089
188 2  359.942 1137.845 461.991
189 2  324.296 2232.039 614.330
190 2  1551.650 453.839 758.509
191 2  545.910 1626.088 0.000
192 2  373.262 698.687 891.554
193 2  944.690 2973.027 390.097
194 2  700.827 3197.850 453.277
195 2  179.625 1147.669 424.170
196 2  2844.712 336.985 0.000
197 2  331.626 1535.592 256.401
198 2  2912.201 0.000 1596.692
199 2  811.970 1530.735 1093.140
200 2  418.293 361.831 761.638
201 2  1110.944 351.727 28.194
202 2  0.000 1330.169 2657.558
203 2  134.142 399.956 1589.472
204 2  3199.315 279.341 238.383
205 2  31.310 50.452 2399.433
206 2  6.758 1390.269 1417.694
207 2  3483.529 4076.770 2396.216
208 2  401.522 225.624 1374.038
209 2  3069.495 0.000 4192.548
210 2  1078.580 568.376 958.070
211 2  1505.343 639.054 438.138
212 2  75.097 12.135 1027.683
213 2  1985.729 836.931 1171.354
214 2  745.918 268.806 1847.570
215 2  1028.303 214.973 475.950
216 2  1719.866 1220.238 199.772
217 2  137.251 18.515 122.652
218 2  2072.259 3760.813 967.687
219 2  938.015 374.137 1794.122
220 2  56.084 695.526 664.589
221 2  1084.379 1670.380 510.786
222 2  649.194 234.663 1066.702
223 2  1738.510 196.536 1110.337
224 2  843.251 2016.799 100.784
225 2  1641.683 0.154 4677.614
226 2  827.757 496.197 162.693
227 2  1136.884 3926.515 4131.638
228 2  885.414 469.125 2020.697
229 2  528.868 743.082 837.944
230 2  418.805 385.164 409.572
231 2  613.851 217.840 1554.712
232 2  1070.921 772.926 1644.570
233 2  1686.010 588.424 214.487
234 2  1318.082 1214.519 712.638
235 2  735.121 1525.974 661.195
236 2  543.228 735.778 3.689
237 2  342.788 183.292 1011.665
238 2  273.267 512.297 1912.895
239 2  450.503 1757.292 159.946
240 2  865.148 170.206 420.337
241 2  424.037 1343.044 1697.146
242 2  2568.760 1162.448 3343.326
243 2  1839.315 310.778 2753.647
244 2  1545.239 1310.409 1136.738
245 2  802.828 1692.340 1230.225
246 2  648.816 782.227 387.281
247 2  1081.114 1502.986 948.475
248 2  580.818 428.061 256.248
249 2  400.684 1934.336 826.337
250 2  133.319 1681.621 347.149
251 2  2480.372 1241.845 2030.110
252 2  474.813 962.888 1890.585
253 2  1743.529 1830.630 2962.386
254 2  2151.604 1424.246 522.342
255 2  3647.930 978.851 2738.168
256 2  3645.402 2351.104 0.000
257 2  1476.806 83.413 23.863
258 2  1226.942 1653.497 265.143
259 2  0.000 2857.350 114.276
260 2  750.838 1330.265 374.285
261 2  1268.448 691.585 489.716
262 2  112.887 1892.575 181.196
263 2  1212.262 943.023 1057.577
264 2  1357.308 473.379 281.178
265 2  908.981 1003.144 243.333
266 2  1422.442 284.442 751.144
267 2  1224.251 1441.545 1673.127
268 2  1695.501 975.714 1182.374
269 2  1441.563 2080.696 284.342
270 2  1097.435 1100.514 456.605
271 2  1237.064 0.000 1261.908
272 2  674.101 504.168 1283.509
273 2  140.765 812.871 1582.143
274 2  426.321 489.107 1650.549
275 2  2757.429 1322.095 884.719
276 2  0.000 1280.958 1915.691
277 2  388.619 752.853 714.076
278 2  1711.681 580.716 920.821
279 2  1512.483 1574.838 99.605
280 2  938.288 128.188 643.389
281 2  1776.839 150.918 829.577
282 2  2631.474 1937.081 2194.513
283 2  306.414 210.742 152.348
284 2  306.579 763.056 1135.610
285 2  1176.872 1187.609 78.652
286 2  1507.403 3226.663 58.654
287 2  29.221 1901.985 1830.455
288 2  1381.577 1323.492 1060.272
289 2  2891.983 2970.884 4294.569
290 2  38.538 1005.333 1763.648
291 2  365.319 74.662 1996.865
292 2  3928.462 4183.477 983.032
293 2  211.498 753.905 702.640
294 2  1942.823 393.821 1223.838
295 2  73.918 2296.048 86.331
296 2  939.398 520.490 1372.759
297 2  702.893 1334.947 628.820
298 2  161.020 1259.264 157.661
299 2  343.587 231.807 1752.290
300 2  505.199 1200.605 1384.693
301 2  697.526 532.306 2273.861
302 2  776.919 1614.734 1385.932
303 2  1632.250 364.389 197.135
304 2  1953.132 10.475 62.876
305 2  4999.939 96.251 4552.194
306 2  656.516 421.987 1489.967
307 2  171.682 1445.667 713.867
308 2  807.209 878.794 323.598
309 2  1659.636 1289.544 922.283
310 2  210.490 1008.851 0.000
311 2  1774.924 654.325 736.504
312 2  4.370 969.726 363.413
313 2  882.817 1156.572 312.750
314 2  1797.506 480.161 546.725
315 2  1849.440 1744.392 1841.475
316 2  1642.092 1013.679 5.019
317 2  1671.997 1142.178 365.523
318 2  1779.615 1928.407 2697.715
319 2  2611.893 2061.839 2053.389
320 2  322.238 627.688 1647.460
321 2  807.702 931.470 125.524
322 2  504.825 3.070 428.835
323 2  987.740 336.764 148.030
324 2  1415.094 0.000 1088.712
325 2  440.446 4.844 1837.030
326 2  509.649 228.121 709.067
327 2  141.125 431.887 1984.469
328 2  1370.033 367.739 1725.553
329 2  2018.187 941.102 732.576
330 2  609.661 1504.879 1142.727
331 2  705.390 2576.732 703.401
332 2  840.136 2.850 3520.136
333 2  2294.451 2828.620 1456.058
334 2  1034.040 869.375 379.546
335 2  1640.562 25.761 226.264
336 2  800.740 1043.907 993.058
337 2  1717.307 745.777 117.458
338 2  1896.540 1518.138 0.000
339 2  735.578 0.000 1823.121
340 2  2210.834 379.288 1156.152
341 2  66.015 1669.438 969.665
342 2  648.157 0.000 869.639
343 2  131.699 341.016 1029.258
344 2  1122.984 1200.709 648.329
345 2  466.830 769.372 155.167
346 2  2288.687 1582.091 482.529
347 2  270.871 1591.673 408.805
348 2  0.000 1629.935 608.000
349 2  581.414 72.227 2121.869
350 2  1150.471 1393.416 555.997
351 2  355.026 620.249 1041.274
352 2  310.552 797.352 2106.853
353 2  90.242 511.943 388.735
354 2  397.673 594.470 1823.203
355 2  613.085 1035.791 677.889
356 2  671.295 1534.349 839.375
357 2  3417.178 666.370 3838.915
358 2  24.302 1787.931 18.510
359 2  832.747 374.637 337.306
360 2  2773.142 2967.654 2037.053
361 2  1269.688 1128.114 568.006
362 2  1979.817 2701.229 1155.529
363 2  2110.187 280.141 2488.760
364 2  1549.925 598.992 670.025
365 2  1236.488 214.912 463.801
366 2  520.047 1091.943 531.353
367 2  3724.046 612.360 3198.735
368 2  2067.342 494.404 1461.743
369 2  474.440 1079.263 1559.659
370 2  861.711 676.436 1489.240
371 2  765.589 1450.831 2018.838
372 2  1513.156 0.000 2156.238
373 2  1421.222 4335.789 1978.872
374 2  1994.095 1574.875 2101.092
375 2  1012.778 418.369 907.939
376 2  3495.525 4237.414 0.000
377 2  0.000 1023.332 770.832
378 2  1933.677 1372.600 202.367
379 2  674.904 4869.118 2549.612
380 2  290.111 2260.798 73.491
381 2  1436.829 471.935 108.030
382 2  1323.155 1531.715 3003.121
383 2  1095.972 592.845 1654.945
384 2  204.843 0.000 1955.057
385 2  1770.220 0.000 1169.325
386 2  810.603 716.946 475.765
387 2  575.040 422.520 734.024
388 2  563.094 1021.720 1202.305
389 2  632.746 564.739 158.245
390 2  2940.793 195.738 4204.240
391 2  1535.359 0.000 2496.020
392 2  512.541 1185.016 769.326
393 2  216.278 1408.649 1337.672
394 2  2136.923 3122.086 870.495
395 2  1085.747 489.517 529.109
396 2  2219.989 13.008 1476.929
397 2  1122.107 740.392 1161.961
398 2  1640.968 105.875 950.655
399 2  1479.616 747.185 981.708
400 2  401.488 460.968 251.157
401 2  1163.245 171.827 1079.099
402 2  391.421 1016.324 232.127
403 2  558.757 867.697 1753.860
404 2  835.413 882.663 1084.077
405 2  170.709 1896.993 869.916
406 2  5000.000 488.259 2526.295
407 2  1513.802 2913.940 2535.611
408 2  1358.367 565.405 1169.498
409 2  672.549 302.614 663.194
410 2  5000.000 4828.991 2588.144
411 2  2147.529 412.995 283.021
412 2  1748.761 131.591 4690.248
413 2  0.000 1047.683 526.728
414 2  609.613 57.778 1474.238
415 2  1860.685 1119.113 601.232
416 2  99.157 286.919 836.494
417 2  710.334 385.847 1002.742
418 2  4084.187 1664.119 799.977
419 2  1212.334 1434.282 1092.934
420 2  1686.665 347.035 747.245
421 2  308.543 562.038 351.778
422 2  798.424 1205.194 909.398
423 2  228.658 908.830 1032.079
424 2  641.598 3822.613 509.101
425 2  1168.456 162.024 109.288
426 2  2276.751 3621.010 2148.234
427 2  438.642 2409.606 2404.383
428 2  675.298 1305.507 195.441
429 2  1532.535 691.161 1202.611
430 2  214.764 127.128 726.351
431 2  1480.061 1095.137 724.803
432 2  256.549 393.966 1708.048
433 2  1439.920 1130.953 0.002
434 2  430.532 350.857 2129.033
435 2  982.657 853.972 2523.623
436 2  135.191 991.429 1255.090
437 2  652.974 1301.030 794.449
438 2  675.510 268.291 2258.569
439 2  0.000 1645.432 146.052
440 2  1898.537 1171.841 127.650
441 2  411.739 1811.504 3.507
442 2  1515.152 922.946 860.980
443 2  976.414 661.111 1069.390
444 2  1256.310 822.486 1315.328
445 2  251.483 356.642 806.647
446 2  1502.945 559.285 1405.428
447 2  908.713 1100.161 1673.320
448 2  230.265 306.696 359.853
449 2  1972.229 468.146 595.878
450 2  521.570 1841.345 713.488
451 2  2804.734 117.476 807.555
452 2  1364.976 1571.127 1444.374
453 2  618.966 415.856 426.105
454 2  1010.325 1057.307 979.960
455 2  293.322 299.771 1491.641
456 2  1214.676 686.340 961.206
457 2  218.681 1076.227 740.458
458 2  3525.821 319.976 4028.258
459 2  676.787 456.408 2.570
460 2  1617.128 949.255 2157.117
461 2  0.000 671.884 505.857
462 2  373.784 1645.566 2048.775
463 2  722.397 0.000 690.805
464 2  1791.486 3290.332 1099.522
465 2  1740.069 0.000 1.191
466 2  1419.646 651.289 63.533
467 2  340.947 1751.650 3727.766
468 2  47.584 1084.858 1593.519
469 2  1634.345 1385.765 729.814
470 2  427.067 176.606 2301.709
471 2  371.517 849.269 473.373
472 2  163.892 269.268 1180.145
473 2  1547.566 763.895 800.494
474 2  600.775 3432.433 5000.000
475 2  1225.669 1297.679 868.441
476 2  526.995 485.864 583.566
477 2  1858.973 352.042 257.911
478 2  372.276 388.972 934.925
479 2  1965.260 495.080 406.972
480 2  0.000 3147.129 3138.676
481 2  3236.877 3432.633 2649.129
482 2  1461.646 2789.901 2016.099
483 2  540.498 161.364 1893.415
484 2  354.389 2717.180 1221.784
485 2  3199.139 2339.693 1449.892
486 2  922.906 1009.873 414.014
487 2  147.397 922.874 1410.183
488 2  1085.548 1508.393 0.063
489 2  6.069 4912.709 1300.366
490 2  2233.310 534.340 146.937
491 2  953.255 178.712 2049.887
492 2  2728.692 3236.978 2965.062
493 2  875.081 271.648 972.331
494 2  1866.473 1251.062 892.408
495 2  510.958 983.986 2107.200
496 2  767.171 1937.831 398.508
497 2  8.899 688.508 1543.589
498 2  975.540 1712.489 0.000
499 2  1024.734 1125.547 2153.575
500 2  1903.093 624.557 140.521
501 2  2225.107 445.547 1314.977
502 2  3189.164 3521.700 2139.218
503 2  403.729 205.009 851.800
504 2  1354.368 158.478 1478.386
505 2  171.974 644.113 1562.008
506 2  24.707 1255.319 1520.134
507 2  1118.012 446.356 750.773
508 2  524.289 705.598 1007.480
509 2  130.479 1153.224 1182.464
510 2  5000.000 3543.464 4699.514
511 2  747.869 734.157 2117.757
512 2  1683.019 417.892 365.641
513 2  278.092 530.399 1376.010
514 2  2806.637 2795.584 1229.955
515 2  587.899 1224.198 438.392
516 2  1229.426 1288.264 3715.662
517 2  2031.400 141.689 888.012
518 2  2895.218 4090.078 3212.484
519 2  386.318 1311.940 587.603
520 2  3244.472 2930.068 403.773
521 2  1293.293 716.465 319.344
522 2  435.636 2068.443 2618.477
523 2  1122.550 908.486 1525.802
524 2  907.672 5.776 1809.563
525 2  502.215 927.563 804.444
526 2  429.151 163.293 1216.983
527 2  131.821 1055.429 979.076
528 2  0.341 166.265 1738.715
529 2  488.410 408.601 1946.950
530 2  154.807 2580.477 1.159
531 2  425.291 1624.747 472.678
532 2  2394.214 1240.123 2839.977
533 2  965.229 1397.459 356.069
534 2  4993.748 1233.881 171.130
535 2  463.071 593.129 142.677
536 2  827.211 545.887 660.522
537 2  453.674 543.864 1370.034
538 2  3354.954 740.172 1922.977
539 2  1296.828 242.789 240.170
540 2  1064.971 1469.863 1951.154
541 2  16.741 2005.401 795.941
542 2  1558.317 1331.754 364.433
543 2  819.978 0.000 1380.175
544 2  2025.305 1067.110 29.654
545 2  741.551 415.449 554.947
546 2  1910.504 168.760 1451.596
547 2  2250.384 0.000 600.016
548 2  998.652 1355.189 753.203
549 2  1776.340 1399.834 514.720
550 2  1376.111 870.931 1057.047
551 2  399.893 1412.663 1536.673
552 2  2481.314 226.817 1112.254
553 2  289.474 1133.241 1261.244
554 2  7.464 1934.171 1008.617
555 2  129.060 4377.201 3382.105
556 2  1539.890 1325.957 179.524
557 2  2034.734 2148.796 740.298
558 2  68.006 121.363 576.300
559 2  1069.672 4102.289 4353.636
560 2  1184.447 1694.194 43.186
561 2  1662.131 1844.364 2267.939
562 2  1627.488 0.000 1721.232
563 2  238.007 244.961 1331.376
564 2  554.353 983.120 1036.194
565 2  2156.343 1385.741 1451.412
566 2  1632.514 1964.278 1482.905
567 2  0.000 2520.652 858.945
568 2  3774.904 3910.418 1864.314
569 2  1641.249 937.574 401.288
570 2  1573.376 2732.422 353.345
571 2  24.382 903.962 647.697
572 2  509.125 275.874 966.477
573 2  1124.353 4089.684 198.741
574 2  202.188 2018.305 1135.302
575 2  1274.713 253.569 2352.873
576 2  1634.151 422.273 976.072
577 2  951.318 1274.401 609.990
578 2  2914.696 1662.090 1287.879
579 2  3893.294 1664.821 2656.790
580 2  2165.727 686.337 586.336
581 2  1474.933 2889.654 313.232
582 2  782.340 2317.729 2592.784
583 2  2657.845 1384.185 681.630
584 2  545.489 1255.665 607.566
585 2  717.949 641.395 1394.771
586 2  346.440 1760.318 740.511
587 2  280.376 602.279 127.550
588 2  780.399 2106.515 645.761
589 2  336.126 1514.888 1168.634
590 2  2551.518 383.785 1675.470
591 2  293.820 290.370 0.000
592 2  1300.327 706.181 747.828
593 2  1183.774 860.143 512.887
594 2  2285.255 608.070 2308.109
595 2  651.784 550.325 2020.731
596 2  1554.543 1720.933 653.753
597 2  711.728 369.378 146.458
598 2  1190.093 588.374 820.131
599 2  2532.177 4998.848 1312.404
600 2  486.939 0.000 811.830
601 2  159.384 260.873 1775.053
602 2  3540.416 3166.225 1301.189
603 2  340.166 2727.581 617.511
604 2  1359.464 859.985 191.846
605 2  186.605 1682.027 3743.298
606 2  851.457 758.306 687.725
607 2  576.115 1622.513 342.553
608 2  144.378 954.993 485.857
609 2  2527.114 3351.050 0.574
610 2  2966.682 1011.200 503.497
611 2  533.047 1560.497 156.587
612 2  1369.282 1175.308 3026.157
613 2  504.257 334.798 1634.260
614 2  595.719 946.083 369.604
615 2  743.802 1766.308 132.389
616 2  1222.046 1122.678 974.165
617 2  1039.789 0.000 594.431
618 2  1890.669 477.340 55.531
619 2  348.938 1327.759 1144.058
620 2  2206.309 4044.558 432.240
621 2  1370.490 581.045 595.959
622 2  1333.158 1717.169 138.789
623 2  4.350 0.000 445.817
624 2  2286.685 40.809 342.635
625 2  1075.281 1175.670 1816.435
626 2  2306.651 1388.440 1860.805
627 2  199.938 792.220 395.144
628 2  1416.653 2415.525 4993.975
629 2  0.000 1084.400 3010.636
630 2  3792.059 1398.423 1651.339
631 2  791.036 1303.236 1234.611
632 2  1185.819 279.146 849.719
633 2  1008.082 933.612 1121.315
634 2  0.000 1370.565 821.117
635 2  228.129 1607.871 1052.070
636 2  117.893 267.228 2461.865
637 2  600.246 2280.919 687.694
638 2  414.320 37.687 960.847
639 2  3195.148 626.898 3809.168
640 2  1528.910 822.517 609.558
641 2  1552.934 782.628 80.262
642 2  140.784 250.739 222.672
643 2  540.014 3668.391 1225.773
644 2  1069.198 369.886 293.755
645 2  528.596 445.831 1027.060
646 2  392.094 1261.646 4120.477
647 2  1063.464 546.459 248.045
648 2  1401.789 1956.317 24.561
649 2  0.003 1784.184 322.494
650 2  91.789 604.331 1712.976
651 2  1714.642 843.085 755.294
652 2  2006.697 0.000 3087.048
653 2  563.260 1436.253 0.000
654 2  1478.377 287.846 284.275
655 2  5.136 656.961 247.935
656 2  811.936 972.333 1741.303
657 2  801.127 1662.668 3216.088
658 2  615.043 1298.270 2077.103
659 2  736.611 916.214 488.803
660 2  303.757 398.522 1258.665
661 2  787.363 95.150 1959.927
662 2  1904.406 1701.165 158.086
663 2  396.071 4268.069 1208.437
664 2  1317.428 1037.052 411.491
665 2  37.521 2464.796 81.557
666 2  1316.483 462.331 1907.623
667 2  1408.210 1410.345 385.492
668 2  1529.680 1965.666 3981.221
669 2  379.256 2863.387 2222.873
670 2  0.000 410.500 1705.664
671 2  472.934 1392.827 228.529
672 2  242.110 1795.939 27.321
673 2  1682.244 2472.272 2558.606
674 2  299.157 1456.703 864.362
675 2  1175.237 49.224 2205.490
676 2  2240.725 60.361 1.822
677 2  1075.121 20.073 1953.033
678 2  707.753 117.519 53.277
679 2  1331.346 1239.085 451.653
680 2  1286.178 887.129 670.187
681 2  1905.475 773.590 312.085
682 2  1207.651 14.661 630.682
683 2  698.953 902.057 1540.945
684 2  1538.674 1178.661 3610.544
685 2  1302.994 0.000 5000.000
686 2  1598.830 332.681 16.085
687 2  1385.203 974.816 2070.176
688 2  365.664 696.523 1280.688
689 2  607.614 1670.908 736.858
690 2  1465.333 1118.979 912.026
691 2  308.840 791.665 1602.549
692 2  998.709 821.582 153.875
693 2  248.522 1202.339 1629.698
694 2  176.542 1555.205 1730.393
695 2  2551.514 0.000 795.507
696 2  786.793 1673.518 815.464
697 2  3123.304 5000.000 1221.108
698 2  278.487 1176.969 1085.337
699 2  1214.980 543.501 425.400
700 2  224.138 1361.191 574.340
701 2  653.997 1295.101 1031.175
702 2  2340.959 688.199 1343.064
703 2  263.426 1026.926 2014.904
704 2  754.535 414.550 815.508
705 2  726.456 682.559 1229.549
706 2  773.666 3524.560 739.999
707 2  788.265 644.514 1719.593
708 2  0.000 1295.949 3533.150
709 2  2819.739 1943.882 0.000
710 2  0.378 1292.412 24.473
711 2  3635.204 1648.682 2452.069
712 2  1665.721 4893.889 139.241
713 2  515.697 3960.250 3390.325
714 2  854.336 693.152 1982.113
715 2  4113.870 4984.789 4520.006
716 2  979.930 725.609 1814.290
717 2  348.827 0.000 302.774
718 2  345.279 966.486 1573.894
719 2  924.666 731.253 1223.979
720 2  596.210 2335.048 901.611
721 2  1268.426 378.051 963.941
722 2  563.482 1771.739 456.179
723 2  2214.097 1924.535 44.999
724 2  1389.103 1416.096 142.318
725 2  2171.218 2251.737 1659.928
726 2  1097.679 2259.823 0.000
727 2  4295.833 0.000 1908.907
728 2  2377.035 973.670 194.662
729 2  269.392 0.000 627.578
730 2  62.355 0.000 2226.213
731 2  1538.598 600.866 1781.722
732 2  2322.125 240.097 934.624
733 2  3181.680 4033.172 4038.588
734 2  278.533 293.161 1899.652
735 2  140.795 1038.533 161.684
736 2  382.199 1508.886 1003.348
737 2  707.141 258.947 402.887
738 2  1617.121 2045.396 1651.973
739 2  1093.333 743.802 2002.903
740 2  558.615 3797.405 3530.528
741 2  985.457 2905.331 973.014
742 2  2035.062 318.606 119.433
743 2  354.035 1063.714 1402.357
744 2  12.783 436.650 628.388
745 2  1155.483 1751.351 822.856
746 2  678.570 1469.876 120.303
747 2  1644.872 221.261 325.524
748 2  10.325 66.595 879.499
749 2  983.126 509.344 45.677
750 2  527.957 695.291 1348.677
751 2  1973.854 604.438 1987.677
752 2  1287.035 415.267 764.862
753 2  2074.757 1537.836 0.000
754 2  0.000 416.143 1481.159
755 2  650.309 823.197 931.423
756 2  778.253 673.872 285.793
757 2  1036.519 900.529 0.000
758 2  39.942 157.496 1943.932
759 2  235.490 576.758 775.168
760 2  1930.779 1836.309 2334.985
761 2  285.989 1169.598 54.068
762 2  1522.836 895.501 285.292
763 2  1463.288 1319.763 14.599
764 2  275.091 2417.054 2149.249
765 2  202.736 1812.784 623.783
766 2  128.452 1466.908 908.224
767 2  807.440 831.396 866.946
768 2  265.558 1108.390 3058.134
769 2  0.000 2033.377 1215.516
770 2  841.011 287.432 640.120
771 2  582.480 1111.384 905.670
772 2  405.255 1764.993 577.475
773 2  1540.322 1314.920 1548.637
774 2  2776.951 2955.991 690.730
775 2  706.939 2221.861 35.278
776 2  787.361 549.161 460.361
777 2  1196.934 1376.856 0.936
778 2  2253.676 457.037 731.167
779 2  2722.729 0.000 699.544
780 2  0.000 215.787 718.138
781 2  0.000 2212.837 216.184
782 2  1499.274 682.670 270.352
783 2  233.210 1315.204 978.217
784 2  593.780 47.351 290.601
785 2  2016.626 1466.780 3435.901
786 2  401.671 867.698 1018.618
787 2  570.135 776.500 675.827
788 2  2954.404 3021.433 696.034
789 2  1993.295 17.429 246.938
790 2  2256.549 159.649 782.882
791 2  3846.681 2585.344 122.569
792 2  4808.684 668.607 3388.869
793 2  431.681 467.679 24.305
794 2  2691.659 2965.680 2592.295
795 2  868.388 627.296 2897.883
796 2  696.099 660.935 672.197
797 2  970.219 637.823 661.463
798 2  4987.347 626.971 1040.364
799 2  1042.808 696.474 407.526
800 2  345.264 821.020 293.015
801 2  759.559 474.512 1739.194
802 2  177.249 952.086 304.681
803 2  2510.519 717.458 397.412
804 2  1336.562 2696.671 0.000
805 2  1856.812 691.261 1531.329
806 2  1495.148 435.103 1283.508
807 2  0.000 1469.230 31.007
808 2  3080.503 3086.196 510.943
809 2  1945.700 1088.959 4479.760
810 2  1564.620 2225.489 3977.627
811 2  1179.591 53.390 1590.405
812 2  2270.777 710.479 156.903
813 2  13.780 1175.123 846.131
814 2  1577.759 1200.630 71.039
815 2  1094.348 32.292 18.254
816 2  655.981 629.340 835.292
817 2  1682.296 15.934 782.068
818 2  0.003 1.312 1779.850
819 2  4999.603 1532.913 3.049
820 2  234.747 49.812 1116.181
821 2  303.984 17.524 12.890
822 2  1118.072 1648.657 5000.000
823 2  500.193 616.203 703.926
824 2  2382.203 2267.822 145.437
825 2  850.605 883.151 1969.351
826 2  517.998 848.242 1248.257
827 2  2610.450 347.314 0.000
828 2  2389.967 560.272 2043.026
829 2  232.349 1638.517 689.396
830 2  221.792 3801.833 1147.491
831 2  2993.177 1370.991 240.602
832 2  367.031 917.298 1177.845
833 2  512.419 421.063 1263.579
834 2  1810.364 0.000 187.133
835 2  3031.162 637.154 1584.624
836 2  456.752 519.684 865.963
837 2  383.201 111.366 706.174
838 2  2789.518 4187.583 2715.747
839 2  2433.214 681.503 210.433
840 2  677.673 1375.460 2352.055
841 2  983.241 0.000 1566.462
842 2  550.242 186.170 396.609
843 2  32.628 293.016 0.000
844 2  3872.158 312.334 3728.643
845 2  1275.887 2113.135 2051.763
846 2  1111.262 713.099 249.598
847 2  138.839 438.470 1269.063
848 2  3392.447 3138.851 616.801
849 2  961.114 1183.255 98.036
850 2  393.529 795.758 1750.052
851 2  818.496 347.148 1226.325
852 2  1084.789 758.027 741.486
853 2  731.304 618.682 0.194
854 2  481.161 725.008 1596.973
855 2  1614.364 344.904 570.444
856 2  500.754 0.000 2253.905
857 2  2575.581 202.391 672.220
858 2  1618.470 605.592 0.000
859 2  470.388 1182.821 306.641
860 2  57.758 239.963 1595.627
861 2  517.210 1521.212 577.235
862 2  17.634 934.022 937.761
863 2  38.767 1220.488 276.251
864 2  295.345 453.694 504.368
865 2  1162.570 1861.000 0.000
866 2  1801.521 4427.051 1942.345
867 2  479.585 1325.519 884.799
868 2  2624.368 1653.686 0.000
869 2  774.378 1707.486 1045.027
870 2  1491.961 460.195 464.959
871 2  1886.206 7.043 608.715
872 2  2611.315 0.000 551.650
873 2  22.960 1313.060 641.682
874 2  431.221 389.019 1788.056
875 2  1074.896 736.070 19.504
876 2  509.977 1388.509 1052.019
877 2  1934.688 2363.395 2728.609
878 2  962.349 3012.815 1708.020
879 2  797.902 1859.122 0.299
880 2  1279.308 1059.547 175.840
881 2  565.533 272.811 0.022
882 2  0.000 73.276 3117.502
883 2  503.343 702.577 327.709
884 2  342.639 340.350 1098.268
885 2  263.609 1363.016 8.239
886 2  1452.383 23.163 338.009
887 2  52.887 1576.909 455.385
888 2  4999.999 1480.386 3467.914
889 2  2121.766 1265.210 728.459
890 2  1075.111 1849.738 162.010
891 2  1129.848 182.024 335.490
892 2  1212.993 517.824 2039.816
893 2  2937.401 4973.530 0.000
894 2  1845.882 2423.439 3801.442
895 2  371.428 894.751 48.053
896 2  766.037 131.082 583.982
897 2  248.272 0.000 2161.782
898 2  1587.790 3069.639 1879.292
899 2  174.865 3028.754 0.000
900 2  1501.868 0.000 942.325
901 2  925.790 964.702 2273.310
902 2  0.000 1440.673 3903.922
903 2  1696.834 657.178 561.301
904 2  522.701 316.807 527.189
905 2  342.617 4.865 1641.690
906 2  1164.852 481.799 125.306
907 2  2214.822 2880.855 1315.200
908 2  1209.081 602.301 647.622
909 2  304.445 881.397 878.175
910 2  404.750 625.227 517.072
911 2  262.443 752.976 1443.259
912 2  1265.985 1459.739 265.993
913 2  139.966 332.646 673.897
914 2  492.385 926.492 588.094
915 2  3292.097 1005.528 2441.367
916 2  1051.802 1532.759 1286.653
917 2  0.000 4998.028 2388.196
918 2  510.380 759.501 517.241
919 2  1034.919 0.000 1144.048
920 2  673.402 2553.716 1758.136
921 2  352.040 549.460 1196.417
922 2  1785.043 5000.000 932.585
923 2  855.877 67.202 1033.503
924 2  1678.502 0.474 577.803
925 2  493.096 1053.283 2261.511
926 2  241.537 181.120 1602.090
927 2  828.126 431.246 1517.773
928 2  0.000 1945.752 557.705
929 2  1025.625 349.978 1347.343
930 2  1709.618 1640.943 1461.711
931 2  2800.759 2362.741 297.988
932 2  1829.023 311.774 634.933
933 2  143.532 637.980 1927.152
934 2  89.049 1156.982 658.832
935 2  824.704 1400.725 213.905
936 2  650.201 305.532 1241.626