LAMMPS (23 Jun 2022 - Update 1)
OMP_NUM_THREADS environment is not set. Defaulting to 1 thread. (src/comm.cpp:98)
  using 1 OpenMP thread(s) per MPI task
# Read restart
read_restart ${read_res}
read_restart ./pgnpmf/01000/equpmf121.res
Reading restart file ...
  restart file = 23 Jun 2022, LAMMPS = 23 Jun 2022
  restoring atom style atomic from restart
  orthogonal box = (2105.4224 2105.4224 2105.4224) to (2894.5776 2894.5776 2894.5776)
  1 by 1 by 1 MPI processor grid
  restoring pair style table from restart
  1000 atoms
  read_restart CPU = 0.010 seconds

# Settings

pair_style table spline 9941

pair_coeff 1 1 ./pgnpmf/N20.txt DE_GNP 75.6
pair_coeff 2 2 ./pgnpmf/N100.txt DE_GNP 115.92
WARNING: 3 of 9941 force values in table DE_GNP are inconsistent with -dE/dr.
WARNING:  Should only be flagged at inflection points (src/pair_table.cpp:463)
pair_coeff 1 2 ./pgnpmf/mixed_potential.txt DE_GNP 95.66
WARNING: 1562 of 9941 force values in table DE_GNP are inconsistent with -dE/dr.
WARNING:  Should only be flagged at inflection points (src/pair_table.cpp:463)

#Neigh_list Calc Frequency

neigh_modify delay 0 every 1 check yes

# Saving Frequency (50 frames)

variable ts_save equal ${steps_equ}
variable ts_save equal 5000

# Dump
#dump 1 all custom ${ts_save} ./pgnpmf/${folder}/equilibration/trajectory/trajectory_${usic}_${trial}.equ.custom type x y z ix iy iz
#dump_modify 1 first no sort id
#dump 2 all cfg 50000 ./equilibration/trajectory/ovito/dumpgen.tens_*.cfg mass type xs ys zs fx fy fz

# thermo_style
thermo_style custom step temp press pe density ke etotal lx ly lz xlo xhi ylo yhi zlo zhi vol dt time cpu tpcpu spcpu cpuremain

# run info
timestep ${ts}
timestep 0.1
thermo 200

# fix

fix 1 all momentum 1000 linear 1 1 1 angular
variable T equal ${temp}
variable T equal 300
fix 2 all nvt temp ${T} 370000 100.0
fix 2 all nvt temp 300 370000 100.0

run 100000
Generated 0 of 1 mixed pair_coeff terms from geometric mixing rule
Unused restart file global fix info:
  fix style: npt, fix ID: 5
Neighbor list info ...
  update every 1 steps, delay 0 steps, check yes
  max neighbors/atom: 2000, page size: 100000
  master list distance cutoff = 117.92
  ghost atom cutoff = 117.92
  binsize = 58.96, bins = 14 14 14
  1 neighbor lists, perpetual/occasional/extra = 1 0 0
  (1) pair table, perpetual
      attributes: half, newton on
      pair build: half/bin/atomonly/newton
      stencil: half/bin/3d
      bin: standard
Per MPI rank memory allocation (min/avg/max) = 3.118 | 3.118 | 3.118 Mbytes
   Step          Temp          Press          PotEng        Density         KinEng         TotEng           Lx             Ly             Lz            Xlo            Xhi            Ylo            Yhi            Zlo            Zhi           Volume           Dt            Time           CPU           T/CPU          S/CPU         CPULeft    
  84705000   305.7335      -0.20781613    -59118311       1.4260239      910.42217     -59117401       789.15516      789.15516      789.15516      2105.4224      2894.5776      2105.4224      2894.5776      2105.4224      2894.5776      4.914589e+08   0.1            21635000       0              0              0              0            
  84705200   334.66433     -0.2995705     -59118383       1.4260239      996.57322     -59117386       789.15516      789.15516      789.15516      2105.4224      2894.5776      2105.4224      2894.5776      2105.4224      2894.5776      4.914589e+08   0.1            21635020       0.027068786    738.84173      7388.2167      13.508315    
  84705400   377.34938     -0.39309489    -59118459       1.4260239      1123.682      -59117335       789.15516      789.15516      789.15516      2105.4224      2894.5776      2105.4224      2894.5776      2105.4224      2894.5776      4.914589e+08   0.1            21635040       0.053791835    748.42135      7484.228       13.394609    
  84705600   423.67116     -0.4920281     -59118539       1.4260239      1261.6204     -59117277       789.15516      789.15516      789.15516      2105.4224      2894.5776      2105.4224      2894.5776      2105.4224      2894.5776      4.914589e+08   0.1            21635060       0.080864011    738.76755      7387.6962      13.396737    
  84705800   479.79376     -0.59507317    -59118624       1.4260239      1428.7439     -59117196       789.15516      789.15516      789.15516      2105.4224      2894.5776      2105.4224      2894.5776      2105.4224      2894.5776      4.914589e+08   0.1            21635080       0.10750079     750.84139      7508.4162      13.330294    
  84706000   545.30456     -0.70313492    -59118715       1.4260239      1623.8239     -59117091       789.15516      789.15516      789.15516      2105.4224      2894.5776      2105.4224      2894.5776      2105.4224      2894.5776      4.914589e+08   0.1            21635100       0.13440578     743.35689      7433.5595      13.306332    
  84706200   620.55582     -0.81658344    -59118812       1.4260239      1847.9093     -59116964       789.15516      789.15516      789.15516      2105.4224      2894.5776      2105.4224      2894.5776      2105.4224      2894.5776      4.914589e+08   0.1            21635120       0.16124264     745.24472      7452.4542      13.275773    
  84706400   706.60073     -0.93566883    -59118915       1.4260239      2104.1363     -59116811       789.15516      789.15516      789.15516      2105.4224      2894.5776      2105.4224      2894.5776      2105.4224      2894.5776      4.914589e+08   0.1            21635140       0.18824756     740.60653      7406.0732      13.258114    
  84706600   804.62931     -1.0604558     -59119025       1.4260239      2396.0487     -59116629       789.15516      789.15516      789.15516      2105.4224      2894.5776      2105.4224      2894.5776      2105.4224      2894.5776      4.914589e+08   0.1            21635160       0.21505214     746.1405       7461.3828      13.225807    
  84706800   916.03235     -1.1908714     -59119143       1.4260239      2727.7879     -59116415       789.15516      789.15516      789.15516      2105.4224      2894.5776      2105.4224      2894.5776      2105.4224      2894.5776      4.914589e+08   0.1            21635180       0.24191183     744.6107       7446.1198      13.197718    
  84707000   1042.2944     -1.3267309     -59119268       1.4260239      3103.7747     -59116164       789.15516      789.15516      789.15516      2105.4224      2894.5776      2105.4224      2894.5776      2105.4224      2894.5776      4.914589e+08   0.1            21635200       0.26889127     741.30347      7413.0268      13.175755    
  84707200   1185.3481     -1.4675619     -59119401       1.4260239      3529.7643     -59115871       789.15516      789.15516      789.15516      2105.4224      2894.5776      2105.4224      2894.5776      2105.4224      2894.5776      4.914589e+08   0.1            21635220       0.29587043     741.31411      7413.135       13.152858    
  84707400   1347.1324     -1.6129059     -59119543       1.4260239      4011.5304     -59115531       789.15516      789.15516      789.15516      2105.4224      2894.5776      2105.4224      2894.5776      2105.4224      2894.5776      4.914589e+08   0.1            21635240       0.3226719      746.22686      7462.2695      13.122059    
  84707600   1529.8717     -1.7619905     -59119694       1.4260239      4555.6966     -59115138       789.15516      789.15516      789.15516      2105.4224      2894.5776      2105.4224      2894.5776      2105.4224      2894.5776      4.914589e+08   0.1            21635260       0.34943247     747.36919      7473.6944      13.090339    
  84707800   1736.0354     -1.9138922     -59119855       1.4260239      5169.617      -59114685       789.15516      789.15516      789.15516      2105.4224      2894.5776      2105.4224      2894.5776      2105.4224      2894.5776      4.914589e+08   0.1            21635280       0.3764502      740.25398      7402.5568      13.068254    
  84708000   1968.2546     -2.0674957     -59120026       1.4260239      5861.1262     -59114165       789.15516      789.15516      789.15516      2105.4224      2894.5776      2105.4224      2894.5776      2105.4224      2894.5776      4.914589e+08   0.1            21635300       0.403061       751.5724       7515.7178      13.03236     
  84708200   2229.6932     -2.2211977     -59120207       1.4260239      6639.6457     -59113568       789.15516      789.15516      789.15516      2105.4224      2894.5776      2105.4224      2894.5776      2105.4224      2894.5776      4.914589e+08   0.1            21635320       0.43157569     701.39535      7013.9458      13.055213    
  84708400   2523.5963     -2.373358      -59120401       1.4260239      7514.8389     -59112886       789.15516      789.15516      789.15516      2105.4224      2894.5776      2105.4224      2894.5776      2105.4224      2894.5776      4.914589e+08   0.1            21635340       0.45842213     744.97598      7449.759       13.024631    
  84708600   2853.5729     -2.5221858     -59120606       1.4260239      8497.4527     -59112108       789.15516      789.15516      789.15516      2105.4224      2894.5776      2105.4224      2894.5776      2105.4224      2894.5776      4.914589e+08   0.1            21635360       0.48547926     739.17667      7391.7719      13.0001      
  84708800   3223.5459     -2.6658429     -59120824       1.4260239      9599.1692     -59111225       789.15516      789.15516      789.15516      2105.4224      2894.5776      2105.4224      2894.5776      2105.4224      2894.5776      4.914589e+08   0.1            21635380       0.51464832     685.65501      6856.5146      13.028779    
  84709000   3637.6696     -3.0763872     -59128433       1.4260239      10832.359     -59117600       789.15516      789.15516      789.15516      2105.4224      2894.5776      2105.4224      2894.5776      2105.4224      2894.5776      4.914589e+08   0.1            21635400       0.54228124     723.77806      7237.8115      13.01479     
  84709200   4100.6499     -3.2049828     -59128678       1.4260239      12211.035     -59116467       789.15516      789.15516      789.15516      2105.4224      2894.5776      2105.4224      2894.5776      2105.4224      2894.5776      4.914589e+08   0.1            21635420       0.57041729     710.83118      7108.3102      13.010987    
  84709400   4617.2611     -3.3244526     -59128938       1.4260239      13749.415     -59115188       789.15516      789.15516      789.15516      2105.4224      2894.5776      2105.4224      2894.5776      2105.4224      2894.5776      4.914589e+08   0.1            21635440       0.59740581     741.0575       7410.575       12.980035    
  84709600   5192.6119     -3.4340311     -59129213       1.4260239      15462.711     -59113750       789.15516      789.15516      789.15516      2105.4224      2894.5776      2105.4224      2894.5776      2105.4224      2894.5776      4.914589e+08   0.1            21635460       0.62447126     738.94994      7389.5106      12.951024    
  84709800   5832.0283     -3.5334482     -59129504       1.4260239      17366.784     -59112137       789.15516      789.15516      789.15516      2105.4224      2894.5776      2105.4224      2894.5776      2105.4224      2894.5776      4.914589e+08   0.1            21635480       0.65124187     747.08783      7470.8811      12.916329    
  84710000   6540.8778     -3.6230373     -59129811       1.4260239      19477.617     -59110334       789.15516      789.15516      789.15516      2105.4224      2894.5776      2105.4224      2894.5776      2105.4224      2894.5776      4.914589e+08   0.1            21635500       0.67825432     740.40035      7404.0073      12.88686     
  84710200   7324.8522     -3.7041183     -59130136       1.4260239      21812.159     -59108324       789.15516      789.15516      789.15516      2105.4224      2894.5776      2105.4224      2894.5776      2105.4224      2894.5776      4.914589e+08   0.1            21635520       0.70674479     701.9874       7019.8459      12.884534    
  84710400   8189.3446     -3.7807123     -59130479       1.4260239      24386.47      -59106093       789.15516      789.15516      789.15516      2105.4224      2894.5776      2105.4224      2894.5776      2105.4224      2894.5776      4.914589e+08   0.1            21635540       0.73574164     689.73097      6897.3285      12.889138    
  84710600   9139.5772     -3.8582162     -59130841       1.4260239      27216.1       -59103625       789.15516      789.15516      789.15516      2105.4224      2894.5776      2105.4224      2894.5776      2105.4224      2894.5776      4.914589e+08   0.1            21635560       0.76488011     686.37588      6863.7308      12.893724    
  84710800   10180.341     -3.9429988     -59131222       1.4260239      30315.318     -59100907       789.15516      789.15516      789.15516      2105.4224      2894.5776      2105.4224      2894.5776      2105.4224      2894.5776      4.914589e+08   0.1            21635580       0.79424553     681.07473      6810.7712      12.899671    
  84711000   11315.643     -4.0412274     -59131623       1.4260239      33696.051     -59097927       789.15516      789.15516      789.15516      2105.4224      2894.5776      2105.4224      2894.5776      2105.4224      2894.5776      4.914589e+08   0.1            21635600       0.82324759     689.60571      6896.0569      12.897572    
  84711200   12548.791     -4.1570371     -59132043       1.4260239      37368.158     -59094675       789.15516      789.15516      789.15516      2105.4224      2894.5776      2105.4224      2894.5776      2105.4224      2894.5776      4.914589e+08   0.1            21635620       0.85234089     687.44104      6874.3906      12.895121    
  84711400   13881.541     -4.2905648     -59132485       1.4260239      41336.858     -59091148       789.15516      789.15516      789.15516      2105.4224      2894.5776      2105.4224      2894.5776      2105.4224      2894.5776      4.914589e+08   0.1            21635640       0.88128067     691.09377      6910.9403      12.888755    
  84711600   15313.97      -4.438852      -59132948       1.4260239      45602.387     -59087346       789.15516      789.15516      789.15516      2105.4224      2894.5776      2105.4224      2894.5776      2105.4224      2894.5776      4.914589e+08   0.1            21635660       0.91022158     691.06287      6910.648       12.881038    
  84711800   16843.966     -4.5969544     -59133433       1.4260239      50158.453     -59083274       789.15516      789.15516      789.15516      2105.4224      2894.5776      2105.4224      2894.5776      2105.4224      2894.5776      4.914589e+08   0.1            21635680       0.93915499     691.2425       6912.4145      12.871971    
  84712000   18466.622     -4.7593565     -59133938       1.4260239      54990.448     -59078948       789.15516      789.15516      789.15516      2105.4224      2894.5776      2105.4224      2894.5776      2105.4224      2894.5776      4.914589e+08   0.1            21635700       0.96828488     686.57581      6865.7635      12.864381    
  84712200   20174.173     -5.1994349     -59141843       1.4260239      60075.241     -59081768       789.15516      789.15516      789.15516      2105.4224      2894.5776      2105.4224      2894.5776      2105.4224      2894.5776      4.914589e+08   0.1            21635720       0.9972373      690.79016      6907.9028      12.853304    
  84712400   21954.914     -5.3781776     -59142391       1.4260239      65377.986     -59077013       789.15516      789.15516      789.15516      2105.4224      2894.5776      2105.4224      2894.5776      2105.4224      2894.5776      4.914589e+08   0.1            21635740       1.0261815      690.98818      6909.8826      12.841156    
  84712600   23793.049     -5.5912908     -59142959       1.4260239      70851.638     -59072107       789.15516      789.15516      789.15516      2105.4224      2894.5776      2105.4224      2894.5776      2105.4224      2894.5776      4.914589e+08   0.1            21635760       1.0552948      686.9686       6869.6735      12.830185    
  84712800   25668.322     -6.1431642     -59150925       1.4260239      76435.879     -59074489       789.15516      789.15516      789.15516      2105.4224      2894.5776      2105.4224      2894.5776      2105.4224      2894.5776      4.914589e+08   0.1            21635780       1.0842643      690.38012      6903.821       12.816581    
  84713000   27555.645     -6.5023855     -59151532       1.4260239      82056.005     -59069476       789.15516      789.15516      789.15516      2105.4224      2894.5776      2105.4224      2894.5776      2105.4224      2894.5776      4.914589e+08   0.1            21635800       1.1133048      688.6929       6886.9146      12.803027    
  84713200   29425.206     -6.917854      -59152157       1.4260239      87623.239     -59064534       789.15516      789.15516      789.15516      2105.4224      2894.5776      2105.4224      2894.5776      2105.4224      2894.5776      4.914589e+08   0.1            21635820       1.1422791      690.27056      6902.7237      12.787972    
  84713400   31242.367     -7.3398875     -59152800       1.4260239      93034.435     -59059766       789.15516      789.15516      789.15516      2105.4224      2894.5776      2105.4224      2894.5776      2105.4224      2894.5776      4.914589e+08   0.1            21635840       1.1713642      687.63592      6876.3294      12.773467    
  84713600   32968.558     -7.6993741     -59153459       1.4260239      98174.736     -59055284       789.15516      789.15516      789.15516      2105.4224      2894.5776      2105.4224      2894.5776      2105.4224      2894.5776      4.914589e+08   0.1            21635860       1.2003367      690.30959      6903.1054      12.757085    
  84713800   34562.601     -7.9563015     -59154131       1.4260239      102921.52     -59051209       789.15516      789.15516      789.15516      2105.4224      2894.5776      2105.4224      2894.5776      2105.4224      2894.5776      4.914589e+08   0.1            21635880       1.2292766      691.08933      6910.9019      12.739793    
  84714000   35982.901     -8.1454725     -59154814       1.4260239      107150.93     -59047663       789.15516      789.15516      789.15516      2105.4224      2894.5776      2105.4224      2894.5776      2105.4224      2894.5776      4.914589e+08   0.1            21635900       1.2584477      685.6088       6856.0857      12.724322    
  84714200   37191.181     -8.3565583     -59155505       1.4260239      110748.99     -59044756       789.15516      789.15516      789.15516      2105.4224      2894.5776      2105.4224      2894.5776      2105.4224      2894.5776      4.914589e+08   0.1            21635920       1.2873908      691.01213      6910.1313      12.706003    
  84714400   38156.487     -8.6479034     -59156202       1.4260239      113623.5      -59042578       789.15516      789.15516      789.15516      2105.4224      2894.5776      2105.4224      2894.5776      2105.4224      2894.5776      4.914589e+08   0.1            21635940       1.3163252      691.22036      6912.199       12.68715     
  84714600   38860.938     -9.298491      -59164280       1.4260239      115721.24     -59048559       789.15516      789.15516      789.15516      2105.4224      2894.5776      2105.4224      2894.5776      2105.4224      2894.5776      4.914589e+08   0.1            21635960       1.3454685      686.26288      6862.6236      12.669844    
  84714800   39305.265     -9.7443481     -59164980       1.4260239      117044.37     -59047936       789.15516      789.15516      789.15516      2105.4224      2894.5776      2105.4224      2894.5776      2105.4224      2894.5776      4.914589e+08   0.1            21635980       1.3744024      691.2307       6912.3075      12.650127    
  84715000   39512.703     -10.238377     -59165677       1.4260239      117662.08     -59048015       789.15516      789.15516      789.15516      2105.4224      2894.5776      2105.4224      2894.5776      2105.4224      2894.5776      4.914589e+08   0.1            21636000       1.4033808      690.16844      6901.6771      12.630443    
  84715200   39529.506     -10.771795     -59166369       1.4260239      117712.12     -59048657       789.15516      789.15516      789.15516      2105.4224      2894.5776      2105.4224      2894.5776      2105.4224      2894.5776      4.914589e+08   0.1            21636020       1.4322954      691.6934       6916.9369      12.609831    
  84715400   39419.38      -11.370138     -59167055       1.4260239      117384.18     -59049671       789.15516      789.15516      789.15516      2105.4224      2894.5776      2105.4224      2894.5776      2105.4224      2894.5776      4.914589e+08   0.1            21636040       1.4613985      687.21029      6872.11        12.590526    
  84715600   39255.2       -12.311874     -59175115       1.4260239      116895.28     -59058220       789.15516      789.15516      789.15516      2105.4224      2894.5776      2105.4224      2894.5776      2105.4224      2894.5776      4.914589e+08   0.1            21636060       1.4903376      691.10561      6911.0568      12.569466    
  84715800   39110.04      -12.994988     -59175792       1.4260239      116463.02     -59059329       789.15516      789.15516      789.15516      2105.4224      2894.5776      2105.4224      2894.5776      2105.4224      2894.5776      4.914589e+08   0.1            21636080       1.5192778      691.08262      6910.8219      12.548123    
  84716000   39050.746     -13.911016     -59183842       1.4260239      116286.45     -59067556       789.15516      789.15516      789.15516      2105.4224      2894.5776      2105.4224      2894.5776      2105.4224      2894.5776      4.914589e+08   0.1            21636100       1.5491988      668.42172      6684.1957      12.534443    
  84716200   39135.13      -14.480497     -59184509       1.4260239      116537.74     -59067972       789.15516      789.15516      789.15516      2105.4224      2894.5776      2105.4224      2894.5776      2105.4224      2894.5776      4.914589e+08   0.1            21636120       1.5781628      690.51694      6905.1937      12.51259     
  84716400   39410.113     -14.949111     -59185173       1.4260239      117356.59     -59067817       789.15516      789.15516      789.15516      2105.4224      2894.5776      2105.4224      2894.5776      2105.4224      2894.5776      4.914589e+08   0.1            21636140       1.6071048      691.03911      6910.4011      12.490318    
  84716600   39910.714     -15.567602     -59193213       1.4260239      118847.29     -59074365       789.15516      789.15516      789.15516      2105.4224      2894.5776      2105.4224      2894.5776      2105.4224      2894.5776      4.914589e+08   0.1            21636160       1.6360675      690.53601      6905.363       12.467977    
  84716800   40657.432     -15.804356     -59193874       1.4260239      121070.89     -59072803       789.15516      789.15516      789.15516      2105.4224      2894.5776      2105.4224      2894.5776      2105.4224      2894.5776      4.914589e+08   0.1            21636180       1.6651598      687.47214      6874.7094      12.446377    
  84717000   41652.536     -15.967885     -59194538       1.4260239      124034.14     -59070504       789.15516      789.15516      789.15516      2105.4224      2894.5776      2105.4224      2894.5776      2105.4224      2894.5776      4.914589e+08   0.1            21636200       1.6941525      689.83022      6898.3027      12.423797    
  84717200   42877.756     -15.5743       -59180450       1.4260239      127682.64     -59052768       789.15516      789.15516      789.15516      2105.4224      2894.5776      2105.4224      2894.5776      2105.4224      2894.5776      4.914589e+08   0.1            21636220       1.7231112      690.6401       6906.3888      12.400763    
  84717400   44294.129     -15.779849     -59181125       1.4260239      131900.35     -59049224       789.15516      789.15516      789.15516      2105.4224      2894.5776      2105.4224      2894.5776      2105.4224      2894.5776      4.914589e+08   0.1            21636240       1.7522114      687.27008      6872.7119      12.37854     
  84717600   45845.936     -16.026532     -59181805       1.4260239      136521.37     -59045283       789.15516      789.15516      789.15516      2105.4224      2894.5776      2105.4224      2894.5776      2105.4224      2894.5776      4.914589e+08   0.1            21636260       1.7811519      691.08037      6910.8102      12.354986    
  84717800   47467.902     -15.980104     -59175113       1.4260239      141351.31     -59033762       789.15516      789.15516      789.15516      2105.4224      2894.5776      2105.4224      2894.5776      2105.4224      2894.5776      4.914589e+08   0.1            21636280       1.8101632      689.38636      6893.8591      12.331748    
  84718000   49091.202     -15.878294     -59168428       1.4260239      146185.22     -59022243       789.15516      789.15516      789.15516      2105.4224      2894.5776      2105.4224      2894.5776      2105.4224      2894.5776      4.914589e+08   0.1            21636300       1.8391204      690.67721      6906.7749      12.30797     
  84718200   50649.03      -15.738206     -59161748       1.4260239      150824.16     -59010924       789.15516      789.15516      789.15516      2105.4224      2894.5776      2105.4224      2894.5776      2105.4224      2894.5776      4.914589e+08   0.1            21636320       1.8682231      687.21874      6872.1648      12.284994    
  84718400   52079.104     -16.167118     -59169828       1.4260239      155082.68     -59014745       789.15516      789.15516      789.15516      2105.4224      2894.5776      2105.4224      2894.5776      2105.4224      2894.5776      4.914589e+08   0.1            21636340       1.8972113      689.93655      6899.35        12.261094    
  84718600   53327.898     -16.40607      -59170531       1.4260239      158801.37     -59011730       789.15516      789.15516      789.15516      2105.4224      2894.5776      2105.4224      2894.5776      2105.4224      2894.5776      4.914589e+08   0.1            21636360       1.9261628      690.81309      6908.1706      12.236809    
  84718800   54353.832     -16.745        -59171235       1.4260239      161856.43     -59009379       789.15516      789.15516      789.15516      2105.4224      2894.5776      2105.4224      2894.5776      2105.4224      2894.5776      4.914589e+08   0.1            21636380       1.9552612      687.32117      6873.2025      12.213309    
  84719000   55131.07      -17.17024      -59171938       1.4260239      164170.91     -59007767       789.15516      789.15516      789.15516      2105.4224      2894.5776      2105.4224      2894.5776      2105.4224      2894.5776      4.914589e+08   0.1            21636400       1.9842601      689.68071      6896.8145      12.189037    
  84719200   55653.832     -17.950937     -59180015       1.4260239      165727.61     -59014287       789.15516      789.15516      789.15516      2105.4224      2894.5776      2105.4224      2894.5776      2105.4224      2894.5776      4.914589e+08   0.1            21636420       2.0132279      690.42328      6904.2218      12.164444    
  84719400   55937.813     -18.525352     -59180710       1.4260239      166573.25     -59014137       789.15516      789.15516      789.15516      2105.4224      2894.5776      2105.4224      2894.5776      2105.4224      2894.5776      4.914589e+08   0.1            21636440       2.0421926      690.49627      6904.9715      12.13971     
  84719600   56020.502     -18.836235     -59174022       1.4260239      166819.49     -59007202       789.15516      789.15516      789.15516      2105.4224      2894.5776      2105.4224      2894.5776      2105.4224      2894.5776      4.914589e+08   0.1            21636460       2.0712211      688.97508      6889.6383      12.115238    
  84719800   55957.358     -19.643465     -59182082       1.4260239      166631.46     -59015450       789.15516      789.15516      789.15516      2105.4224      2894.5776      2105.4224      2894.5776      2105.4224      2894.5776      4.914589e+08   0.1            21636480       2.0997313      701.50406      7015.17        12.087654    
  84720000   55815.759     -19.857548     -59175378       1.4260239      166209.8      -59009168       789.15516      789.15516      789.15516      2105.4224      2894.5776      2105.4224      2894.5776      2105.4224      2894.5776      4.914589e+08   0.1            21636500       2.1275408      719.18144      7191.8115      12.056073    
  84720200   55667.878     -20.359127     -59176045       1.4260239      165769.43     -59010276       789.15516      789.15516      789.15516      2105.4224      2894.5776      2105.4224      2894.5776      2105.4224      2894.5776      4.914589e+08   0.1            21636520       2.1547366      735.40508      7354.0635      12.021171    
  84720400   55582.483     -20.8936       -59176705       1.4260239      165515.14     -59011190       789.15516      789.15516      789.15516      2105.4224      2894.5776      2105.4224      2894.5776      2105.4224      2894.5776      4.914589e+08   0.1            21636540       2.1815528      745.82033      7458.1963      11.984383    
  84720600   55621.739     -21.420947     -59177356       1.4260239      165632.04     -59011724       789.15516      789.15516      789.15516      2105.4224      2894.5776      2105.4224      2894.5776      2105.4224      2894.5776      4.914589e+08   0.1            21636560       2.2081257      752.64491      7526.4457      11.946535    
  84720800   55837.806     -21.846524     -59178000       1.4260239      166275.45     -59011725       789.15516      789.15516      789.15516      2105.4224      2894.5776      2105.4224      2894.5776      2105.4224      2894.5776      4.914589e+08   0.1            21636580       2.2350241      743.54         7435.3989      11.910706    
  84721000   56270.513     -22.122356     -59178639       1.4260239      167563.98     -59011075       789.15516      789.15516      789.15516      2105.4224      2894.5776      2105.4224      2894.5776      2105.4224      2894.5776      4.914589e+08   0.1            21636600       2.2618689      745.02272      7450.2233      11.87482     
  84721200   56945.397     -22.030289     -59171897       1.4260239      169573.67     -59002323       789.15516      789.15516      789.15516      2105.4224      2894.5776      2105.4224      2894.5776      2105.4224      2894.5776      4.914589e+08   0.1            21636620       2.2896721      719.3406       7193.3964      11.844115    
  84721400   57870.459     -21.884635     -59165153       1.4260239      172328.34     -58992824       789.15516      789.15516      789.15516      2105.4224      2894.5776      2105.4224      2894.5776      2105.4224      2894.5776      4.914589e+08   0.1            21636640       2.3163749      748.984        7489.8442      11.807871    
  84721600   59034.252     -22.209177     -59173163       1.4260239      175793.92     -58997369       789.15516      789.15516      789.15516      2105.4224      2894.5776      2105.4224      2894.5776      2105.4224      2894.5776      4.914589e+08   0.1            21636660       2.3432225      744.94818      7449.4951      11.772583    
  84721800   60405.75      -21.901964     -59166416       1.4260239      179878.01     -58986538       789.15516      789.15516      789.15516      2105.4224      2894.5776      2105.4224      2894.5776      2105.4224      2894.5776      4.914589e+08   0.1            21636680       2.3701249      743.4266       7434.253       11.737769    
  84722000   61935.514     -21.844542     -59167047       1.4260239      184433.38     -58982614       789.15516      789.15516      789.15516      2105.4224      2894.5776      2105.4224      2894.5776      2105.4224      2894.5776      4.914589e+08   0.1            21636700       2.3969822      744.67588      7446.7644      11.702921    
  84722200   63561.538     -21.528475     -59160301       1.4260239      189275.41     -58971025       789.15516      789.15516      789.15516      2105.4224      2894.5776      2105.4224      2894.5776      2105.4224      2894.5776      4.914589e+08   0.1            21636720       2.4238937      743.17837      7431.7787      11.668519    
  84722400   65213.471     -21.465414     -59160933       1.4260239      194194.58     -58966738       789.15516      789.15516      789.15516      2105.4224      2894.5776      2105.4224      2894.5776      2105.4224      2894.5776      4.914589e+08   0.1            21636740       2.4507883      743.64354      7436.4371      11.634209    
  84722600   66819.081     -21.405325     -59161563       1.4260239      198975.81     -58962587       789.15516      789.15516      789.15516      2105.4224      2894.5776      2105.4224      2894.5776      2105.4224      2894.5776      4.914589e+08   0.1            21636760       2.4779273      736.94591      7369.4468      11.601213    
  84722800   68310.015     -21.182681     -59154813       1.4260239      203415.56     -58951397       789.15516      789.15516      789.15516      2105.4224      2894.5776      2105.4224      2894.5776      2105.4224      2894.5776      4.914589e+08   0.1            21636780       2.5047751      744.94149      7449.4296      11.567002    
  84723000   69625.978     -21.658814     -59162817       1.4260239      207334.27     -58955483       789.15516      789.15516      789.15516      2105.4224      2894.5776      2105.4224      2894.5776      2105.4224      2894.5776      4.914589e+08   0.1            21636800       2.5316065      745.39624      7453.9585      11.532881    
  84723200   70718.997     -21.928382     -59163440       1.4260239      210589.1      -58952851       789.15516      789.15516      789.15516      2105.4224      2894.5776      2105.4224      2894.5776      2105.4224      2894.5776      4.914589e+08   0.1            21636820       2.5584057      746.28954      7462.9002      11.498775    
  84723400   71557.463     -22.75552      -59178815       1.4260239      213085.91     -58965729       789.15516      789.15516      789.15516      2105.4224      2894.5776      2105.4224      2894.5776      2105.4224      2894.5776      4.914589e+08   0.1            21636840       2.5854594      739.27006      7392.7047      11.465957    
  84723600   72130.187     -23.03243      -59179428       1.4260239      214791.38     -58964636       789.15516      789.15516      789.15516      2105.4224      2894.5776      2105.4224      2894.5776      2105.4224      2894.5776      4.914589e+08   0.1            21636860       2.612063       751.77753      7517.7719      11.431293    
  84723800   72448.322     -23.271796     -59180034       1.4260239      215738.73     -58964295       789.15516      789.15516      789.15516      2105.4224      2894.5776      2105.4224      2894.5776      2105.4224      2894.5776      4.914589e+08   0.1            21636880       2.638886       745.62931      7456.2972      11.397748    
  84724000   72545.672     -23.484972     -59180631       1.4260239      216028.62     -58964602       789.15516      789.15516      789.15516      2105.4224      2894.5776      2105.4224      2894.5776      2105.4224      2894.5776      4.914589e+08   0.1            21636900       2.6656569      747.08088      7470.8033      11.364123    
  84724200   72475.708     -23.686597     -59181218       1.4260239      215820.28     -58965397       789.15516      789.15516      789.15516      2105.4224      2894.5776      2105.4224      2894.5776      2105.4224      2894.5776      4.914589e+08   0.1            21636920       2.6926671      740.46         7404.5791      11.331648    
  84724400   72305.928     -23.883324     -59181795       1.4260239      215314.71     -58966480       789.15516      789.15516      789.15516      2105.4224      2894.5776      2105.4224      2894.5776      2105.4224      2894.5776      4.914589e+08   0.1            21636940       2.7192634      751.98461      7519.88        11.297565    
  84724600   72110.726     -24.092856     -59182362       1.4260239      214733.43     -58967628       789.15516      789.15516      789.15516      2105.4224      2894.5776      2105.4224      2894.5776      2105.4224      2894.5776      4.914589e+08   0.1            21636960       2.7461295      744.43363      7444.3266      11.264741    
  84724800   71963.818     -24.018912     -59175541       1.4260239      214295.96     -58961245       789.15516      789.15516      789.15516      2105.4224      2894.5776      2105.4224      2894.5776      2105.4224      2894.5776      4.914589e+08   0.1            21636980       2.7731245      740.8772       7408.7706      11.232561    
  84725000   71933.163     -24.195851     -59176089       1.4260239      214204.68     -58961885       789.15516      789.15516      789.15516      2105.4224      2894.5776      2105.4224      2894.5776      2105.4224      2894.5776      4.914589e+08   0.1            21637000       2.8000035      744.07284      7440.7322      11.20002     
  84725200   72076.981     -24.335284     -59176629       1.4260239      214632.94     -58961996       789.15516      789.15516      789.15516      2105.4224      2894.5776      2105.4224      2894.5776      2105.4224      2894.5776      4.914589e+08   0.1            21637020       2.8269606      741.92262      7419.2251      11.1679      
  84725400   72440.826     -24.95519      -59191916       1.4260239      215716.41     -58976200       789.15516      789.15516      789.15516      2105.4224      2894.5776      2105.4224      2894.5776      2105.4224      2894.5776      4.914589e+08   0.1            21637040       2.8537005      747.94321      7479.4358      11.135034    
  84725600   73054.752     -25.381237     -59207197       1.4260239      217544.58     -58989653       789.15516      789.15516      789.15516      2105.4224      2894.5776      2105.4224      2894.5776      2105.4224      2894.5776      4.914589e+08   0.1            21637060       2.88087        736.12039      7361.1995      11.103942    
  84725800   73930.469     -25.105229     -59207715       1.4260239      220152.31     -58987562       789.15516      789.15516      789.15516      2105.4224      2894.5776      2105.4224      2894.5776      2105.4224      2894.5776      4.914589e+08   0.1            21637080       2.9082218      731.21229      7312.1178      11.07362     
  84726000   75060.251     -24.833315     -59208224       1.4260239      223516.61     -58984707       789.15516      789.15516      789.15516      2105.4224      2894.5776      2105.4224      2894.5776      2105.4224      2894.5776      4.914589e+08   0.1            21637100       2.9352293      740.53564      7405.3633      11.042059    
  84726200   76416.564     -24.788596     -59216105       1.4260239      227555.48     -58988549       789.15516      789.15516      789.15516      2105.4224      2894.5776      2105.4224      2894.5776      2105.4224      2894.5776      4.914589e+08   0.1            21637120       2.9619707      747.90475      7479.0484      11.009595    
  84726400   77952.622     -24.31225      -59216603       1.4260239      232129.6      -58984473       789.15516      789.15516      789.15516      2105.4224      2894.5776      2105.4224      2894.5776      2105.4224      2894.5776      4.914589e+08   0.1            21637140       2.9890626      738.22874      7382.2896      10.978525    
  84726600   79606.092     -23.764523     -59217095       1.4260239      237053.35     -58980042       789.15516      789.15516      789.15516      2105.4224      2894.5776      2105.4224      2894.5776      2105.4224      2894.5776      4.914589e+08   0.1            21637160       3.0156675      751.74201      7517.4173      10.945761    
  84726800   81304.886     -23.272952     -59217583       1.4260239      242112.07     -58975471       789.15516      789.15516      789.15516      2105.4224      2894.5776      2105.4224      2894.5776      2105.4224      2894.5776      4.914589e+08   0.1            21637180       3.0425558      743.81626      7438.1534      10.914128    
  84727000   82972.941     -23.106669     -59225445       1.4260239      247079.25     -58978366       789.15516      789.15516      789.15516      2105.4224      2894.5776      2105.4224      2894.5776      2105.4224      2894.5776      4.914589e+08   0.1            21637200       3.0695039      742.16752      7421.6782      10.882792    
  84727200   84536.38      -22.945664     -59233302       1.4260239      251734.9      -58981567       789.15516      789.15516      789.15516      2105.4224      2894.5776      2105.4224      2894.5776      2105.4224      2894.5776      4.914589e+08   0.1            21637220       3.09675        734.04896      7340.4904      10.85258     
  84727400   85928.68      -22.508352     -59233775       1.4260239      255880.94     -58977894       789.15516      789.15516      789.15516      2105.4224      2894.5776      2105.4224      2894.5776      2105.4224      2894.5776      4.914589e+08   0.1            21637240       3.1235876      745.22381      7452.2381      10.821005    
  84727600   87095.111     -21.900195     -59226863       1.4260239      259354.37     -58967508       789.15516      789.15516      789.15516      2105.4224      2894.5776      2105.4224      2894.5776      2105.4224      2894.5776      4.914589e+08   0.1            21637260       3.1503898      746.20993      7462.1024      10.789393    
  84727800   87998.515     -21.438277     -59219941       1.4260239      262044.55     -58957896       789.15516      789.15516      789.15516      2105.4224      2894.5776      2105.4224      2894.5776      2105.4224      2894.5776      4.914589e+08   0.1            21637280       3.1771621      747.03802      7470.3872      10.757765    
  84728000   88622.108     -21.312332     -59220386       1.4260239      263901.5      -58956484       789.15516      789.15516      789.15516      2105.4224      2894.5776      2105.4224      2894.5776      2105.4224      2894.5776      4.914589e+08   0.1            21637300       3.2040913      742.68972      7426.8925      10.726745    
  84728200   88972.903     -21.797287     -59235573       1.4260239      264946.11     -58970627       789.15516      789.15516      789.15516      2105.4224      2894.5776      2105.4224      2894.5776      2105.4224      2894.5776      4.914589e+08   0.1            21637320       3.2309334      745.09952      7450.998       10.695509    
  84728400   89082.635     -21.874459     -59235995       1.4260239      265272.87     -58970722       789.15516      789.15516      789.15516      2105.4224      2894.5776      2105.4224      2894.5776      2105.4224      2894.5776      4.914589e+08   0.1            21637340       3.2578581      742.80927      7428.0803      10.664618    
  84728600   89002.829     -22.094212     -59236404       1.4260239      265035.23     -58971369       789.15516      789.15516      789.15516      2105.4224      2894.5776      2105.4224      2894.5776      2105.4224      2894.5776      4.914589e+08   0.1            21637360       3.2848798      740.14761      7401.4917      10.634107    
  84728800   88801.961     -22.269749     -59236804       1.4260239      264437.08     -58972366       789.15516      789.15516      789.15516      2105.4224      2894.5776      2105.4224      2894.5776      2105.4224      2894.5776      4.914589e+08   0.1            21637380       3.3115639      749.51136      7495.1018      10.602575    
  84729000   88556.643     -22.242596     -59237193       1.4260239      263706.56     -58973487       789.15516      789.15516      789.15516      2105.4224      2894.5776      2105.4224      2894.5776      2105.4224      2894.5776      4.914589e+08   0.1            21637400       3.3384832      742.96029      7429.612       10.571868    
  84729200   88344.97      -22.049685     -59237572       1.4260239      263076.23     -58974495       789.15516      789.15516      789.15516      2105.4224      2894.5776      2105.4224      2894.5776      2105.4224      2894.5776      4.914589e+08   0.1            21637420       3.3653008      745.77725      7457.7742      10.540906    
  84729400   88240.105     -21.693011     -59237937       1.4260239      262763.96     -58975173       789.15516      789.15516      789.15516      2105.4224      2894.5776      2105.4224      2894.5776      2105.4224      2894.5776      4.914589e+08   0.1            21637440       3.3923057      740.6085       7406.0845      10.510591    
  84729600   88306.358     -21.217222     -59238289       1.4260239      262961.25     -58975328       789.15516      789.15516      789.15516      2105.4224      2894.5776      2105.4224      2894.5776      2105.4224      2894.5776      4.914589e+08   0.1            21637460       3.4190109      748.91638      7489.1605      10.479412    
  84729800   88594.793     -20.439742     -59231249       1.4260239      263820.16     -58967429       789.15516      789.15516      789.15516      2105.4224      2894.5776      2105.4224      2894.5776      2105.4224      2894.5776      4.914589e+08   0.1            21637480       3.4464376      729.216        7292.1307      10.450493    
  84730000   89141.326     -20.260046     -59238954       1.4260239      265447.65     -58973506       789.15516      789.15516      789.15516      2105.4224      2894.5776      2105.4224      2894.5776      2105.4224      2894.5776      4.914589e+08   0.1            21637500       3.4733294      743.72188      7437.2238      10.419993    
  84730200   89963.591     -19.75971      -59239271       1.4260239      267896.21     -58971374       789.15516      789.15516      789.15516      2105.4224      2894.5776      2105.4224      2894.5776      2105.4224      2894.5776      4.914589e+08   0.1            21637520       3.5002818      742.04961      7420.5247      10.38973     
  84730400   91057.813     -19.148423     -59239578       1.4260239      271154.62     -58968424       789.15516      789.15516      789.15516      2105.4224      2894.5776      2105.4224      2894.5776      2105.4224      2894.5776      4.914589e+08   0.1            21637540       3.5273002      740.235        7402.3311      10.359713    
  84730600   92398.462     -18.436387     -59239875       1.4260239      275146.84     -58964728       789.15516      789.15516      789.15516      2105.4224      2894.5776      2105.4224      2894.5776      2105.4224      2894.5776      4.914589e+08   0.1            21637560       3.5540854      746.68033      7466.817       10.329065    
  84730800   93939.836     -17.681151     -59240160       1.4260239      279736.79     -58960424       789.15516      789.15516      789.15516      2105.4224      2894.5776      2105.4224      2894.5776      2105.4224      2894.5776      4.914589e+08   0.1            21637580       3.5812317      736.75009      7367.505       10.299516    
  84731000   95619.368     -17.229852     -59247814       1.4260239      284738.15     -58963076       789.15516      789.15516      789.15516      2105.4224      2894.5776      2105.4224      2894.5776      2105.4224      2894.5776      4.914589e+08   0.1            21637600       3.6082035      741.51507      7415.148       10.269507    
  84731200   97363.064     -16.593349     -59248079       1.4260239      289930.58     -58958148       789.15516      789.15516      789.15516      2105.4224      2894.5776      2105.4224      2894.5776      2105.4224      2894.5776      4.914589e+08   0.1            21637620       3.6350205      745.79566      7457.9586      10.239108    
  84731400   99091.057     -15.973297     -59248334       1.4260239      295076.25     -58953257       789.15516      789.15516      789.15516      2105.4224      2894.5776      2105.4224      2894.5776      2105.4224      2894.5776      4.914589e+08   0.1            21637640       3.6618728      744.81527      7448.1535      10.208862    
  84731600   100724.54     -14.683782     -59233821       1.4260239      299940.47     -58933881       789.15516      789.15516      789.15516      2105.4224      2894.5776      2105.4224      2894.5776      2105.4224      2894.5776      4.914589e+08   0.1            21637660       3.6889359      739.0132       7390.1222      10.179248    
  84731800   102191.84     -13.548503     -59226676       1.4260239      304309.84     -58922366       789.15516      789.15516      789.15516      2105.4224      2894.5776      2105.4224      2894.5776      2105.4224      2894.5776      4.914589e+08   0.1            21637680       3.7155772      750.71378      7507.1482      10.148521    
  84732000   103432.87     -12.747988     -59226896       1.4260239      308005.43     -58918890       789.15516      789.15516      789.15516      2105.4224      2894.5776      2105.4224      2894.5776      2105.4224      2894.5776      4.914589e+08   0.1            21637700       3.7425841      740.55253      7405.53        10.118843    
  84732200   104405.22     -11.753634     -59219725       1.4260239      310900.92     -58908824       789.15516      789.15516      789.15516      2105.4224      2894.5776      2105.4224      2894.5776      2105.4224      2894.5776      4.914589e+08   0.1            21637720       3.7694764      743.70825      7437.0756      10.088897    
  84732400   105087.68     -11.069694     -59219919       1.4260239      312933.16     -58906986       789.15516      789.15516      789.15516      2105.4224      2894.5776      2105.4224      2894.5776      2105.4224      2894.5776      4.914589e+08   0.1            21637740       3.7965349      739.14012      7391.4053      10.059436    
  84732600   105482.42     -10.424314     -59220100       1.4260239      314108.64     -58905992       789.15516      789.15516      789.15516      2105.4224      2894.5776      2105.4224      2894.5776      2105.4224      2894.5776      4.914589e+08   0.1            21637760       3.8231709      750.86073      7508.6163      10.028901    
  84732800   105616.33     -10.376643     -59235023       1.4260239      314507.39     -58920515       789.15516      789.15516      789.15516      2105.4224      2894.5776      2105.4224      2894.5776      2105.4224      2894.5776      4.914589e+08   0.1            21637780       3.8502345      738.99928      7389.9734      9.999534     
  84733000   105538.76     -10.167229     -59242553       1.4260239      314276.4      -58928277       789.15516      789.15516      789.15516      2105.4224      2894.5776      2105.4224      2894.5776      2105.4224      2894.5776      4.914589e+08   0.1            21637800       3.8774475      734.94348      7349.4361      9.9705833    
  84733200   105317.41     -9.8170239     -59242692       1.4260239      313617.27     -58929075       789.15516      789.15516      789.15516      2105.4224      2894.5776      2105.4224      2894.5776      2105.4224      2894.5776      4.914589e+08   0.1            21637820       3.9053996      715.50962      7155.1031      9.943539     
  84733400   105030.74     -9.5278146     -59242819       1.4260239      312763.61     -58930056       789.15516      789.15516      789.15516      2105.4224      2894.5776      2105.4224      2894.5776      2105.4224      2894.5776      4.914589e+08   0.1            21637840       3.9335221      711.17509      7111.7455      9.9169117    
  84733600   104760.79     -9.1517519     -59242934       1.4260239      311959.73     -58930974       789.15516      789.15516      789.15516      2105.4224      2894.5776      2105.4224      2894.5776      2105.4224      2894.5776      4.914589e+08   0.1            21637860       3.9610795      725.75534      7257.5413      9.8888531    
  84733800   104586.13     -8.588859      -59243036       1.4260239      311439.63     -58931596       789.15516      789.15516      789.15516      2105.4224      2894.5776      2105.4224      2894.5776      2105.4224      2894.5776      4.914589e+08   0.1            21637880       3.9888157      721.0817       7210.8264      9.8612426    
  84734000   104576.75     -7.7811643     -59243123       1.4260239      311411.7      -58931711       789.15516      789.15516      789.15516      2105.4224      2894.5776      2105.4224      2894.5776      2105.4224      2894.5776      4.914589e+08   0.1            21637900       4.01548        750.06668      7500.6789      9.8310064    
  84734200   104790.41     -6.7615269     -59243196       1.4260239      312047.94     -58931149       789.15516      789.15516      789.15516      2105.4224      2894.5776      2105.4224      2894.5776      2105.4224      2894.5776      4.914589e+08   0.1            21637920       4.0424295      742.12811      7421.2714      9.8015109    
  84734400   105268.33     -5.4509653     -59235878       1.4260239      313471.11     -58922407       789.15516      789.15516      789.15516      2105.4224      2894.5776      2105.4224      2894.5776      2105.4224      2894.5776      4.914589e+08   0.1            21637940       4.0694569      739.99149      7399.9118      9.7722369    
  84734600   106032.74     -4.4163664     -59235926       1.4260239      315747.38     -58920179       789.15516      789.15516      789.15516      2105.4224      2894.5776      2105.4224      2894.5776      2105.4224      2894.5776      4.914589e+08   0.1            21637960       4.0964483      740.975        7409.7439      9.7429078    
  84734800   107084.73     -3.1443538     -59228587       1.4260239      318880.05     -58909707       789.15516      789.15516      789.15516      2105.4224      2894.5776      2105.4224      2894.5776      2105.4224      2894.5776      4.914589e+08   0.1            21637980       4.1230897      750.71195      7507.1327      9.7127853    
  84735000   108401.32     -2.2339757     -59228614       1.4260239      322800.62     -58905813       789.15516      789.15516      789.15516      2105.4224      2894.5776      2105.4224      2894.5776      2105.4224      2894.5776      4.914589e+08   0.1            21638000       4.15001        742.93261      7429.3264      9.6833603    
  84735200   109938.53     -1.5280516     -59236005       1.4260239      327378.17     -58908627       789.15516      789.15516      789.15516      2105.4224      2894.5776      2105.4224      2894.5776      2105.4224      2894.5776      4.914589e+08   0.1            21638020       4.1770072      740.81875      7408.1715      9.6541461    
  84735400   111634.32     -0.074611562   -59228628       1.4260239      332427.94     -58896201       789.15516      789.15516      789.15516      2105.4224      2894.5776      2105.4224      2894.5776      2105.4224      2894.5776      4.914589e+08   0.1            21638040       4.2039521      742.25461      7422.553       9.6248414    
  84735600   113412.66      1.2269641     -59228617       1.4260239      337723.53     -58890893       789.15516      789.15516      789.15516      2105.4224      2894.5776      2105.4224      2894.5776      2105.4224      2894.5776      4.914589e+08   0.1            21638060       4.2308698      743.00675      7430.0711      9.5955056    
  84735800   115191.37      2.5282866     -59228593       1.4260239      343020.23     -58885573       789.15516      789.15516      789.15516      2105.4224      2894.5776      2105.4224      2894.5776      2105.4224      2894.5776      4.914589e+08   0.1            21638080       4.2576826      745.9097       7459.0912      9.5659659    
  84736000   116887.1       4.1041009     -59221177       1.4260239      348069.81     -58873107       789.15516      789.15516      789.15516      2105.4224      2894.5776      2105.4224      2894.5776      2105.4224      2894.5776      4.914589e+08   0.1            21638100       4.2847944      737.68797      7376.8876      9.5371264    
  84736200   118423.57      5.4201218     -59221125       1.4260239      352645.16     -58868479       789.15516      789.15516      789.15516      2105.4224      2894.5776      2105.4224      2894.5776      2105.4224      2894.5776      4.914589e+08   0.1            21638120       4.3115411      747.75602      7477.565       9.5075043    
  84736400   119736.39      6.5041138     -59228436       1.4260239      356554.53     -58871882       789.15516      789.15516      789.15516      2105.4224      2894.5776      2105.4224      2894.5776      2105.4224      2894.5776      4.914589e+08   0.1            21638140       4.3384276      743.86918      7438.6863      9.4782241    
  84736600   120777.9       8.0805924     -59220978       1.4260239      359655.95     -58861322       789.15516      789.15516      789.15516      2105.4224      2894.5776      2105.4224      2894.5776      2105.4224      2894.5776      4.914589e+08   0.1            21638160       4.3653322      743.3659       7433.641       9.4490136    
  84736800   121521.54      9.1110871     -59220882       1.4260239      361870.4      -58859011       789.15516      789.15516      789.15516      2105.4224      2894.5776      2105.4224      2894.5776      2105.4224      2894.5776      4.914589e+08   0.1            21638180       4.3926352      732.51989      7325.2107      9.4206864    
  84737000   121965.08      9.902947      -59220771       1.4260239      363191.18     -58857580       789.15516      789.15516      789.15516      2105.4224      2894.5776      2105.4224      2894.5776      2105.4224      2894.5776      4.914589e+08   0.1            21638200       4.419334       749.09633      7490.9689      9.3910881    
  84737200   122131.76      10.623207     -59220647       1.4260239      363687.52     -58856960       789.15516      789.15516      789.15516      2105.4224      2894.5776      2105.4224      2894.5776      2105.4224      2894.5776      4.914589e+08   0.1            21638220       4.4473867      712.94563      7129.4528      9.3643766    
  84737400   122068.24      10.839452     -59235267       1.4260239      363498.37     -58871769       789.15516      789.15516      789.15516      2105.4224      2894.5776      2105.4224      2894.5776      2105.4224      2894.5776      4.914589e+08   0.1            21638240       4.4748794      727.46404      7274.6438      9.3364801    
  84737600   121840.66      11.946261     -59227743       1.4260239      362820.67     -58864923       789.15516      789.15516      789.15516      2105.4224      2894.5776      2105.4224      2894.5776      2105.4224      2894.5776      4.914589e+08   0.1            21638260       4.5019918      737.67102      7376.714       9.3078023    
  84737800   121527.97      12.889979     -59227588       1.4260239      361889.55     -58865698       789.15516      789.15516      789.15516      2105.4224      2894.5776      2105.4224      2894.5776      2105.4224      2894.5776      4.914589e+08   0.1            21638280       4.5287435      747.61693      7476.1531      9.2784046    
  84738000   121214.72      13.589261     -59234802       1.4260239      360956.74     -58873845       789.15516      789.15516      789.15516      2105.4224      2894.5776      2105.4224      2894.5776      2105.4224      2894.5776      4.914589e+08   0.1            21638300       4.5563609      724.18084      7241.8271      9.2507964    
  84738200   120983.39      14.815676     -59227250       1.4260239      360267.87     -58866982       789.15516      789.15516      789.15516      2105.4224      2894.5776      2105.4224      2894.5776      2105.4224      2894.5776      4.914589e+08   0.1            21638320       4.5833777      740.2799       7402.7935      9.2219799    
  84738400   120908.91      15.953737     -59219686       1.4260239      360046.09     -58859640       789.15516      789.15516      789.15516      2105.4224      2894.5776      2105.4224      2894.5776      2105.4224      2894.5776      4.914589e+08   0.1            21638340       4.6101114      748.11841      7481.186       9.1926204    
  84738600   121054.77      16.728809     -59219491       1.4260239      360480.44     -58859010       789.15516      789.15516      789.15516      2105.4224      2894.5776      2105.4224      2894.5776      2105.4224      2894.5776      4.914589e+08   0.1            21638360       4.6369294      745.7691       7457.6899      9.1634587    
  84738800   121467.22      17.601889     -59219286       1.4260239      361708.63     -58857577       789.15516      789.15516      789.15516      2105.4224      2894.5776      2105.4224      2894.5776      2105.4224      2894.5776      4.914589e+08   0.1            21638380       4.6639654      739.75366      7397.5284      9.134752     
  84739000   122172.54      18.766402     -59219070       1.4260239      363808.95     -58855261       789.15516      789.15516      789.15516      2105.4224      2894.5776      2105.4224      2894.5776      2105.4224      2894.5776      4.914589e+08   0.1            21638400       4.6913969      729.08829      7290.884       9.1068325    
  84739200   123175.29      20.174602     -59218841       1.4260239      366794.99     -58852046       789.15516      789.15516      789.15516      2105.4224      2894.5776      2105.4224      2894.5776      2105.4224      2894.5776      4.914589e+08   0.1            21638420       4.7180283      750.9944       7509.9584      9.0773789    
  84739400   124456.46      21.985244     -59211222       1.4260239      370610.08     -58840612       789.15516      789.15516      789.15516      2105.4224      2894.5776      2105.4224      2894.5776      2105.4224      2894.5776      4.914589e+08   0.1            21638440       4.7452096      735.80039      7358.0036      9.0490071    
  84739600   125975.29      23.843986     -59203591       1.4260239      375132.92     -58828459       789.15516      789.15516      789.15516      2105.4224      2894.5776      2105.4224      2894.5776      2105.4224      2894.5776      4.914589e+08   0.1            21638460       4.7722333      740.09152      7400.9086      9.0203513    
  84739800   127671.18      25.293843     -59203329       1.4260239      380182.99     -58823146       789.15516      789.15516      789.15516      2105.4224      2894.5776      2105.4224      2894.5776      2105.4224      2894.5776      4.914589e+08   0.1            21638480       4.7992141      741.26825      7412.6833      8.9916338    
  84740000   129468.67      26.874354     -59195680       1.4260239      385535.58     -58810144       789.15516      789.15516      789.15516      2105.4224      2894.5776      2105.4224      2894.5776      2105.4224      2894.5776      4.914589e+08   0.1            21638500       4.8262865      738.75628      7387.5611      8.9631065    
  84740200   131283.5       28.531761     -59188021       1.4260239      390939.86     -58797081       789.15516      789.15516      789.15516      2105.4224      2894.5776      2105.4224      2894.5776      2105.4224      2894.5776      4.914589e+08   0.1            21638520       4.8532933      740.5564       7405.544       8.9344747    
  84740400   133030.3       30.395839     -59180353       1.4260239      396141.51     -58784211       789.15516      789.15516      789.15516      2105.4224      2894.5776      2105.4224      2894.5776      2105.4224      2894.5776      4.914589e+08   0.1            21638540       4.8800349      747.89793      7478.9821      8.9053774    
  84740600   134628.59      32.116107     -59180052       1.4260239      400900.97     -58779151       789.15516      789.15516      789.15516      2105.4224      2894.5776      2105.4224      2894.5776      2105.4224      2894.5776      4.914589e+08   0.1            21638560       4.906787       747.60344      7476.05        8.8763255    
  84740800   136008.65      34.002927     -59172361       1.4260239      405010.54     -58767350       789.15516      789.15516      789.15516      2105.4224      2894.5776      2105.4224      2894.5776      2105.4224      2894.5776      4.914589e+08   0.1            21638580       4.9336292      745.09683      7450.9655      8.8474607    
  84741000   137118.3       35.511414     -59172035       1.4260239      408314.89     -58763721       789.15516      789.15516      789.15516      2105.4224      2894.5776      2105.4224      2894.5776      2105.4224      2894.5776      4.914589e+08   0.1            21638600       4.9612847      723.18445      7231.8439      8.8200644    
  84741200   137927.34      36.448695     -59186457       1.4260239      410724.07     -58775733       789.15516      789.15516      789.15516      2105.4224      2894.5776      2105.4224      2894.5776      2105.4224      2894.5776      4.914589e+08   0.1            21638620       4.9887535      728.09754      7280.9685      8.7923364    
  84741400   138428.99      37.566151     -59193494       1.4260239      412217.9      -58781276       789.15516      789.15516      789.15516      2105.4224      2894.5776      2105.4224      2894.5776      2105.4224      2894.5776      4.914589e+08   0.1            21638640       5.0155642      745.97163      7459.7283      8.7634609    
  84741600   138641.25      38.477604     -59200525       1.4260239      412849.97     -58787675       789.15516      789.15516      789.15516      2105.4224      2894.5776      2105.4224      2894.5776      2105.4224      2894.5776      4.914589e+08   0.1            21638660       5.0424067      745.08872      7450.8894      8.7346633    
  84741800   138605.81      39.513376     -59200170       1.4260239      412744.45     -58787426       789.15516      789.15516      789.15516      2105.4224      2894.5776      2105.4224      2894.5776      2105.4224      2894.5776      4.914589e+08   0.1            21638680       5.0693998      740.92685      7409.2718      8.7061458    
  84742000   138384.91      40.505033     -59199806       1.4260239      412086.63     -58787719       789.15516      789.15516      789.15516      2105.4224      2894.5776      2105.4224      2894.5776      2105.4224      2894.5776      4.914589e+08   0.1            21638700       5.0964017      740.68991      7406.8969      8.6776595    
  84742200   138056.47      41.185321     -59206808       1.4260239      411108.6      -58795699       789.15516      789.15516      789.15516      2105.4224      2894.5776      2105.4224      2894.5776      2105.4224      2894.5776      4.914589e+08   0.1            21638720       5.1231019      749.05781      7490.5817      8.64868      
  84742400   137706.96      42.664714     -59191668       1.4260239      410067.81     -58781600       789.15516      789.15516      789.15516      2105.4224      2894.5776      2105.4224      2894.5776      2105.4224      2894.5776      4.914589e+08   0.1            21638740       5.1500836      741.24308      7412.4193      8.620196     
  84742600   137423.59      43.709661     -59191280       1.4260239      409223.99     -58782056       789.15516      789.15516      789.15516      2105.4224      2894.5776      2105.4224      2894.5776      2105.4224      2894.5776      4.914589e+08   0.1            21638760       5.177026       742.32409      7423.2541      8.5916627    
  84742800   137286.59      44.442121     -59205645       1.4260239      408816.01     -58796829       789.15516      789.15516      789.15516      2105.4224      2894.5776      2105.4224      2894.5776      2105.4224      2894.5776      4.914589e+08   0.1            21638780       5.2039502      742.82525      7428.2398      8.5631164    
  84743000   137363.52      45.90085      -59205249       1.4260239      409045.1      -58796204       789.15516      789.15516      789.15516      2105.4224      2894.5776      2105.4224      2894.5776      2105.4224      2894.5776      4.914589e+08   0.1            21638800       5.230982       739.86912      7398.6855      8.5347629    
  84743200   137706.42      47.215226     -59204849       1.4260239      410066.21     -58794783       789.15516      789.15516      789.15516      2105.4224      2894.5776      2105.4224      2894.5776      2105.4224      2894.5776      4.914589e+08   0.1            21638820       5.2579673      741.14455      7411.4513      8.5063476    
  84743400   138347.22      48.079837     -59211822       1.4260239      411974.39     -58799848       789.15516      789.15516      789.15516      2105.4224      2894.5776      2105.4224      2894.5776      2105.4224      2894.5776      4.914589e+08   0.1            21638840       5.2850027      739.77194      7397.7265      8.4780276    
  84743600   139295.36      49.274424     -59211412       1.4260239      414797.81     -58796614       789.15516      789.15516      789.15516      2105.4224      2894.5776      2105.4224      2894.5776      2105.4224      2894.5776      4.914589e+08   0.1            21638860       5.3117061      748.96855      7489.6835      8.449193     
  84743800   140536.26      50.36964      -59218374       1.4260239      418492.98     -58799881       789.15516      789.15516      789.15516      2105.4224      2894.5776      2105.4224      2894.5776      2105.4224      2894.5776      4.914589e+08   0.1            21638880       5.3386541      742.17063      7421.7079      8.420766     
  84744000   142031.19      51.908913     -59217951       1.4260239      422944.64     -58795006       789.15516      789.15516      789.15516      2105.4224      2894.5776      2105.4224      2894.5776      2105.4224      2894.5776      4.914589e+08   0.1            21638900       5.3656179      741.73387      7417.3354      8.3923792    
  84744200   143720.92      53.545008     -59217520       1.4260239      427976.36     -58789543       789.15516      789.15516      789.15516      2105.4224      2894.5776      2105.4224      2894.5776      2105.4224      2894.5776      4.914589e+08   0.1            21638920       5.3931381      726.73893      7267.3909      8.3648697    
  84744400   145530.22      55.516235     -59209703       1.4260239      433364.15     -58776339       789.15516      789.15516      789.15516      2105.4224      2894.5776      2105.4224      2894.5776      2105.4224      2894.5776      4.914589e+08   0.1            21638940       5.4199307      746.47349      7464.7371      8.336241     
  84744600   147374.42      57.187005     -59209258       1.4260239      438855.85     -58770402       789.15516      789.15516      789.15516      2105.4224      2894.5776      2105.4224      2894.5776      2105.4224      2894.5776      4.914589e+08   0.1            21638960       5.4469299      740.76387      7407.6269      8.307946     
  84744800   149165.27      58.852479     -59208806       1.4260239      444188.69     -58764617       789.15516      789.15516      789.15516      2105.4224      2894.5776      2105.4224      2894.5776      2105.4224      2894.5776      4.914589e+08   0.1            21638980       5.473805       744.18353      7441.8375      8.2794763    
  84745000   150819.08      60.76153      -59200968       1.4260239      449113.47     -58751855       789.15516      789.15516      789.15516      2105.4224      2894.5776      2105.4224      2894.5776      2105.4224      2894.5776      4.914589e+08   0.1            21639000       5.5008754      738.81506      7388.1667      8.2513153    
  84745200   152263.39      61.570801     -59222635       1.4260239      453414.36     -58769221       789.15516      789.15516      789.15516      2105.4224      2894.5776      2105.4224      2894.5776      2105.4224      2894.5776      4.914589e+08   0.1            21639020       5.5275701      749.2125       7492.1118      8.2226066    
  84745400   153441.14      63.482958     -59214784       1.4260239      456921.5      -58757863       789.15516      789.15516      789.15516      2105.4224      2894.5776      2105.4224      2894.5776      2105.4224      2894.5776      4.914589e+08   0.1            21639040       5.5545731      740.65762      7406.5795      8.1943725    
  84745600   154315.52      65.172075     -59214304       1.4260239      459525.28     -58754779       789.15516      789.15516      789.15516      2105.4224      2894.5776      2105.4224      2894.5776      2105.4224      2894.5776      4.914589e+08   0.1            21639060       5.5813103      748.02241      7480.2109      8.1657618    
  84745800   154875.11      66.517303     -59221199       1.4260239      461191.62     -58760008       789.15516      789.15516      789.15516      2105.4224      2894.5776      2105.4224      2894.5776      2105.4224      2894.5776      4.914589e+08   0.1            21639080       5.608179       744.3586       7443.5932      8.1373601    
  84746000   155133.76      67.877436     -59220718       1.4260239      461961.84     -58758756       789.15516      789.15516      789.15516      2105.4224      2894.5776      2105.4224      2894.5776      2105.4224      2894.5776      4.914589e+08   0.1            21639100       5.6350914      743.15489      7431.5572      8.1090361    
  84746200   155129.32      69.085488     -59220235       1.4260239      461948.61     -58758286       789.15516      789.15516      789.15516      2105.4224      2894.5776      2105.4224      2894.5776      2105.4224      2894.5776      4.914589e+08   0.1            21639120       5.6620455      742.00206      7420.0297      8.0807854    
  84746400   154921.57      69.99419      -59227127       1.4260239      461329.97     -58765797       789.15516      789.15516      789.15516      2105.4224      2894.5776      2105.4224      2894.5776      2105.4224      2894.5776      4.914589e+08   0.1            21639140       5.6891357      738.27449      7382.7349      8.05274      
  84746600   154587.6       70.994954     -59234019       1.4260239      460335.47     -58773683       789.15516      789.15516      789.15516      2105.4224      2894.5776      2105.4224      2894.5776      2105.4224      2894.5776      4.914589e+08   0.1            21639160       5.7158489      748.69179      7486.9182      8.0241746    
  84746800   154213.59      72.604152     -59226153       1.4260239      459221.75     -58766931       789.15516      789.15516      789.15516      2105.4224      2894.5776      2105.4224      2894.5776      2105.4224      2894.5776      4.914589e+08   0.1            21639180       5.7427511      743.43351      7434.3409      7.99589      
  84747000   153888.25      73.698978     -59233043       1.4260239      458252.94     -58774790       789.15516      789.15516      789.15516      2105.4224      2894.5776      2105.4224      2894.5776      2105.4224      2894.5776      4.914589e+08   0.1            21639200       5.7695916      745.14255      7451.416       7.9675334    
  84747200   153696.58      74.849614     -59239938       1.4260239      457682.17     -58782256       789.15516      789.15516      789.15516      2105.4224      2894.5776      2105.4224      2894.5776      2105.4224      2894.5776      4.914589e+08   0.1            21639220       5.7973528      720.43055      7204.3078      7.9404521    
  84747400   153710.8       76.267835     -59239457       1.4260239      457724.53     -58781733       789.15516      789.15516      789.15516      2105.4224      2894.5776      2105.4224      2894.5776      2105.4224      2894.5776      4.914589e+08   0.1            21639240       5.824029       749.73012      7497.3012      7.9118906    
  84747600   153986.75      77.635593     -59238977       1.4260239      458546.25     -58780430       789.15516      789.15516      789.15516      2105.4224      2894.5776      2105.4224      2894.5776      2105.4224      2894.5776      4.914589e+08   0.1            21639260       5.8509251      743.60248      7436.029       7.883643     
  84747800   154561.37      79.422463     -59231117       1.4260239      460257.38     -58770859       789.15516      789.15516      789.15516      2105.4224      2894.5776      2105.4224      2894.5776      2105.4224      2894.5776      4.914589e+08   0.1            21639280       5.8777543      745.45861      7454.5847      7.8553185    
  84748000   155449.59      80.949597     -59238012       1.4260239      462902.35     -58775110       789.15516      789.15516      789.15516      2105.4224      2894.5776      2105.4224      2894.5776      2105.4224      2894.5776      4.914589e+08   0.1            21639300       5.9049737      734.76806      7347.6833      7.8275254    
  84748200   156641.73      83.437371     -59222773       1.4260239      466452.31     -58756320       789.15516      789.15516      789.15516      2105.4224      2894.5776      2105.4224      2894.5776      2105.4224      2894.5776      4.914589e+08   0.1            21639320       5.9317885      745.85966      7458.5782      7.7992054    
  84748400   158103.66      85.686232     -59214910       1.4260239      470805.69     -58744104       789.15516      789.15516      789.15516      2105.4224      2894.5776      2105.4224      2894.5776      2105.4224      2894.5776      4.914589e+08   0.1            21639340       5.9589181      737.19983      7372.0114      7.77131      
  84748600   159779.01      87.911557     -59207047       1.4260239      475794.6      -58731252       789.15516      789.15516      789.15516      2105.4224      2894.5776      2105.4224      2894.5776      2105.4224      2894.5776      4.914589e+08   0.1            21639360       5.9862259      732.39378      7323.9397      7.7436519    
  84748800   161593.69      89.266937     -59221316       1.4260239      481198.43     -58740117       789.15516      789.15516      789.15516      2105.4224      2894.5776      2105.4224      2894.5776      2105.4224      2894.5776      4.914589e+08   0.1            21639380       6.0131097      743.94062      7439.4079      7.7154532    
  84749000   163462.23      91.6552       -59206073       1.4260239      486762.6      -58719311       789.15516      789.15516      789.15516      2105.4224      2894.5776      2105.4224      2894.5776      2105.4224      2894.5776      4.914589e+08   0.1            21639400       6.0399604      744.86034      7448.6059      7.6872242    
  84749200   165295.52      93.21049      -59205587       1.4260239      492221.85     -58713366       789.15516      789.15516      789.15516      2105.4224      2894.5776      2105.4224      2894.5776      2105.4224      2894.5776      4.914589e+08   0.1            21639420       6.0668808      742.929        7429.264       7.659096     
  84749400   167006.44      94.179606     -59219859       1.4260239      497316.67     -58722542       789.15516      789.15516      789.15516      2105.4224      2894.5776      2105.4224      2894.5776      2105.4224      2894.5776      4.914589e+08   0.1            21639440       6.0937804      743.50838      7435.1051      7.630952     
  84749600   168517.47      96.28012      -59211998       1.4260239      501816.24     -58710181       789.15516      789.15516      789.15516      2105.4224      2894.5776      2105.4224      2894.5776      2105.4224      2894.5776      4.914589e+08   0.1            21639460       6.1205617      746.78918      7467.8912      7.6026727    
  84749800   169765.62      98.373176     -59204136       1.4260239      505533.01     -58698603       789.15516      789.15516      789.15516      2105.4224      2894.5776      2105.4224      2894.5776      2105.4224      2894.5776      4.914589e+08   0.1            21639480       6.1475862      740.06783      7400.6788      7.5747063    
[...]
  85394400   306.20687      0.33742463    -59403744       1.4387518      911.83177     -59402832       786.82117      786.82117      786.82117      2106.5894      2893.4106      2106.5894      2893.4106      2106.5894      2893.4106      4.8711119e+08  0.1            21703940       46.381348      633.41321      6334.1239      1.6988331    
  85394600   306.10203      0.85670965    -59403818       1.4387692      911.51958     -59402906       786.818        786.818        786.818        2106.591       2893.409       2106.591       2893.409       2106.591       2893.409       4.8710531e+08  0.1            21703960       46.412974      632.39475      6323.9545      1.6667643    
  85394800   306.04151      1.7556713     -59403892       1.4387971      911.33935     -59402980       786.81292      786.81292      786.81292      2106.5935      2893.4065      2106.5935      2893.4065      2106.5935      2893.4065      4.8709587e+08  0.1            21703980       46.445337      617.98471      6179.8454      1.6347221    
  85395000   305.79362      0.52462807    -59403966       1.438766       910.60118     -59403055       786.81859      786.81859      786.81859      2106.5907      2893.4093      2106.5907      2893.4093      2106.5907      2893.4093      4.871064e+08   0.1            21704000       46.478554      602.11116      6021.1138      1.6027088    
  85395200   306.02855      0.6004112     -59404040       1.438771       911.30077     -59403128       786.81767      786.81767      786.81767      2106.5912      2893.4088      2106.5912      2893.4088      2106.5912      2893.4088      4.8710468e+08  0.1            21704020       46.510491      626.21817      6262.1841      1.5706507    
  85395400   306.20131      1.8502021     -59404113       1.4388086      911.8152      -59403201       786.81081      786.81081      786.81081      2106.5946      2893.4054      2106.5946      2893.4054      2106.5946      2893.4054      4.8709196e+08  0.1            21704040       46.54288       617.49329      6174.9232      1.5386077    
  85395600   306.0894       0.76088441    -59404187       1.4387814      911.48197     -59403276       786.81577      786.81577      786.81577      2106.5921      2893.4079      2106.5921      2893.4079      2106.5921      2893.4079      4.8710116e+08  0.1            21704060       46.574141      639.78274      6397.8282      1.5065277    
  85395800   306.02285      0.06246588    -59404261       1.4387651      911.28378     -59403350       786.81875      786.81875      786.81875      2106.5906      2893.4094      2106.5906      2893.4094      2106.5906      2893.4094      4.871067e+08   0.1            21704080       46.605938      628.98408      6289.8464      1.4744658    
  85396000   305.78858      2.2588828     -59404335       1.4388289      910.58619     -59403424       786.80712      786.80712      786.80712      2106.5964      2893.4036      2106.5964      2893.4036      2106.5964      2893.4036      4.870851e+08   0.1            21704100       46.637285      638.02032      6380.2024      1.4423903    
  85396200   306.02014      1.4828476     -59404408       1.4388104      911.27572     -59403497       786.8105       786.8105       786.8105       2106.5948      2893.4052      2106.5948      2893.4052      2106.5948      2893.4052      4.8709137e+08  0.1            21704120       46.668835      633.90912      6339.0952      1.410322     
  85396400   306.17598     -1.6036202     -59404482       1.4387279      911.7398      -59403570       786.82554      786.82554      786.82554      2106.5872      2893.4128      2106.5872      2893.4128      2106.5872      2893.4128      4.871193e+08   0.1            21704140       46.70056       630.43015      6304.3073      1.3782595    
  85396600   306.08311      2.3132281     -59404556       1.4388393      911.46322     -59403644       786.80522      786.80522      786.80522      2106.5974      2893.4026      2106.5974      2893.4026      2106.5974      2893.4026      4.8708157e+08  0.1            21704160       46.732132      633.46164      6334.6016      1.3461932    
  85396800   306.02417      3.5137338     -59404629       1.4388755      911.28772     -59403718       786.79862      786.79862      786.79862      2106.6007      2893.3993      2106.6007      2893.3993      2106.6007      2893.3993      4.8706931e+08  0.1            21704180       46.763528      637.04174      6370.4245      1.3141225    
  85397000   305.75838     -2.3581894     -59404703       1.4387159      910.49625     -59403792       786.82771      786.82771      786.82771      2106.5861      2893.4139      2106.5861      2893.4139      2106.5861      2893.4139      4.8712335e+08  0.1            21704200       46.795128      632.90032      6329.0068      1.2820584    
  85397200   306.00353      0.28753609    -59404777       1.4387921      911.22625     -59403866       786.81382      786.81382      786.81382      2106.5931      2893.4069      2106.5931      2893.4069      2106.5931      2893.4069      4.8709754e+08  0.1            21704220       46.826484      637.83713      6378.3664      1.2499883    
  85397400   306.19138      5.3267909     -59404848       1.4389346      911.78563     -59403937       786.78784      786.78784      786.78784      2106.6061      2893.3939      2106.6061      2893.3939      2106.6061      2893.3939      4.870493e+08   0.1            21704240       46.857823      638.18688      6381.8671      1.2179188    
  85397600   306.05764     -0.94646705    -59404924       1.4387639      911.38739     -59404012       786.81896      786.81896      786.81896      2106.5905      2893.4095      2106.5905      2893.4095      2106.5905      2893.4095      4.8710709e+08  0.1            21704260       46.889205      637.29877      6372.9883      1.1858514    
  85397800   305.98787     -2.6148979     -59404997       1.4387207      911.17963     -59404086       786.82684      786.82684      786.82684      2106.5866      2893.4134      2106.5866      2893.4134      2106.5866      2893.4134      4.8712172e+08  0.1            21704280       46.920863      631.76404      6317.6446      1.1537917    
  85398000   305.77649      5.3231829     -59405069       1.4389435      910.55017     -59404159       786.78623      786.78623      786.78623      2106.6069      2893.3931      2106.6069      2893.3931      2106.6069      2893.3931      4.8704631e+08  0.1            21704300       46.952562      630.92581      6309.2573      1.1217336    
  85398200   305.99943      2.3455769     -59405144       1.438864       911.21406     -59404233       786.80072      786.80072      786.80072      2106.5996      2893.4004      2106.5996      2893.4004      2106.5996      2893.4004      4.8707321e+08  0.1            21704320       46.983927      637.65644      6376.561       1.0896682    
  85398400   306.14154     -4.3227991     -59405216       1.4386824      911.63724     -59404305       786.83382      786.83382      786.83382      2106.5831      2893.4169      2106.5831      2893.4169      2106.5831      2893.4169      4.871347e+08   0.1            21704340       47.015526      632.93521      6329.3549      1.057609     
  85398600   306.059        2.5772059     -59405291       1.4388764      911.39145     -59404379       786.79846      786.79846      786.79846      2106.6008      2893.3992      2106.6008      2893.3992      2106.6008      2893.3992      4.8706902e+08  0.1            21704360       47.047074      633.95049      6339.5061      1.0255493    
  85398800   306.00718      5.4588637     -59405363       1.4389592      911.23714     -59404451       786.78337      786.78337      786.78337      2106.6083      2893.3917      2106.6083      2893.3917      2106.6083      2893.3917      4.87041e+08    0.1            21704380       47.07852       636.00876      6360.0787      0.99348821   
  85399000   305.73221     -2.8340157     -59405437       1.4387326      910.41832     -59404527       786.82467      786.82467      786.82467      2106.5877      2893.4123      2106.5877      2893.4123      2106.5877      2893.4123      4.871177e+08   0.1            21704400       47.110235      630.6243       6306.2474      0.9614334    
  85399200   305.97338     -1.2377471     -59405511       1.4387798      911.13647     -59404600       786.81607      786.81607      786.81607      2106.592       2893.408       2106.592       2893.408       2106.592       2893.408       4.8710173e+08  0.1            21704420       47.141686      635.90922      6359.0882      0.92937386   
  85399400   306.16833      5.5218498     -59405582       1.4389699      911.71701     -59404671       786.78142      786.78142      786.78142      2106.6093      2893.3907      2106.6093      2893.3907      2106.6093      2893.3907      4.8703737e+08  0.1            21704440       47.173175      635.14427      6351.4453      0.89731586   
  85399600   306.03937      0.83055109    -59405657       1.438843       911.33299     -59404746       786.80455      786.80455      786.80455      2106.5977      2893.4023      2106.5977      2893.4023      2106.5977      2893.4023      4.8708032e+08  0.1            21704460       47.204918      630.06019      6300.6162      0.86526329   
  85399800   305.96287     -2.6910734     -59405730       1.4387486      911.10517     -59404819       786.82176      786.82176      786.82176      2106.5891      2893.4109      2106.5891      2893.4109      2106.5891      2893.4109      4.871123e+08   0.1            21704480       47.236136      640.64996      6406.4893      0.83320189   
  85400000   305.74201      2.7421789     -59405804       1.438902       910.44748     -59404893       786.7938       786.7938       786.7938       2106.6031      2893.3969      2106.6031      2893.3969      2106.6031      2893.3969      4.8706037e+08  0.1            21704500       47.267675      634.14352      6341.432       0.80114706   
  85400200   305.97845      3.1574665     -59405876       1.4389165      911.15159     -59404965       786.79116      786.79116      786.79116      2106.6044      2893.3956      2106.6044      2893.3956      2106.6044      2893.3956      4.8705546e+08  0.1            21704520       47.299284      632.72888      6327.2838      0.76909407   
  85400400   306.12982     -1.2370022     -59405950       1.4387978      911.60234     -59405038       786.81278      786.81278      786.81278      2106.5936      2893.4064      2106.5936      2893.4064      2106.5936      2893.4064      4.8709561e+08  0.1            21704540       47.330762      635.36656      6353.6723      0.73703965   
  85400600   306.02459      0.25600706    -59406023       1.4388422      911.28896     -59405112       786.8047       786.8047       786.8047       2106.5977      2893.4023      2106.5977      2893.4023      2106.5977      2893.4023      4.870806e+08   0.1            21704560       47.362266      634.84002      6348.4093      0.70498639   
  85400800   305.97303      3.0331377     -59406096       1.4389221      911.13544     -59405185       786.79013      786.79013      786.79013      2106.6049      2893.3951      2106.6049      2893.3951      2106.6049      2893.3951      4.8705355e+08  0.1            21704580       47.393676      636.73801      6367.3699      0.67293254   
  85401000   305.72209      0.76727068    -59406169       1.4388624      910.38819     -59405259       786.80101      786.80101      786.80101      2106.5995      2893.4005      2106.5995      2893.4005      2106.5995      2893.4005      4.8707375e+08  0.1            21704600       47.425263      633.15818      6331.582       0.64088196   
  85401200   305.95191     -0.54989772    -59406242       1.438829       911.07254     -59405331       786.8071       786.8071       786.8071       2106.5964      2893.4036      2106.5964      2893.4036      2106.5964      2893.4036      4.8708507e+08  0.1            21704620       47.456742      635.35976      6353.5956      0.6088306    
  85401400   306.13007      1.8231273     -59406315       1.4388977      911.60307     -59405403       786.79458      786.79458      786.79458      2106.6027      2893.3973      2106.6027      2893.3973      2106.6027      2893.3973      4.870618e+08   0.1            21704640       47.488243      634.88274      6348.829       0.57678031   
  85401600   306.01885      1.9868349     -59406388       1.4389053      911.27188     -59405477       786.79319      786.79319      786.79319      2106.6034      2893.3966      2106.6034      2893.3966      2106.6034      2893.3966      4.8705923e+08  0.1            21704660       47.519948      630.82611      6308.2566      0.54473307   
  85401800   305.94843     -0.13509728    -59406461       1.4388496      911.06218     -59405550       786.80334      786.80334      786.80334      2106.5983      2893.4017      2106.5983      2893.4017      2106.5983      2893.4017      4.8707807e+08  0.1            21704680       47.551586      632.15013      6321.5107      0.51268558   
  85402000   305.7096       0.59380181    -59406534       1.4388729      910.35098     -59405624       786.7991       786.7991       786.7991       2106.6005      2893.3995      2106.6005      2893.3995      2106.6005      2893.3995      4.870702e+08   0.1            21704700       47.583059      635.45749      6354.569       0.48063698   
  85402200   305.95098      2.2192837     -59406607       1.438921       911.06978     -59405695       786.79034      786.79034      786.79034      2106.6048      2893.3952      2106.6048      2893.3952      2106.6048      2893.3952      4.8705393e+08  0.1            21704720       47.614634      633.42158      6334.2075      0.44859011   
  85402400   306.1201       1.821751      -59414057       1.4389207      911.57337     -59413146       786.79039      786.79039      786.79039      2106.6048      2893.3952      2106.6048      2893.3952      2106.6048      2893.3952      4.8705402e+08  0.1            21704740       47.645899      639.69201      6396.9254      0.41654116   
  85402600   305.99909     -0.53147934    -59406752       1.438851       911.21305     -59405841       786.80308      786.80308      786.80308      2106.5985      2893.4015      2106.5985      2893.4015      2106.5985      2893.4015      4.870776e+08   0.1            21704760       47.677375      635.3946       6353.9403      0.38449498   
  85402800   305.9398      -0.15751572    -59414203       1.4388722      911.03647     -59413292       786.79923      786.79923      786.79923      2106.6004      2893.3996      2106.6004      2893.3996      2106.6004      2893.3996      4.8707045e+08  0.1            21704780       47.70925       627.46248      6273.9455      0.35245252   
  85403000   305.70374      1.0286603     -59414276       1.4389081      910.33352     -59413366       786.79268      786.79268      786.79268      2106.6037      2893.3963      2106.6037      2893.3963      2106.6037      2893.3963      4.8705828e+08  0.1            21704800       47.740709      635.74399      6358.1479      0.32040746   
  85403200   305.9431       2.3188165     -59414348       1.438947       911.04631     -59413437       786.78559      786.78559      786.78559      2106.6072      2893.3928      2106.6072      2893.3928      2106.6072      2893.3928      4.8704512e+08  0.1            21704820       47.772139      636.34008      6363.4075      0.28836302   
  85403400   306.10385      0.21337272    -59414421       1.4388918      911.52499     -59413510       786.79564      786.79564      786.79564      2106.6022      2893.3978      2106.6022      2893.3978      2106.6022      2893.3978      4.8706379e+08  0.1            21704840       47.803687      633.95296      6339.5272      0.25632005   
  85403600   305.99068     -0.033639275   -59414494       1.4388882      911.18801     -59413583       786.79631      786.79631      786.79631      2106.6018      2893.3982      2106.6018      2893.3982      2106.6018      2893.3982      4.8706503e+08  0.1            21704860       47.835131      636.04441      6360.4383      0.22427725   
  85403800   305.93976      2.6071851     -59414566       1.4389645      911.03637     -59413655       786.78241      786.78241      786.78241      2106.6088      2893.3912      2106.6088      2893.3912      2106.6088      2893.3912      4.870392e+08   0.1            21704880       47.866695      633.64478      6336.4443      0.19223573   
  85404000   305.69314      1.2639393     -59414639       1.4389305      910.30198     -59413729       786.7886       786.7886       786.7886       2106.6057      2893.3943      2106.6057      2893.3943      2106.6057      2893.3943      4.8705071e+08  0.1            21704900       47.898329      632.23076      6322.3198      0.16019509   
  85404200   305.91809     -1.3376577     -59414712       1.4388617      910.97183     -59413801       786.80115      786.80115      786.80115      2106.5994      2893.4006      2106.5994      2893.4006      2106.5994      2893.4006      4.8707401e+08  0.1            21704920       47.929749      636.5355       6365.3402      0.12815441   
  85404400   306.10197      2.3140423     -59414784       1.438966       911.51941     -59413872       786.78213      786.78213      786.78213      2106.6089      2893.3911      2106.6089      2893.3911      2106.6089      2893.3911      4.8703869e+08  0.1            21704940       47.961635      627.23452      6272.3574      0.096115504  
  85404600   305.99224      3.2528528     -59414856       1.4389952      911.19265     -59413945       786.7768       786.7768       786.7768       2106.6116      2893.3884      2106.6116      2893.3884      2106.6116      2893.3884      4.870288e+08   0.1            21704960       47.993085      635.91812      6359.1783      0.064076218  
  85404800   305.90863     -2.4936194     -59414929       1.4388393      910.94366     -59414018       786.80522      786.80522      786.80522      2106.5974      2893.4026      2106.5974      2893.4026      2106.5974      2893.4026      4.8708157e+08  0.1            21704980       48.024906      628.52615      6285.2532      0.032037964  
  85405000   305.68084      0.72853034    -59415002       1.4389318      910.26535     -59414092       786.78836      786.78836      786.78836      2106.6058      2893.3942      2106.6058      2893.3942      2106.6058      2893.3942      4.8705026e+08  0.1            21705000       48.056373      635.57689      6355.7782      0            
Loop time of 48.0564 on 1 procs for 300000 steps with 1000 atoms

Performance: 53.937 ns/day, 0.445 hours/ns, 6242.667 timesteps/s
99.7% CPU use with 1 MPI tasks x 1 OpenMP threads

MPI task timing breakdown:
Section |  min time  |  avg time  |  max time  |%varavg| %total
---------------------------------------------------------------
Pair    | 36.907     | 36.907     | 36.907     |   0.0 | 76.80
Neigh   | 0.024089   | 0.024089   | 0.024089   |   0.0 |  0.05
Comm    | 1.3481     | 1.3481     | 1.3481     |   0.0 |  2.81
Output  | 0.030657   | 0.030657   | 0.030657   |   0.0 |  0.06
Modify  | 8.7548     | 8.7548     | 8.7548     |   0.0 | 18.22
Other   |            | 0.9917     |            |       |  2.06

Nlocal:           1000 ave        1000 max        1000 min
Histogram: 1 0 0 0 0 0 0 0 0 0
Nghost:           1295 ave        1295 max        1295 min
Histogram: 1 0 0 0 0 0 0 0 0 0
Neighs:           6728 ave        6728 max        6728 min
Histogram: 1 0 0 0 0 0 0 0 0 0

Total # of neighbors = 6728
Ave neighs/atom = 6.728
Neighbor list builds = 41
Dangerous builds = 4

# run_style
run_style verlet

# write restart
write_restart ${write_res}
write_restart ./pgnpmf/01000/equpmf122.res
System init for write_restart ...
Generated 0 of 1 mixed pair_coeff terms from geometric mixing rule

Total wall time: 0:01:43
