LAMMPS (23 Jun 2022 - Update 1)
OMP_NUM_THREADS environment is not set. Defaulting to 1 thread. (src/comm.cpp:98)
  using 1 OpenMP thread(s) per MPI task
# Read restart
read_restart ${read_res}
read_restart ./pgnpmf/01000/equpmf90.res
Reading restart file ...
  restart file = 23 Jun 2022, LAMMPS = 23 Jun 2022
  restoring atom style atomic from restart
  orthogonal box = (2021.0107 2021.0107 2021.0107) to (2978.9893 2978.9893 2978.9893)
  1 by 1 by 1 MPI processor grid
  restoring pair style table from restart
  1000 atoms
  read_restart CPU = 0.006 seconds

# Settings

pair_style table spline 9941

pair_coeff 1 1 ./pgnpmf/N20.txt DE_GNP 75.6
pair_coeff 2 2 ./pgnpmf/N100.txt DE_GNP 115.92
WARNING: 3 of 9941 force values in table DE_GNP are inconsistent with -dE/dr.
WARNING:  Should only be flagged at inflection points (src/pair_table.cpp:463)
pair_coeff 1 2 ./pgnpmf/mixed_potential.txt DE_GNP 95.66
WARNING: 1562 of 9941 force values in table DE_GNP are inconsistent with -dE/dr.
WARNING:  Should only be flagged at inflection points (src/pair_table.cpp:463)

#Neigh_list Calc Frequency

neigh_modify delay 0 every 1 check yes

# Saving Frequency (50 frames)

variable ts_save equal ${steps_equ}
variable ts_save equal 5000

# Dump
#dump 1 all custom ${ts_save} ./pgnpmf/${folder}/equilibration/trajectory/trajectory_${usic}_${trial}.equ.custom type x y z ix iy iz
#dump_modify 1 first no sort id
#dump 2 all cfg 50000 ./equilibration/trajectory/ovito/dumpgen.tens_*.cfg mass type xs ys zs fx fy fz

# thermo_style
thermo_style custom step temp press pe density ke etotal lx ly lz xlo xhi ylo yhi zlo zhi vol dt time cpu tpcpu spcpu cpuremain

# run info
timestep ${ts}
timestep 0.1
thermo 200

# fix

fix 1 all momentum 1000 linear 1 1 1 angular
variable T equal ${temp}
variable T equal 300
fix 2 all nvt temp ${T} 370000 100.0
fix 2 all nvt temp 300 370000 100.0

run 100000
Generated 0 of 1 mixed pair_coeff terms from geometric mixing rule
Unused restart file global fix info:
  fix style: npt, fix ID: 5
Neighbor list info ...
  update every 1 steps, delay 0 steps, check yes
  max neighbors/atom: 2000, page size: 100000
  master list distance cutoff = 117.92
  ghost atom cutoff = 117.92
  binsize = 58.96, bins = 17 17 17
  1 neighbor lists, perpetual/occasional/extra = 1 0 0
  (1) pair table, perpetual
      attributes: half, newton on
      pair build: half/bin/atomonly/newton
      stencil: half/bin/3d
      bin: standard
Per MPI rank memory allocation (min/avg/max) = 3.141 | 3.141 | 3.141 Mbytes
   Step          Temp          Press          PotEng        Density         KinEng         TotEng           Lx             Ly             Lz            Xlo            Xhi            Ylo            Yhi            Zlo            Zhi           Volume           Dt            Time           CPU           T/CPU          S/CPU         CPULeft    
  63005000   307.47001      0.67314965    -50227984       0.79716203     915.5932      -50227069       957.97857      957.97857      957.97857      2021.0107      2978.9893      2021.0107      2978.9893      2021.0107      2978.9893      8.7915892e+08  0.1            19465000       0              0              0              0            
  63005200   344.89135      0.5811468     -50228081       0.79716203     1027.0276     -50227054       957.97857      957.97857      957.97857      2021.0107      2978.9893      2021.0107      2978.9893      2021.0107      2978.9893      8.7915892e+08  0.1            19465020       0.031966329    625.64516      6256.3026      15.95226     
  63005400   397.53807      0.48489825    -50228185       0.79716203     1183.8005     -50227001       957.97857      957.97857      957.97857      2021.0107      2978.9893      2021.0107      2978.9893      2021.0107      2978.9893      8.7915892e+08  0.1            19465040       0.061109889    686.26095      6862.6227      15.21685     
  63005600   455.26171      0.38199274    -50228296       0.79716203     1355.6916     -50226941       957.97857      957.97857      957.97857      2021.0107      2978.9893      2021.0107      2978.9893      2021.0107      2978.9893      8.7915892e+08  0.1            19465060       0.089723966    698.95733      6989.5723      14.864587    
  63005800   524.72442      0.27305577    -50228416       0.79716203     1562.5397     -50226853       957.97857      957.97857      957.97857      2021.0107      2978.9893      2021.0107      2978.9893      2021.0107      2978.9893      8.7915892e+08  0.1            19465080       0.11858646     692.94259      6929.4316      14.704945    
  63006000   605.63288      0.15723014    -50228544       0.79716203     1803.4713     -50226740       957.97857      957.97857      957.97857      2021.0107      2978.9893      2021.0107      2978.9893      2021.0107      2978.9893      8.7915892e+08  0.1            19465100       0.14747873     692.22797      6922.2792      14.600567    
  63006200   699.00816      0.034626623   -50228681       0.79716203     2081.527      -50226599       957.97857      957.97857      957.97857      2021.0107      2978.9893      2021.0107      2978.9893      2021.0107      2978.9893      8.7915892e+08  0.1            19465120       0.17732688     670.0585       6700.5796      14.600059    
  63006400   806.08622     -0.095568381   -50228828       0.79716203     2400.3871     -50226428       957.97857      957.97857      957.97857      2021.0107      2978.9893      2021.0107      2978.9893      2021.0107      2978.9893      8.7915892e+08  0.1            19465140       0.20655114     684.36121      6843.6173      14.547229    
  63006600   928.42307     -0.23359736    -50228986       0.79716203     2764.6854     -50226222       957.97857      957.97857      957.97857      2021.0107      2978.9893      2021.0107      2978.9893      2021.0107      2978.9893      8.7915892e+08  0.1            19465160       0.2353129      695.36684      6953.6643      14.471861    
  63006800   1067.8102     -0.37964652    -50229156       0.79716203     3179.7564     -50225976       957.97857      957.97857      957.97857      2021.0107      2978.9893      2021.0107      2978.9893      2021.0107      2978.9893      8.7915892e+08  0.1            19465180       0.26451335     684.92323      6849.2393      14.430767    
  63007000   1225.8565     -0.38099224    -50221960       0.79716203     3650.3913     -50218309       957.97857      957.97857      957.97857      2021.0107      2978.9893      2021.0107      2978.9893      2021.0107      2978.9893      8.7915892e+08  0.1            19465200       0.29343217     691.59096      6915.9067      14.378262    
  63007200   1405.4573     -0.54306245    -50222154       0.79716203     4185.2118     -50217969       957.97857      957.97857      957.97857      2021.0107      2978.9893      2021.0107      2978.9893      2021.0107      2978.9893      8.7915892e+08  0.1            19465220       0.32266759     684.10185      6841.0168      14.344117    
  63007400   1608.8654     -0.71344467    -50222362       0.79716203     4790.9265     -50217571       957.97857      957.97857      957.97857      2021.0107      2978.9893      2021.0107      2978.9893      2021.0107      2978.9893      8.7915892e+08  0.1            19465240       0.35146479     694.51257      6945.1255      14.292971    
  63007600   1838.8449     -0.89217267    -50222584       0.79716203     5475.7662     -50217108       957.97857      957.97857      957.97857      2021.0107      2978.9893      2021.0107      2978.9893      2021.0107      2978.9893      8.7915892e+08  0.1            19465260       0.38034728     692.46059      6924.6102      14.248458    
  63007800   2098.4366     -1.0792583     -50222821       0.79716203     6248.7858     -50216573       957.97857      957.97857      957.97857      2021.0107      2978.9893      2021.0107      2978.9893      2021.0107      2978.9893      8.7915892e+08  0.1            19465280       0.40978928     679.30135      6793.0119      14.225603    
  63008000   2390.5441     -1.2748078     -50223075       0.79716203     7118.6323     -50215956       957.97857      957.97857      957.97857      2021.0107      2978.9893      2021.0107      2978.9893      2021.0107      2978.9893      8.7915892e+08  0.1            19465300       0.43859919     694.20579      6942.0516      14.18143     
  63008200   2719.442      -1.4784045     -50223344       0.79716203     8098.0339     -50215246       957.97857      957.97857      957.97857      2021.0107      2978.9893      2021.0107      2978.9893      2021.0107      2978.9893      8.7915892e+08  0.1            19465320       0.46807377     678.55016      6785.5087      14.159285    
  63008400   3088.8393     -1.5379413     -50216253       0.79716203     9198.036      -50207055       957.97857      957.97857      957.97857      2021.0107      2978.9893      2021.0107      2978.9893      2021.0107      2978.9893      8.7915892e+08  0.1            19465340       0.49670073     698.64256      6986.4209      14.112195    
  63008600   3502.9557     -1.7595433     -50216559       0.79716203     10431.204     -50206127       957.97857      957.97857      957.97857      2021.0107      2978.9893      2021.0107      2978.9893      2021.0107      2978.9893      8.7915892e+08  0.1            19465360       0.52550105     694.4369       6944.3654      14.071799    
  63008800   3966.2763     -1.9904562     -50216883       0.79716203     11810.894     -50205073       957.97857      957.97857      957.97857      2021.0107      2978.9893      2021.0107      2978.9893      2021.0107      2978.9893      8.7915892e+08  0.1            19465380       0.55433793     693.55669      6935.5768      14.033545    
  63009000   4483.1486     -2.2313576     -50217228       0.79716203     13350.051     -50203878       957.97857      957.97857      957.97857      2021.0107      2978.9893      2021.0107      2978.9893      2021.0107      2978.9893      8.7915892e+08  0.1            19465400       0.58313445     694.52786      6945.2784      13.995269    
  63009200   5059.2126     -2.4826431     -50217594       0.79716203     15065.471     -50202529       957.97857      957.97857      957.97857      2021.0107      2978.9893      2021.0107      2978.9893      2021.0107      2978.9893      8.7915892e+08  0.1            19465420       0.61200381     692.77661      6927.7663      13.959554    
  63009400   5699.3852     -2.7460969     -50217982       0.79716203     16971.796     -50201010       957.97857      957.97857      957.97857      2021.0107      2978.9893      2021.0107      2978.9893      2021.0107      2978.9893      8.7915892e+08  0.1            19465440       0.64074033     695.97738      6959.7741      13.921578    
  63009600   6408.9164     -3.0233334     -50218392       0.79716203     19084.659     -50199308       957.97857      957.97857      957.97857      2021.0107      2978.9893      2021.0107      2978.9893      2021.0107      2978.9893      8.7915892e+08  0.1            19465460       0.66988982     686.11774      6861.16        13.892973    
  63009800   7193.0428     -3.3160925     -50218826       0.79716203     21419.653     -50197407       957.97857      957.97857      957.97857      2021.0107      2978.9893      2021.0107      2978.9893      2021.0107      2978.9893      8.7915892e+08  0.1            19465480       0.69863963     695.65808      6956.6016      13.856387    
  63010000   8056.4327     -3.6262488     -50219286       0.79716203     23990.681     -50195295       957.97857      957.97857      957.97857      2021.0107      2978.9893      2021.0107      2978.9893      2021.0107      2978.9893      8.7915892e+08  0.1            19465500       0.72759515     690.71485      6907.1366      13.824341    
  63010200   9004.5209     -3.8016661     -50212392       0.79716203     26813.925     -50185578       957.97857      957.97857      957.97857      2021.0107      2978.9893      2021.0107      2978.9893      2021.0107      2978.9893      8.7915892e+08  0.1            19465520       0.75647395     692.54994      6925.5046      13.791133    
  63010400   10041.278     -4.1493803     -50212903       0.79716203     29901.21      -50183001       957.97857      957.97857      957.97857      2021.0107      2978.9893      2021.0107      2978.9893      2021.0107      2978.9893      8.7915892e+08  0.1            19465540       0.78516077     697.18411      6971.8365      13.754884    
  63010600   11170.112     -4.5163821     -50213440       0.79716203     33262.685     -50180178       957.97857      957.97857      957.97857      2021.0107      2978.9893      2021.0107      2978.9893      2021.0107      2978.9893      8.7915892e+08  0.1            19465560       0.81401508     693.13689      6931.3754      13.721998    
  63010800   12393.34      -4.9024117     -50214006       0.79716203     36905.249     -50177101       957.97857      957.97857      957.97857      2021.0107      2978.9893      2021.0107      2978.9893      2021.0107      2978.9893      8.7915892e+08  0.1            19465580       0.84283016     694.08133      6940.8078      13.688753    
  63011000   13711.405     -5.306011      -50214600       0.79716203     40830.222     -50173770       957.97857      957.97857      957.97857      2021.0107      2978.9893      2021.0107      2978.9893      2021.0107      2978.9893      8.7915892e+08  0.1            19465600       0.87181347     690.0521       6900.5257      13.658438    
  63011200   15123.941     -5.7240589     -50215223       0.79716203     45036.514     -50170187       957.97857      957.97857      957.97857      2021.0107      2978.9893      2021.0107      2978.9893      2021.0107      2978.9893      8.7915892e+08  0.1            19465620       0.90095625     686.276        6862.7411      13.630624    
  63011400   16627.399     -6.1536207     -50215875       0.79716203     49513.555     -50166362       957.97857      957.97857      957.97857      2021.0107      2978.9893      2021.0107      2978.9893      2021.0107      2978.9893      8.7915892e+08  0.1            19465640       0.92992215     690.46747      6904.699       13.600137    
  63011600   18215.686     -6.590402      -50216557       0.79716203     54243.203     -50162313       957.97857      957.97857      957.97857      2021.0107      2978.9893      2021.0107      2978.9893      2021.0107      2978.9893      8.7915892e+08  0.1            19465660       0.958947       689.06398      6890.627       13.570579    
  63011800   19879.454     -7.0306825     -50217267       0.79716203     59197.619     -50158070       957.97857      957.97857      957.97857      2021.0107      2978.9893      2021.0107      2978.9893      2021.0107      2978.9893      8.7915892e+08  0.1            19465680       0.9877019      695.53317      6955.337       13.53735     
  63012000   21605.23      -7.4735831     -50218007       0.79716203     64336.686     -50153670       957.97857      957.97857      957.97857      2021.0107      2978.9893      2021.0107      2978.9893      2021.0107      2978.9893      8.7915892e+08  0.1            19465700       1.0165097      694.25731      6942.5716      13.505081    
  63012200   23376.448     -7.9208231     -50218774       0.79716203     69611.072     -50149163       957.97857      957.97857      957.97857      2021.0107      2978.9893      2021.0107      2978.9893      2021.0107      2978.9893      8.7915892e+08  0.1            19465720       1.0451634      697.9895       6979.8997      13.471017    
  63012400   25171.241     -8.3756747     -50219568       0.79716203     74955.656     -50144612       957.97857      957.97857      957.97857      2021.0107      2978.9893      2021.0107      2978.9893      2021.0107      2978.9893      8.7915892e+08  0.1            19465740       1.073884       696.36571      6963.6569      13.438083    
  63012600   26963.408     -8.8412585     -50220387       0.79716203     80292.425     -50140095       957.97857      957.97857      957.97857      2021.0107      2978.9893      2021.0107      2978.9893      2021.0107      2978.9893      8.7915892e+08  0.1            19465760       1.1026914      694.26637      6942.6594      13.406427    
  63012800   28722.336     -9.1720957     -50213854       0.79716203     85530.213     -50128324       957.97857      957.97857      957.97857      2021.0107      2978.9893      2021.0107      2978.9893      2021.0107      2978.9893      8.7915892e+08  0.1            19465780       1.1314751      694.83724      6948.3807      13.374636    
  63013000   30412.584     -9.5276572     -50207343       0.79716203     90563.482     -50116780       957.97857      957.97857      957.97857      2021.0107      2978.9893      2021.0107      2978.9893      2021.0107      2978.9893      8.7915892e+08  0.1            19465800       1.1604387      690.52051      6905.2047      13.345066    
  63013200   31996.896     -10.068124     -50208230       0.79716203     95281.292     -50112949       957.97857      957.97857      957.97857      2021.0107      2978.9893      2021.0107      2978.9893      2021.0107      2978.9893      8.7915892e+08  0.1            19465820       1.1891772      695.93089      6959.3006      13.313004    
  63013400   33435.533     -10.643965     -50209134       0.79716203     99565.309     -50109569       957.97857      957.97857      957.97857      2021.0107      2978.9893      2021.0107      2978.9893      2021.0107      2978.9893      8.7915892e+08  0.1            19465840       1.2179563      694.95017      6949.505       13.281542    
  63013600   34690.093     -11.105146     -50202675       0.79716203     103301.17     -50099374       957.97857      957.97857      957.97857      2021.0107      2978.9893      2021.0107      2978.9893      2021.0107      2978.9893      8.7915892e+08  0.1            19465860       1.2468498      692.19678      6921.9656      13.251422    
  63013800   35727.294     -11.763259     -50203605       0.79716203     106389.78     -50097215       957.97857      957.97857      957.97857      2021.0107      2978.9893      2021.0107      2978.9893      2021.0107      2978.9893      8.7915892e+08  0.1            19465880       1.2759116      688.1886       6881.8857      13.223102    
  63014000   36523.579     -12.31732      -50197164       0.79716203     108760.98     -50088403       957.97857      957.97857      957.97857      2021.0107      2978.9893      2021.0107      2978.9893      2021.0107      2978.9893      8.7915892e+08  0.1            19465900       1.3047613      693.24787      6932.4825      13.192604    
  63014200   37072.243     -13.07219      -50198105       0.79716203     110394.81     -50087711       957.97857      957.97857      957.97857      2021.0107      2978.9893      2021.0107      2978.9893      2021.0107      2978.9893      8.7915892e+08  0.1            19465920       1.3335446      694.84835      6948.482       13.161522    
  63014400   37386.245     -13.864628     -50199048       0.79716203     111329.85     -50087718       957.97857      957.97857      957.97857      2021.0107      2978.9893      2021.0107      2978.9893      2021.0107      2978.9893      8.7915892e+08  0.1            19465940       1.362527       690.07283      6900.7298      13.132458    
  63014600   37501.315     -14.679208     -50199988       0.79716203     111672.51     -50088315       957.97857      957.97857      957.97857      2021.0107      2978.9893      2021.0107      2978.9893      2021.0107      2978.9893      8.7915892e+08  0.1            19465960       1.3918877      681.18369      6811.8432      13.106958    
  63014800   37472.54      -15.505134     -50200924       0.79716203     111586.82     -50089337       957.97857      957.97857      957.97857      2021.0107      2978.9893      2021.0107      2978.9893      2021.0107      2978.9893      8.7915892e+08  0.1            19465980       1.4217735      669.21354      6692.1293      13.086135    
  63015000   37366.556     -16.33395      -50201854       0.79716203     111271.22     -50090583       957.97857      957.97857      957.97857      2021.0107      2978.9893      2021.0107      2978.9893      2021.0107      2978.9893      8.7915892e+08  0.1            19466000       1.4505002      696.21547      6962.1539      13.054518    
  63015200   37254.015     -17.156279     -50202778       0.79716203     110936.1      -50091842       957.97857      957.97857      957.97857      2021.0107      2978.9893      2021.0107      2978.9893      2021.0107      2978.9893      8.7915892e+08  0.1            19466020       1.4794884      689.93771      6899.3821      13.025315    
  63015400   37200.826     -17.808445     -50196319       0.79716203     110777.71     -50085542       957.97857      957.97857      957.97857      2021.0107      2978.9893      2021.0107      2978.9893      2021.0107      2978.9893      8.7915892e+08  0.1            19466040       1.5082949      694.2878       6942.8695      12.994555    
  63015600   37264.767     -18.583492     -50197234       0.79716203     110968.11     -50086266       957.97857      957.97857      957.97857      2021.0107      2978.9893      2021.0107      2978.9893      2021.0107      2978.9893      8.7915892e+08  0.1            19466060       1.5369844      697.11891      6971.1913      12.962883    
  63015800   37493.984     -19.319927     -50198146       0.79716203     111650.68     -50086495       957.97857      957.97857      957.97857      2021.0107      2978.9893      2021.0107      2978.9893      2021.0107      2978.9893      8.7915892e+08  0.1            19466080       1.5659898      689.52699      6895.2737      12.93393     
  63016000   37925.8       -20.019591     -50199057       0.79716203     112936.56     -50086120       957.97857      957.97857      957.97857      2021.0107      2978.9893      2021.0107      2978.9893      2021.0107      2978.9893      8.7915892e+08  0.1            19466100       1.5947349      695.77175      6957.7117      12.902869    
  63016200   38586.157     -20.536624     -50192591       0.79716203     114902.99     -50077688       957.97857      957.97857      957.97857      2021.0107      2978.9893      2021.0107      2978.9893      2021.0107      2978.9893      8.7915892e+08  0.1            19466120       1.6238838      686.12972      6861.2986      12.875093    
  63016400   39484.686     -21.182373     -50193508       0.79716203     117578.65     -50075929       957.97857      957.97857      957.97857      2021.0107      2978.9893      2021.0107      2978.9893      2021.0107      2978.9893      8.7915892e+08  0.1            19466140       1.6533116      679.63032      6796.3016      12.849435    
  63016600   40612.272     -21.813071     -50194431       0.79716203     120936.41     -50073495       957.97857      957.97857      957.97857      2021.0107      2978.9893      2021.0107      2978.9893      2021.0107      2978.9893      8.7915892e+08  0.1            19466160       1.6822022      692.26587      6922.653       12.819555    
  63016800   41939.558     -22.590406     -50202741       0.79716203     124888.84     -50077852       957.97857      957.97857      957.97857      2021.0107      2978.9893      2021.0107      2978.9893      2021.0107      2978.9893      8.7915892e+08  0.1            19466180       1.7120359      670.38374      6703.8446      12.796756    
  63017000   43419.151     -23.522028     -50218440       0.79716203     129294.82     -50089145       957.97857      957.97857      957.97857      2021.0107      2978.9893      2021.0107      2978.9893      2021.0107      2978.9893      8.7915892e+08  0.1            19466200       1.7431893      641.98325      6419.8298      12.783401    
  63017200   44991.677     -24.306082     -50226772       0.79716203     133977.53     -50092795       957.97857      957.97857      957.97857      2021.0107      2978.9893      2021.0107      2978.9893      2021.0107      2978.9893      8.7915892e+08  0.1            19466220       1.7733384      663.36765      6633.6686      12.762237    
  63017400   46591.166     -25.105861     -50235116       0.79716203     138740.54     -50096375       957.97857      957.97857      957.97857      2021.0107      2978.9893      2021.0107      2978.9893      2021.0107      2978.9893      8.7915892e+08  0.1            19466240       1.8039886      652.52787      6525.2874      12.744319    
  63017600   48151.664     -25.479028     -50221337       0.79716203     143387.43     -50077949       957.97857      957.97857      957.97857      2021.0107      2978.9893      2021.0107      2978.9893      2021.0107      2978.9893      8.7915892e+08  0.1            19466260       1.8335997      675.42182      6754.2207      12.718791    
  63017800   49610.399     -26.19563      -50222323       0.79716203     147731.3      -50074592       957.97857      957.97857      957.97857      2021.0107      2978.9893      2021.0107      2978.9893      2021.0107      2978.9893      8.7915892e+08  0.1            19466280       1.8629189      682.1475       6821.4732      12.691147    
  63018000   50911.026     -26.940957     -50223318       0.79716203     151604.34     -50071714       957.97857      957.97857      957.97857      2021.0107      2978.9893      2021.0107      2978.9893      2021.0107      2978.9893      8.7915892e+08  0.1            19466300       1.8935743      652.41214      6524.1065      12.672394    
  63018200   52008.375     -27.397296     -50209562       0.79716203     154872.06     -50054690       957.97857      957.97857      957.97857      2021.0107      2978.9893      2021.0107      2978.9893      2021.0107      2978.9893      8.7915892e+08  0.1            19466320       1.9243062      650.78887      6507.8874      12.653784    
  63018400   52870.347     -28.472975     -50225322       0.79716203     157438.87     -50067884       957.97857      957.97857      957.97857      2021.0107      2978.9893      2021.0107      2978.9893      2021.0107      2978.9893      8.7915892e+08  0.1            19466340       1.9534962      685.167        6851.673       12.624846    
  63018600   53482.438     -29.24439      -50226327       0.79716203     159261.57     -50067065       957.97857      957.97857      957.97857      2021.0107      2978.9893      2021.0107      2978.9893      2021.0107      2978.9893      8.7915892e+08  0.1            19466360       1.9827618      683.39674      6833.9842      12.59638     
  63018800   53852.159     -29.728085     -50212573       0.79716203     160362.53     -50052210       957.97857      957.97857      957.97857      2021.0107      2978.9893      2021.0107      2978.9893      2021.0107      2978.9893      8.7915892e+08  0.1            19466380       2.0119038      686.29413      6862.9413      12.56712     
  63019000   54008.646     -30.537605     -50213571       0.79716203     160828.53     -50052742       957.97857      957.97857      957.97857      2021.0107      2978.9893      2021.0107      2978.9893      2021.0107      2978.9893      8.7915892e+08  0.1            19466400       2.0407238      693.9631       6939.6344      12.535885    
  63019200   54001.829     -31.349544     -50214562       0.79716203     160808.22     -50053754       957.97857      957.97857      957.97857      2021.0107      2978.9893      2021.0107      2978.9893      2021.0107      2978.9893      8.7915892e+08  0.1            19466420       2.0696669      691.01165      6910.118       12.505462    
  63019400   53895.04      -32.004775     -50208167       0.79716203     160490.22     -50047677       957.97857      957.97857      957.97857      2021.0107      2978.9893      2021.0107      2978.9893      2021.0107      2978.9893      8.7915892e+08  0.1            19466440       2.0982783      699.02112      6990.2077      12.473109    
  63019600   53758.736     -32.512867     -50194388       0.79716203     160084.34     -50034303       957.97857      957.97857      957.97857      2021.0107      2978.9893      2021.0107      2978.9893      2021.0107      2978.9893      8.7915892e+08  0.1            19466460       2.1270767      694.48336      6944.8353      12.441952    
  63019800   53661.956     -33.334132     -50195356       0.79716203     159796.14     -50035560       957.97857      957.97857      957.97857      2021.0107      2978.9893      2021.0107      2978.9893      2021.0107      2978.9893      8.7915892e+08  0.1            19466480       2.1557264      698.08678      6980.8664      12.410003    
  63020000   53667.833     -34.000106     -50188939       0.79716203     159813.64     -50029126       957.97857      957.97857      957.97857      2021.0107      2978.9893      2021.0107      2978.9893      2021.0107      2978.9893      8.7915892e+08  0.1            19466500       2.1843891      697.77243      6977.726       12.378215    
  63020200   53831.064     -34.801628     -50189894       0.79716203     160299.72     -50029595       957.97857      957.97857      957.97857      2021.0107      2978.9893      2021.0107      2978.9893      2021.0107      2978.9893      8.7915892e+08  0.1            19466520       2.2131007      696.58334      6965.8317      12.346782    
  63020400   54194.463     -35.416956     -50183468       0.79716203     161381.86     -50022086       957.97857      957.97857      957.97857      2021.0107      2978.9893      2021.0107      2978.9893      2021.0107      2978.9893      8.7915892e+08  0.1            19466540       2.2418645      695.31779      6953.1779      12.315707    
  63020600   54788.047     -35.982751     -50177039       0.79716203     163149.45     -50013889       957.97857      957.97857      957.97857      2021.0107      2978.9893      2021.0107      2978.9893      2021.0107      2978.9893      8.7915892e+08  0.1            19466560       2.2709002      688.80754      6888.072       12.286162    
  63020800   55626.142     -36.795691     -50185365       0.79716203     165645.15     -50019720       957.97857      957.97857      957.97857      2021.0107      2978.9893      2021.0107      2978.9893      2021.0107      2978.9893      8.7915892e+08  0.1            19466580       2.2996257      696.24528      6962.4542      12.254976    
  63021000   56704.854     -37.396988     -50186315       0.79716203     168857.37     -50017457       957.97857      957.97857      957.97857      2021.0107      2978.9893      2021.0107      2978.9893      2021.0107      2978.9893      8.7915892e+08  0.1            19466600       2.3285512      691.43144      6914.3089      12.224903    
  63021200   58001.819     -37.648531     -50172510       0.79716203     172719.51     -49999791       957.97857      957.97857      957.97857      2021.0107      2978.9893      2021.0107      2978.9893      2021.0107      2978.9893      8.7915892e+08  0.1            19466620       2.3572476      696.95192      6969.5277      12.193672    
  63021400   59475.2       -38.317473     -50180844       0.79716203     177106.99     -50003737       957.97857      957.97857      957.97857      2021.0107      2978.9893      2021.0107      2978.9893      2021.0107      2978.9893      8.7915892e+08  0.1            19466640       2.3859708      696.29977      6962.9909      12.16264     
  63021600   61067.433     -38.799108     -50181803       0.79716203     181848.39     -49999955       957.97857      957.97857      957.97857      2021.0107      2978.9893      2021.0107      2978.9893      2021.0107      2978.9893      8.7915892e+08  0.1            19466660       2.414701       696.13218      6961.3186      12.131699    
  63021800   62711.108     -39.268375     -50182767       0.79716203     186742.97     -49996024       957.97857      957.97857      957.97857      2021.0107      2978.9893      2021.0107      2978.9893      2021.0107      2978.9893      8.7915892e+08  0.1            19466680       2.4432858      699.67231      6996.7294      12.100091    
  63022000   64334.43      -39.75435      -50183734       0.79716203     191576.95     -49992157       957.97857      957.97857      957.97857      2021.0107      2978.9893      2021.0107      2978.9893      2021.0107      2978.9893      8.7915892e+08  0.1            19466700       2.4722292      691.00334      6910.0447      12.070304    
  63022200   65868.328     -40.57984      -50199461       0.79716203     196144.63     -50003317       957.97857      957.97857      957.97857      2021.0107      2978.9893      2021.0107      2978.9893      2021.0107      2978.9893      8.7915892e+08  0.1            19466720       2.5007019      702.42783      7024.2632      12.038271    
  63022400   67248.274     -41.133675     -50200435       0.79716203     200253.88     -50000182       957.97857      957.97857      957.97857      2021.0107      2978.9893      2021.0107      2978.9893      2021.0107      2978.9893      8.7915892e+08  0.1            19466740       2.5296258      691.46892      6914.6799      12.008462    
  63022600   68420.668     -41.558735     -50194033       0.79716203     203745.07     -49990287       957.97857      957.97857      957.97857      2021.0107      2978.9893      2021.0107      2978.9893      2021.0107      2978.9893      8.7915892e+08  0.1            19466760       2.5584042      694.96613      6949.6705      11.977991    
  63022800   69346.873     -42.160624     -50195006       0.79716203     206503.15     -49988503       957.97857      957.97857      957.97857      2021.0107      2978.9893      2021.0107      2978.9893      2021.0107      2978.9893      8.7915892e+08  0.1            19466780       2.5870752      697.5688       6975.6939      11.947063    
  63023000   70007.387     -42.795215     -50195977       0.79716203     208470.04     -49987507       957.97857      957.97857      957.97857      2021.0107      2978.9893      2021.0107      2978.9893      2021.0107      2978.9893      8.7915892e+08  0.1            19466800       2.6163701      682.71232      6827.1232      11.919027    
  63023200   70405.631     -43.318849     -50189564       0.79716203     209655.95     -49979908       957.97857      957.97857      957.97857      2021.0107      2978.9893      2021.0107      2978.9893      2021.0107      2978.9893      8.7915892e+08  0.1            19466820       2.6462073      670.30216      6703.0081      11.893402    
  63023400   70567.91      -43.913794     -50183144       0.79716203     210139.19     -49973004       957.97857      957.97857      957.97857      2021.0107      2978.9893      2021.0107      2978.9893      2021.0107      2978.9893      8.7915892e+08  0.1            19466840       2.675349       686.30343      6863.0409      11.864599    
  63023600   70542.639     -44.598624     -50176714       0.79716203     210063.93     -49966650       957.97857      957.97857      957.97857      2021.0107      2978.9893      2021.0107      2978.9893      2021.0107      2978.9893      8.7915892e+08  0.1            19466860       2.7040914      695.83571      6958.3561      11.834042    
  63023800   70394.349     -45.494346     -50177654       0.79716203     209622.35     -49968031       957.97857      957.97857      957.97857      2021.0107      2978.9893      2021.0107      2978.9893      2021.0107      2978.9893      8.7915892e+08  0.1            19466880       2.7333031      684.65774      6846.5849      11.805551    
  63024000   70196.236     -46.22747      -50171205       0.79716203     209032.4      -49962173       957.97857      957.97857      957.97857      2021.0107      2978.9893      2021.0107      2978.9893      2021.0107      2978.9893      8.7915892e+08  0.1            19466900       2.7621964      692.20269      6922.0257      11.775687    
  63024200   70023.826     -46.758504     -50157369       0.79716203     208519        -49948850       957.97857      957.97857      957.97857      2021.0107      2978.9893      2021.0107      2978.9893      2021.0107      2978.9893      8.7915892e+08  0.1            19466920       2.7910899      692.19737      6921.9817      11.745844    
  63024400   69946.971     -47.539067     -50158279       0.79716203     208290.14     -49949989       957.97857      957.97857      957.97857      2021.0107      2978.9893      2021.0107      2978.9893      2021.0107      2978.9893      8.7915892e+08  0.1            19466940       2.8201543      688.12651      6881.262       11.716731    
  63024600   70026.859     -48.102881     -50151803       0.79716203     208528.03     -49943275       957.97857      957.97857      957.97857      2021.0107      2978.9893      2021.0107      2978.9893      2021.0107      2978.9893      8.7915892e+08  0.1            19466960       2.8492973      686.27063      6862.6969      11.687941    
  63024800   70312.868     -48.754937     -50152696       0.79716203     209379.72     -49943316       957.97857      957.97857      957.97857      2021.0107      2978.9893      2021.0107      2978.9893      2021.0107      2978.9893      8.7915892e+08  0.1            19466980       2.8783439      688.55088      6885.5119      11.658753    
  63025000   70840.286     -49.204398     -50146205       0.79716203     210950.27     -49935255       957.97857      957.97857      957.97857      2021.0107      2978.9893      2021.0107      2978.9893      2021.0107      2978.9893      8.7915892e+08  0.1            19467000       2.907223       692.54104      6925.4118      11.628899    
  63025200   71628.558     -49.761941     -50147087       0.79716203     213297.62     -49933790       957.97857      957.97857      957.97857      2021.0107      2978.9893      2021.0107      2978.9893      2021.0107      2978.9893      8.7915892e+08  0.1            19467020       2.9369709      672.31722      6723.1709      11.602496    
  63025400   72677.599     -50.274996     -50147967       0.79716203     216421.48     -49931545       957.97857      957.97857      957.97857      2021.0107      2978.9893      2021.0107      2978.9893      2021.0107      2978.9893      8.7915892e+08  0.1            19467040       2.9659688      689.70395      6897.0457      11.573101    
  63025600   73967.15      -50.895695     -50156222       0.79716203     220261.54     -49935961       957.97857      957.97857      957.97857      2021.0107      2978.9893      2021.0107      2978.9893      2021.0107      2978.9893      8.7915892e+08  0.1            19467060       2.9947799      694.17721      6941.7762      11.542993    
  63025800   75456.793     -51.479735     -50164476       0.79716203     224697.44     -49939779       957.97857      957.97857      957.97857      2021.0107      2978.9893      2021.0107      2978.9893      2021.0107      2978.9893      8.7915892e+08  0.1            19467080       3.0237847      689.54159      6895.4064      11.513648    
  63026000   77088.501     -51.596027     -50150596       0.79716203     229556.39     -49921040       957.97857      957.97857      957.97857      2021.0107      2978.9893      2021.0107      2978.9893      2021.0107      2978.9893      8.7915892e+08  0.1            19467100       3.0527339      690.86543      6908.6526      11.484101    
  63026200   78792.771     -51.889843     -50144094       0.79716203     234631.42     -49909462       957.97857      957.97857      957.97857      2021.0107      2978.9893      2021.0107      2978.9893      2021.0107      2978.9893      8.7915892e+08  0.1            19467120       3.0818462      686.9943       6869.944       11.455171    
  63026400   80493.111     -52.219522     -50137592       0.79716203     239694.74     -49897897       957.97857      957.97857      957.97857      2021.0107      2978.9893      2021.0107      2978.9893      2021.0107      2978.9893      8.7915892e+08  0.1            19467140       3.1106159      695.17684      6951.7776      11.424979    
  63026600   82112.688     -52.706754     -50138467       0.79716203     244517.56     -49893949       957.97857      957.97857      957.97857      2021.0107      2978.9893      2021.0107      2978.9893      2021.0107      2978.9893      8.7915892e+08  0.1            19467160       3.1400736      678.93804      6789.3677      11.397311    
  63026800   83580.116     -53.320258     -50146718       0.79716203     248887.31     -49897831       957.97857      957.97857      957.97857      2021.0107      2978.9893      2021.0107      2978.9893      2021.0107      2978.9893      8.7915892e+08  0.1            19467180       3.1692321      685.90735      6859.0632      11.368537    
  63027000   84834.551     -53.911037     -50154965       0.79716203     252622.81     -49902343       957.97857      957.97857      957.97857      2021.0107      2978.9893      2021.0107      2978.9893      2021.0107      2978.9893      8.7915892e+08  0.1            19467200       3.1986827      679.10336      6791.0511      11.34079     
  63027200   85831.393     -54.353838     -50155828       0.79716203     255591.23     -49900237       957.97857      957.97857      957.97857      2021.0107      2978.9893      2021.0107      2978.9893      2021.0107      2978.9893      8.7915892e+08  0.1            19467220       3.2275574      692.64899      6926.4918      11.310995    
  63027400   86545.565     -54.973893     -50164062       0.79716203     257717.91     -49906344       957.97857      957.97857      957.97857      2021.0107      2978.9893      2021.0107      2978.9893      2021.0107      2978.9893      8.7915892e+08  0.1            19467240       3.2568134      683.61989      6836.1882      11.282538    
  63027600   86975.912     -55.314168     -50157532       0.79716203     258999.41     -49898532       957.97857      957.97857      957.97857      2021.0107      2978.9893      2021.0107      2978.9893      2021.0107      2978.9893      8.7915892e+08  0.1            19467260       3.2868922      664.91999      6649.207       11.256885    
  63027800   87145.831     -55.843683     -50158369       0.79716203     259505.4      -49898863       957.97857      957.97857      957.97857      2021.0107      2978.9893      2021.0107      2978.9893      2021.0107      2978.9893      8.7915892e+08  0.1            19467280       3.3157772      692.40121      6924.0164      11.227111    
  63028000   87102.264     -56.25483      -50151817       0.79716203     259375.67     -49892442       957.97857      957.97857      957.97857      2021.0107      2978.9893      2021.0107      2978.9893      2021.0107      2978.9893      8.7915892e+08  0.1            19467300       3.344579       694.39977      6943.9883      11.197075    
  63028200   86911.37      -56.851325     -50152632       0.79716203     258807.22     -49893825       957.97857      957.97857      957.97857      2021.0107      2978.9893      2021.0107      2978.9893      2021.0107      2978.9893      8.7915892e+08  0.1            19467320       3.3735768      689.70818      6897.0942      11.167708    
  63028400   86649.936     -57.48881      -50153436       0.79716203     258028.71     -49895408       957.97857      957.97857      957.97857      2021.0107      2978.9893      2021.0107      2978.9893      2021.0107      2978.9893      8.7915892e+08  0.1            19467340       3.4028677      682.8049       6828.0341      11.139308    
  63028600   86398.305     -58.17051      -50154229       0.79716203     257279.4      -49896949       957.97857      957.97857      957.97857      2021.0107      2978.9893      2021.0107      2978.9893      2021.0107      2978.9893      8.7915892e+08  0.1            19467360       3.4317308      692.92605      6929.2725      11.109507    
  63028800   86233.695     -59.024295     -50162388       0.79716203     256789.22     -49905599       957.97857      957.97857      957.97857      2021.0107      2978.9893      2021.0107      2978.9893      2021.0107      2978.9893      8.7915892e+08  0.1            19467380       3.4605681      693.54645      6935.4604      11.07964     
  63029000   86224.388     -59.700749     -50163159       0.79716203     256761.5      -49906397       957.97857      957.97857      957.97857      2021.0107      2978.9893      2021.0107      2978.9893      2021.0107      2978.9893      8.7915892e+08  0.1            19467400       3.4892679      696.86865      6968.6853      11.049354    
  63029200   86427.147     -60.295521     -50163919       0.79716203     257365.29     -49906554       957.97857      957.97857      957.97857      2021.0107      2978.9893      2021.0107      2978.9893      2021.0107      2978.9893      8.7915892e+08  0.1            19467420       3.5179455      697.40877      6974.0987      11.019025    
  63029400   86882.971     -60.792434     -50164669       0.79716203     258722.65     -49905947       957.97857      957.97857      957.97857      2021.0107      2978.9893      2021.0107      2978.9893      2021.0107      2978.9893      8.7915892e+08  0.1            19467440       3.5465129      700.10021      7001.0023      10.988381    
  63029600   87616.06      -61.066149     -50158033       0.79716203     260905.66     -49897127       957.97857      957.97857      957.97857      2021.0107      2978.9893      2021.0107      2978.9893      2021.0107      2978.9893      8.7915892e+08  0.1            19467460       3.5755677      688.35376      6883.5286      10.959266    
  63029800   88630.486     -61.42835      -50158767       0.79716203     263926.45     -49894840       957.97857      957.97857      957.97857      2021.0107      2978.9893      2021.0107      2978.9893      2021.0107      2978.9893      8.7915892e+08  0.1            19467480       3.6040471      702.26144      7022.6191      10.928406    
  63030000   89908.186     -61.892033     -50166872       0.79716203     267731.22     -49899141       957.97857      957.97857      957.97857      2021.0107      2978.9893      2021.0107      2978.9893      2021.0107      2978.9893      8.7915892e+08  0.1            19467500       3.6328153      695.21345      6952.1323      10.898451    
  63030200   91410.678     -62.176012     -50167595       0.79716203     272205.39     -49895390       957.97857      957.97857      957.97857      2021.0107      2978.9893      2021.0107      2978.9893      2021.0107      2978.9893      8.7915892e+08  0.1            19467520       3.6617947      690.14372      6901.417       10.869142    
  63030400   93079.279     -62.602626     -50175691       0.79716203     277174.2      -49898517       957.97857      957.97857      957.97857      2021.0107      2978.9893      2021.0107      2978.9893      2021.0107      2978.9893      8.7915892e+08  0.1            19467540       3.6912802      678.30098      6783.0302      10.841324    
  63030600   94841.348     -62.736269     -50169027       0.79716203     282421.34     -49886606       957.97857      957.97857      957.97857      2021.0107      2978.9893      2021.0107      2978.9893      2021.0107      2978.9893      8.7915892e+08  0.1            19467560       3.7201622      692.47337      6924.732       10.811726    
  63030800   96615.743     -62.885548     -50162360       0.79716203     287705.19     -49874655       957.97857      957.97857      957.97857      2021.0107      2978.9893      2021.0107      2978.9893      2021.0107      2978.9893      8.7915892e+08  0.1            19467580       3.7489484      694.77598      6947.7649      10.781864    
  63031000   98319.74      -63.165796     -50163067       0.79716203     292779.4      -49870287       957.97857      957.97857      957.97857      2021.0107      2978.9893      2021.0107      2978.9893      2021.0107      2978.9893      8.7915892e+08  0.1            19467600       3.7779014      690.77621      6907.758       10.752493    
  63031200   99875.696     -63.088781     -50149011       0.79716203     297412.77     -49851599       957.97857      957.97857      957.97857      2021.0107      2978.9893      2021.0107      2978.9893      2021.0107      2978.9893      8.7915892e+08  0.1            19467620       3.8065177      698.90047      6989.0042      10.722181    
  63031400   101216.04     -63.153062     -50142326       0.79716203     301404.08     -49840922       957.97857      957.97857      957.97857      2021.0107      2978.9893      2021.0107      2978.9893      2021.0107      2978.9893      8.7915892e+08  0.1            19467640       3.8355973      687.7686       6877.6772      10.693185    
  63031600   102289.42     -63.42835      -50143008       0.79716203     304600.43     -49838408       957.97857      957.97857      957.97857      2021.0107      2978.9893      2021.0107      2978.9893      2021.0107      2978.9893      8.7915892e+08  0.1            19467660       3.8646281      688.92221      6889.2278      10.664054    
  63031800   103065.48     -63.638526     -50136303       0.79716203     306911.4      -49829392       957.97857      957.97857      957.97857      2021.0107      2978.9893      2021.0107      2978.9893      2021.0107      2978.9893      8.7915892e+08  0.1            19467680       3.8940898      678.84757      6788.4759      10.636101    
  63032000   103538.18     -64.213256     -50144345       0.79716203     308319.01     -49836026       957.97857      957.97857      957.97857      2021.0107      2978.9893      2021.0107      2978.9893      2021.0107      2978.9893      8.7915892e+08  0.1            19467700       3.9231044      689.30945      6893.0966      10.606916    
  63032200   103727.84     -64.659924     -50144998       0.79716203     308883.8      -49836115       957.97857      957.97857      957.97857      2021.0107      2978.9893      2021.0107      2978.9893      2021.0107      2978.9893      8.7915892e+08  0.1            19467720       3.9519176      694.12568      6941.2556      10.577196    
  63032400   103679.01     -65.10787      -50145641       0.79716203     308738.4      -49836903       957.97857      957.97857      957.97857      2021.0107      2978.9893      2021.0107      2978.9893      2021.0107      2978.9893      8.7915892e+08  0.1            19467740       3.9809071      689.90525      6899.0556      10.547955    
  63032600   103456.87     -65.535407     -50146272       0.79716203     308076.89     -49838195       957.97857      957.97857      957.97857      2021.0107      2978.9893      2021.0107      2978.9893      2021.0107      2978.9893      8.7915892e+08  0.1            19467760       4.0096804      695.08938      6950.8924      10.518152    
  63032800   103140.38     -65.928972     -50146889       0.79716203     307134.44     -49839754       957.97857      957.97857      957.97857      2021.0107      2978.9893      2021.0107      2978.9893      2021.0107      2978.9893      8.7915892e+08  0.1            19467780       4.0384977      694.02519      6940.2398      10.488477    
  63033000   102814.6      -66.001931     -50132736       0.79716203     306164.31     -49826572       957.97857      957.97857      957.97857      2021.0107      2978.9893      2021.0107      2978.9893      2021.0107      2978.9893      8.7915892e+08  0.1            19467800       4.0672553      695.46934      6954.699       10.458661    
  63033200   102564.18     -66.698862     -50148083       0.79716203     305418.6      -49842664       957.97857      957.97857      957.97857      2021.0107      2978.9893      2021.0107      2978.9893      2021.0107      2978.9893      8.7915892e+08  0.1            19467820       4.0966866      679.54834      6795.4883      10.430575    
  63033400   102465.05     -66.797445     -50133907       0.79716203     305123.43     -49828783       957.97857      957.97857      957.97857      2021.0107      2978.9893      2021.0107      2978.9893      2021.0107      2978.9893      8.7915892e+08  0.1            19467840       4.1284857      628.94872      6289.4676      10.408441    
  63033600   102581.1      -67.027357     -50127099       0.79716203     305469        -49821630       957.97857      957.97857      957.97857      2021.0107      2978.9893      2021.0107      2978.9893      2021.0107      2978.9893      8.7915892e+08  0.1            19467860       4.1607666      619.5612       6195.6063      10.387373    
  63033800   102959.96     -67.496987     -50135037       0.79716203     306597.17     -49828440       957.97857      957.97857      957.97857      2021.0107      2978.9893      2021.0107      2978.9893      2021.0107      2978.9893      8.7915892e+08  0.1            19467880       4.1931562      617.48233      6174.8256      10.366419    
  63034000   103630.84     -67.868313     -50142966       0.79716203     308594.96     -49834371       957.97857      957.97857      957.97857      2021.0107      2978.9893      2021.0107      2978.9893      2021.0107      2978.9893      8.7915892e+08  0.1            19467900       4.2254755      618.82565      6188.2571      10.345134    
  63034200   104602.76     -67.842457     -50136131       0.79716203     311489.16     -49824642       957.97857      957.97857      957.97857      2021.0107      2978.9893      2021.0107      2978.9893      2021.0107      2978.9893      8.7915892e+08  0.1            19467920       4.2577166      620.3259       6203.2615      10.323509    
  63034400   105860.52     -67.917155     -50136666       0.79716203     315234.55     -49821431       957.97857      957.97857      957.97857      2021.0107      2978.9893      2021.0107      2978.9893      2021.0107      2978.9893      8.7915892e+08  0.1            19467940       4.2901161      617.29182      6172.9212      10.30212     
  63034600   107366.49     -67.852206     -50129814       0.79716203     319719.09     -49810095       957.97857      957.97857      957.97857      2021.0107      2978.9893      2021.0107      2978.9893      2021.0107      2978.9893      8.7915892e+08  0.1            19467960       4.3223078      621.27868      6212.7831      10.280088    
  63034800   109061.91     -67.822739     -50122956       0.79716203     324767.75     -49798188       957.97857      957.97857      957.97857      2021.0107      2978.9893      2021.0107      2978.9893      2021.0107      2978.9893      8.7915892e+08  0.1            19467980       4.3545669      619.98029      6199.8037      10.258078    
  63035000   110871.5      -67.948149     -50123468       0.79716203     330156.38     -49793312       957.97857      957.97857      957.97857      2021.0107      2978.9893      2021.0107      2978.9893      2021.0107      2978.9893      8.7915892e+08  0.1            19468000       4.3851474      654.01413      6540.1655      10.232014    
  63035200   112710.69     -68.16954      -50131351       0.79716203     335633.19     -49795718       957.97857      957.97857      957.97857      2021.0107      2978.9893      2021.0107      2978.9893      2021.0107      2978.9893      8.7915892e+08  0.1            19468020       4.4143425      685.04621      6850.4595      10.20269     
  63035400   114491.65     -68.32529      -50139226       0.79716203     340936.58     -49798289       957.97857      957.97857      957.97857      2021.0107      2978.9893      2021.0107      2978.9893      2021.0107      2978.9893      8.7915892e+08  0.1            19468040       4.442971       698.60259      6986.0183      10.172069    
  63035600   116131.26     -68.136841     -50132337       0.79716203     345819.07     -49786518       957.97857      957.97857      957.97857      2021.0107      2978.9893      2021.0107      2978.9893      2021.0107      2978.9893      8.7915892e+08  0.1            19468060       4.472129       685.91885      6859.1972      10.142676    
  63035800   117556.56     -67.960494     -50125441       0.79716203     350063.36     -49775378       957.97857      957.97857      957.97857      2021.0107      2978.9893      2021.0107      2978.9893      2021.0107      2978.9893      8.7915892e+08  0.1            19468080       4.5009718      693.4128       6934.1213      10.112577    
  63036000   118709.81     -67.843835     -50118536       0.79716203     353497.55     -49765039       957.97857      957.97857      957.97857      2021.0107      2978.9893      2021.0107      2978.9893      2021.0107      2978.9893      8.7915892e+08  0.1            19468100       4.5295996      698.62355      6986.2357      10.082016    
  63036200   119554.95     -67.808514     -50111622       0.79716203     356014.22     -49755607       957.97857      957.97857      957.97857      2021.0107      2978.9893      2021.0107      2978.9893      2021.0107      2978.9893      8.7915892e+08  0.1            19468120       4.5582791      697.3613       6973.6196      10.051594    
  63036400   120079.94     -67.700768     -50097318       0.79716203     357577.56     -49739740       957.97857      957.97857      957.97857      2021.0107      2978.9893      2021.0107      2978.9893      2021.0107      2978.9893      8.7915892e+08  0.1            19468140       4.5870279      695.68073      6956.8003      10.021345    
  63036600   120300.24     -68.118867     -50105137       0.79716203     358233.56     -49746903       957.97857      957.97857      957.97857      2021.0107      2978.9893      2021.0107      2978.9893      2021.0107      2978.9893      8.7915892e+08  0.1            19468160       4.616065       688.77454      6887.7487      9.9917394    
  63036800   120257.47     -68.421007     -50105566       0.79716203     358106.22     -49747460       957.97857      957.97857      957.97857      2021.0107      2978.9893      2021.0107      2978.9893      2021.0107      2978.9893      8.7915892e+08  0.1            19468180       4.6451081      688.63215      6886.3194      9.9621538    
  63037000   120015.79     -68.42244      -50091228       0.79716203     357386.52     -49733841       957.97857      957.97857      957.97857      2021.0107      2978.9893      2021.0107      2978.9893      2021.0107      2978.9893      8.7915892e+08  0.1            19468200       4.6745593      679.09093      6790.9146      9.933442     
  63037200   119656.83     -68.567312     -50084256       0.79716203     356317.61     -49727938       957.97857      957.97857      957.97857      2021.0107      2978.9893      2021.0107      2978.9893      2021.0107      2978.9893      8.7915892e+08  0.1            19468220       4.7048891      659.4141       6594.1204      9.9065719    
  63037400   119268.94     -68.834207     -50084649       0.79716203     355162.52     -49729487       957.97857      957.97857      957.97857      2021.0107      2978.9893      2021.0107      2978.9893      2021.0107      2978.9893      8.7915892e+08  0.1            19468240       4.7349967      664.28642      6642.8829      9.8791942    
  63037600   118941.7      -68.745677     -50070276       0.79716203     354188.08     -49716088       957.97857      957.97857      957.97857      2021.0107      2978.9893      2021.0107      2978.9893      2021.0107      2978.9893      8.7915892e+08  0.1            19468260       4.7646585      674.26821      6742.6823      9.8508619    
  63037800   118757.72     -68.755025     -50063270       0.79716203     353640.22     -49709630       957.97857      957.97857      957.97857      2021.0107      2978.9893      2021.0107      2978.9893      2021.0107      2978.9893      8.7915892e+08  0.1            19468280       4.7932968      698.36484      6983.6479      9.8204165    
  63038000   118787.12     -68.409404     -50041498       0.79716203     353727.75     -49687770       957.97857      957.97857      957.97857      2021.0107      2978.9893      2021.0107      2978.9893      2021.0107      2978.9893      8.7915892e+08  0.1            19468300       4.8221423      693.349        6933.4907      9.7904136    
  63038200   119085.76     -68.816617     -50056606       0.79716203     354617.05     -49701989       957.97857      957.97857      957.97857      2021.0107      2978.9893      2021.0107      2978.9893      2021.0107      2978.9893      8.7915892e+08  0.1            19468320       4.8508979      695.51713      6955.1772      9.7602438    
  63038400   119688.47     -68.937419     -50056950       0.79716203     356411.82     -49700538       957.97857      957.97857      957.97857      2021.0107      2978.9893      2021.0107      2978.9893      2021.0107      2978.9893      8.7915892e+08  0.1            19468340       4.8800532      685.98212      6859.8129      9.7308879    
  63038600   120608.31     -69.081254     -50057285       0.79716203     359150.94     -49698134       957.97857      957.97857      957.97857      2021.0107      2978.9893      2021.0107      2978.9893      2021.0107      2978.9893      8.7915892e+08  0.1            19468360       4.9086722      698.83697      6988.3749      9.7004745    
  63038800   121835        -68.896192     -50042857       0.79716203     362803.81     -49680054       957.97857      957.97857      957.97857      2021.0107      2978.9893      2021.0107      2978.9893      2021.0107      2978.9893      8.7915892e+08  0.1            19468380       4.9377321      688.23132      6882.3103      9.6709461    
  63039000   123332.68     -69.073568     -50050557       0.79716203     367263.65     -49683293       957.97857      957.97857      957.97857      2021.0107      2978.9893      2021.0107      2978.9893      2021.0107      2978.9893      8.7915892e+08  0.1            19468400       4.9668649      686.5134       6865.1307      9.6415645    
  63039200   125043.08     -69.12526      -50058249       0.79716203     372356.94     -49685892       957.97857      957.97857      957.97857      2021.0107      2978.9893      2021.0107      2978.9893      2021.0107      2978.9893      8.7915892e+08  0.1            19468420       4.9957925      691.38002      6913.8138      9.6117912    
  63039400   126889.5      -68.789829     -50051176       0.79716203     377855.28     -49673320       957.97857      957.97857      957.97857      2021.0107      2978.9893      2021.0107      2978.9893      2021.0107      2978.9893      8.7915892e+08  0.1            19468440       5.0246107      694.007        6940.064       9.5818189    
  63039600   128784.17     -68.436675     -50044095       0.79716203     383497.26     -49660597       957.97857      957.97857      957.97857      2021.0107      2978.9893      2021.0107      2978.9893      2021.0107      2978.9893      8.7915892e+08  0.1            19468460       5.0534097      694.46858      6944.6815      9.5518238    
  63039800   130635.26     -68.544586     -50059140       0.79716203     389009.5      -49670130       957.97857      957.97857      957.97857      2021.0107      2978.9893      2021.0107      2978.9893      2021.0107      2978.9893      8.7915892e+08  0.1            19468480       5.0822482      693.51783      6935.1749      9.5219165    
  63040000   132353.76     -68.514497     -50066798       0.79716203     394126.91     -49672671       957.97857      957.97857      957.97857      2021.0107      2978.9893      2021.0107      2978.9893      2021.0107      2978.9893      8.7915892e+08  0.1            19468500       5.1112332      690.01027      6900.0881      9.4922937    
  63040200   133861.24     -68.057388     -50052314       0.79716203     398615.9      -49653699       957.97857      957.97857      957.97857      2021.0107      2978.9893      2021.0107      2978.9893      2021.0107      2978.9893      8.7915892e+08  0.1            19468520       5.1418531      653.17066      6531.7226      9.4656873    
  63040400   135094.99     -67.952064     -50052579       0.79716203     402289.81     -49650289       957.97857      957.97857      957.97857      2021.0107      2978.9893      2021.0107      2978.9893      2021.0107      2978.9893      8.7915892e+08  0.1            19468540       5.1717824      668.23986      6682.3984      9.4377757    
  63040600   136013.17     -67.606149     -50038081       0.79716203     405024        -49633057       957.97857      957.97857      957.97857      2021.0107      2978.9893      2021.0107      2978.9893      2021.0107      2978.9893      8.7915892e+08  0.1            19468560       5.2003519      700.04941      7000.5059      9.4073811    
  63040800   136598.79     -67.77573      -50045710       0.79716203     406767.86     -49638942       957.97857      957.97857      957.97857      2021.0107      2978.9893      2021.0107      2978.9893      2021.0107      2978.9893      8.7915892e+08  0.1            19468580       5.2295283      685.48412      6854.8306      9.3780957    
  63041000   136860.9      -67.834649     -50045952       0.79716203     407548.4      -49638404       957.97857      957.97857      957.97857      2021.0107      2978.9893      2021.0107      2978.9893      2021.0107      2978.9893      8.7915892e+08  0.1            19468600       5.2580983      700.03539      7000.3645      9.3477332    
  63041200   136837.51     -67.807392     -50038806       0.79716203     407478.75     -49631328       957.97857      957.97857      957.97857      2021.0107      2978.9893      2021.0107      2978.9893      2021.0107      2978.9893      8.7915892e+08  0.1            19468620       5.2871243      689.03789      6890.362       9.3181945    
  63041400   136591.07     -68.151313     -50046407       0.79716203     406744.89     -49639662       957.97857      957.97857      957.97857      2021.0107      2978.9893      2021.0107      2978.9893      2021.0107      2978.9893      8.7915892e+08  0.1            19468640       5.316632       677.78843      6777.891       9.2895029    
  63041600   136202.78     -68.470597     -50053999       0.79716203     405588.61     -49648411       957.97857      957.97857      957.97857      2021.0107      2978.9893      2021.0107      2978.9893      2021.0107      2978.9893      8.7915892e+08  0.1            19468660       5.3454575      693.83197      6938.3139      9.2596205    
  63041800   135763.78     -68.533052     -50054204       0.79716203     404281.35     -49649923       957.97857      957.97857      957.97857      2021.0107      2978.9893      2021.0107      2978.9893      2021.0107      2978.9893      8.7915892e+08  0.1            19468680       5.3744749      689.24153      6892.427       9.2300793    
  63042000   135367.41     -68.808754     -50069155       0.79716203     403101.02     -49666054       957.97857      957.97857      957.97857      2021.0107      2978.9893      2021.0107      2978.9893      2021.0107      2978.9893      8.7915892e+08  0.1            19468700       5.4039489      678.56266      6785.6137      9.2013214    
  63042200   135102.66     -69.070679     -50084096       0.79716203     402312.64     -49681784       957.97857      957.97857      957.97857      2021.0107      2978.9893      2021.0107      2978.9893      2021.0107      2978.9893      8.7915892e+08  0.1            19468720       5.4326985      695.66241      6956.6379      9.1713326    
  63042400   135047.05     -68.920891     -50076896       0.79716203     402147.05     -49674749       957.97857      957.97857      957.97857      2021.0107      2978.9893      2021.0107      2978.9893      2021.0107      2978.9893      8.7915892e+08  0.1            19468740       5.461739       688.69248      6886.916       9.1418442    
  63042600   135262.5      -68.787285     -50069690       0.79716203     402788.64     -49666901       957.97857      957.97857      957.97857      2021.0107      2978.9893      2021.0107      2978.9893      2021.0107      2978.9893      8.7915892e+08  0.1            19468760       5.4907374      689.69325      6896.9303      9.1122905    
  63042800   135790.54     -68.59141      -50062478       0.79716203     404361.04     -49658117       957.97857      957.97857      957.97857      2021.0107      2978.9893      2021.0107      2978.9893      2021.0107      2978.9893      8.7915892e+08  0.1            19468780       5.519439       696.82573      6968.2582      9.0822543    
  63043000   136649.58     -68.310114     -50055260       0.79716203     406919.11     -49648340       957.97857      957.97857      957.97857      2021.0107      2978.9893      2021.0107      2978.9893      2021.0107      2978.9893      8.7915892e+08  0.1            19468800       5.5482424      694.36303      6943.637       9.0523983    
  63043200   137833.58     -67.984204     -50048034       0.79716203     410444.86     -49637589       957.97857      957.97857      957.97857      2021.0107      2978.9893      2021.0107      2978.9893      2021.0107      2978.9893      8.7915892e+08  0.1            19468820       5.5770133      695.14589      6951.4565      9.0225007    
  63043400   139309.87     -67.657279     -50040801       0.79716203     414841.02     -49625960       957.97857      957.97857      957.97857      2021.0107      2978.9893      2021.0107      2978.9893      2021.0107      2978.9893      8.7915892e+08  0.1            19468840       5.6056614      698.12709      6981.2702      8.9924179    
  63043600   141021.9      -67.335203     -50033562       0.79716203     419939.15     -49613623       957.97857      957.97857      957.97857      2021.0107      2978.9893      2021.0107      2978.9893      2021.0107      2978.9893      8.7915892e+08  0.1            19468860       5.6345765      691.68168      6916.819       8.9627746    
  63043800   142893.43     -67.456798     -50048451       0.79716203     425512.23     -49622939       957.97857      957.97857      957.97857      2021.0107      2978.9893      2021.0107      2978.9893      2021.0107      2978.9893      8.7915892e+08  0.1            19468880       5.6634577      692.4915       6924.9044      8.9330855    
  63044000   144834.1      -67.384041     -50055957       0.79716203     431291.23     -49624666       957.97857      957.97857      957.97857      2021.0107      2978.9893      2021.0107      2978.9893      2021.0107      2978.9893      8.7915892e+08  0.1            19468900       5.6931356      673.90213      6739.0326      8.9046506    
  63044200   146748.71     -67.099781     -50056080       0.79716203     436992.6      -49619088       957.97857      957.97857      957.97857      2021.0107      2978.9893      2021.0107      2978.9893      2021.0107      2978.9893      8.7915892e+08  0.1            19468920       5.7223196      685.30613      6853.058       8.8754372    
  63044400   148543.42     -66.923613     -50063575       0.79716203     442336.94     -49621238       957.97857      957.97857      957.97857      2021.0107      2978.9893      2021.0107      2978.9893      2021.0107      2978.9893      8.7915892e+08  0.1            19468940       5.7512413      691.5229       6915.2314      8.8458204    
  63044600   150133.68     -66.734624     -50071063       0.79716203     447072.46     -49623991       957.97857      957.97857      957.97857      2021.0107      2978.9893      2021.0107      2978.9893      2021.0107      2978.9893      8.7915892e+08  0.1            19468960       5.7803716      686.56954      6865.693       8.816529     
  63044800   151450.41     -66.411711     -50071166       0.79716203     450993.45     -49620172       957.97857      957.97857      957.97857      2021.0107      2978.9893      2021.0107      2978.9893      2021.0107      2978.9893      8.7915892e+08  0.1            19468980       5.80908        696.65973      6966.5963      8.786601     
  63045000   152445.47     -65.965907     -50063884       0.79716203     453956.57     -49609927       957.97857      957.97857      957.97857      2021.0107      2978.9893      2021.0107      2978.9893      2021.0107      2978.9893      8.7915892e+08  0.1            19469000       5.837867       694.75769      6947.5776      8.7568031    
  63045200   153096.47     -65.873314     -50071352       0.79716203     455895.15     -49615457       957.97857      957.97857      957.97857      2021.0107      2978.9893      2021.0107      2978.9893      2021.0107      2978.9893      8.7915892e+08  0.1            19469020       5.8670092      686.2914       6862.9116      8.7275436    
  63045400   153407.65     -65.559875     -50064059       0.79716203     456821.8      -49607237       957.97857      957.97857      957.97857      2021.0107      2978.9893      2021.0107      2978.9893      2021.0107      2978.9893      8.7915892e+08  0.1            19469040       5.8958727      692.9175       6929.176       8.6978741    
  63045600   153412.67     -65.475023     -50064138       0.79716203     456836.73     -49607301       957.97857      957.97857      957.97857      2021.0107      2978.9893      2021.0107      2978.9893      2021.0107      2978.9893      8.7915892e+08  0.1            19469060       5.9248849      689.36476      6893.6485      8.6684301    
  63045800   153171.12     -65.570985     -50071589       0.79716203     456117.43     -49615471       957.97857      957.97857      957.97857      2021.0107      2978.9893      2021.0107      2978.9893      2021.0107      2978.9893      8.7915892e+08  0.1            19469080       5.9537258      693.45853      6934.586       8.6387419    
  63046000   152763.13     -65.520126     -50071658       0.79716203     454902.51     -49616755       957.97857      957.97857      957.97857      2021.0107      2978.9893      2021.0107      2978.9893      2021.0107      2978.9893      8.7915892e+08  0.1            19469100       5.9830808      681.31501      6813.1503      8.6098017    
  63046200   152281.83     -65.650202     -50079098       0.79716203     453469.28     -49625629       957.97857      957.97857      957.97857      2021.0107      2978.9893      2021.0107      2978.9893      2021.0107      2978.9893      8.7915892e+08  0.1            19469120       6.0127779      673.46643      6734.6566      8.5813458    
  63046400   151824.77     -65.713216     -50079155       0.79716203     452108.23     -49627047       957.97857      957.97857      957.97857      2021.0107      2978.9893      2021.0107      2978.9893      2021.0107      2978.9893      8.7915892e+08  0.1            19469140       6.0416977      691.56736      6915.6767      8.5517775    
  63046600   151485.77     -65.995757     -50086585       0.79716203     451098.76     -49635486       957.97857      957.97857      957.97857      2021.0107      2978.9893      2021.0107      2978.9893      2021.0107      2978.9893      8.7915892e+08  0.1            19469160       6.0706233      691.42854      6914.2888      8.5222236    
  63046800   151348.74     -66.242003     -50094012       0.79716203     450690.69     -49643321       957.97857      957.97857      957.97857      2021.0107      2978.9893      2021.0107      2978.9893      2021.0107      2978.9893      8.7915892e+08  0.1            19469180       6.099417       694.59617      6945.9562      8.4924922    
  63047000   151481.07     -66.371258     -50101435       0.79716203     451084.77     -49650350       957.97857      957.97857      957.97857      2021.0107      2978.9893      2021.0107      2978.9893      2021.0107      2978.9893      8.7915892e+08  0.1            19469200       6.1284277      689.40188      6894.023       8.4630693    
  63047200   151930.79     -66.226226     -50101475       0.79716203     452423.94     -49649051       957.97857      957.97857      957.97857      2021.0107      2978.9893      2021.0107      2978.9893      2021.0107      2978.9893      8.7915892e+08  0.1            19469220       6.1571706      695.82404      6958.2358      8.4332834    
  63047400   152722.45     -66.010563     -50101509       0.79716203     454781.39     -49646728       957.97857      957.97857      957.97857      2021.0107      2978.9893      2021.0107      2978.9893      2021.0107      2978.9893      8.7915892e+08  0.1            19469240       6.186377       684.782        6847.8271      8.4041371    
  63047600   153855.26     -65.909543     -50108917       0.79716203     458154.7      -49650762       957.97857      957.97857      957.97857      2021.0107      2978.9893      2021.0107      2978.9893      2021.0107      2978.9893      8.7915892e+08  0.1            19469260       6.2152218      693.36636      6933.6626      8.374503     
  63047800   155301.29     -65.477016     -50101566       0.79716203     462460.71     -49639105       957.97857      957.97857      957.97857      2021.0107      2978.9893      2021.0107      2978.9893      2021.0107      2978.9893      8.7915892e+08  0.1            19469280       6.2443461      686.71082      6867.1016      8.3452499    
  63048000   157006.38     -65.168218     -50101591       0.79716203     467538.19     -49634052       957.97857      957.97857      957.97857      2021.0107      2978.9893      2021.0107      2978.9893      2021.0107      2978.9893      8.7915892e+08  0.1            19469300       6.2732828      691.16358      6911.6296      8.3157494    
  63048200   158894.91     -64.801881     -50101615       0.79716203     473161.9      -49628453       957.97857      957.97857      957.97857      2021.0107      2978.9893      2021.0107      2978.9893      2021.0107      2978.9893      8.7915892e+08  0.1            19469320       6.3022836      689.63757      6896.3917      8.286338     
  63048400   160874.58     -64.392731     -50101636       0.79716203     479057.02     -49622579       957.97857      957.97857      957.97857      2021.0107      2978.9893      2021.0107      2978.9893      2021.0107      2978.9893      8.7915892e+08  0.1            19469340       6.331199       691.67252      6916.7226      8.2568194    
  63048600   162846.47     -63.980188     -50101654       0.79716203     484928.99     -49616725       957.97857      957.97857      957.97857      2021.0107      2978.9893      2021.0107      2978.9893      2021.0107      2978.9893      8.7915892e+08  0.1            19469360       6.3600248      693.82181      6938.2193      8.2271903    
  63048800   164712.51     -63.549132     -50101668       0.79716203     490485.72     -49611183       957.97857      957.97857      957.97857      2021.0107      2978.9893      2021.0107      2978.9893      2021.0107      2978.9893      8.7915892e+08  0.1            19469380       6.3893932      681.00602      6810.0718      8.1982645    
  63049000   166382.98     -62.932051     -50094302       0.79716203     495460.1      -49598842       957.97857      957.97857      957.97857      2021.0107      2978.9893      2021.0107      2978.9893      2021.0107      2978.9893      8.7915892e+08  0.1            19469400       6.4184705      687.82127      6878.2007      8.1689646    
  63049200   167783.7      -62.303814     -50086934       0.79716203     499631.21     -49587303       957.97857      957.97857      957.97857      2021.0107      2978.9893      2021.0107      2978.9893      2021.0107      2978.9893      8.7915892e+08  0.1            19469420       6.447239       695.20386      6952.0345      8.1392768    
  63049400   168859.54     -61.824724     -50086939       0.79716203     502834.88     -49584104       957.97857      957.97857      957.97857      2021.0107      2978.9893      2021.0107      2978.9893      2021.0107      2978.9893      8.7915892e+08  0.1            19469440       6.4765521      682.28869      6822.8888      8.1102791    
  63049600   169580.91     -61.38578      -50086940       0.79716203     504982.99     -49581957       957.97857      957.97857      957.97857      2021.0107      2978.9893      2021.0107      2978.9893      2021.0107      2978.9893      8.7915892e+08  0.1            19469460       6.50532        695.21908      6952.1949      8.0806014    
  63049800   169947.02     -61.088946     -50086936       0.79716203     506073.22     -49580863       957.97857      957.97857      957.97857      2021.0107      2978.9893      2021.0107      2978.9893      2021.0107      2978.9893      8.7915892e+08  0.1            19469480       6.5342967      690.20993      6902.0974      8.0511891    
[...]
  63694400   307.95447      1.4363136     -50111461       0.81770096     917.03584     -50110544       949.88966      949.88966      949.88966      2025.0552      2974.9448      2025.0552      2974.9448      2025.0552      2974.9448      8.5707629e+08  0.1            19533940       50.393562      577.27468      5772.7525      1.8457905    
  63694600   307.9609       2.8210536     -50111556       0.81774981     917.05499     -50110639       949.87075      949.87075      949.87075      2025.0646      2974.9354      2025.0646      2974.9354      2025.0646      2974.9354      8.570251e+08   0.1            19533960       50.428079      579.41058      5794.1092      1.8109532    
  63694800   307.94736      2.5449217     -50111654       0.81774447     917.01466     -50110737       949.87282      949.87282      949.87282      2025.0636      2974.9364      2025.0636      2974.9364      2025.0636      2974.9364      8.570307e+08   0.1            19533980       50.462699      577.71418      5777.135       1.7761199    
  63695000   307.89082      0.65133776    -50111752       0.81768633     916.84627     -50110835       949.89533      949.89533      949.89533      2025.0523      2974.9477      2025.0523      2974.9477      2025.0523      2974.9477      8.5709163e+08  0.1            19534000       50.497495      574.7741       5747.748       1.741293     
  63695200   307.90146     -1.2027033     -50111849       0.81762943     916.87796     -50110932       949.91736      949.91736      949.91736      2025.0413      2974.9587      2025.0413      2974.9587      2025.0413      2974.9587      8.5715128e+08  0.1            19534020       50.531815      582.74765      5827.4651      1.7064501    
  63695400   307.92169     -1.1250921     -50111946       0.81763565     916.9382      -50111029       949.91496      949.91496      949.91496      2025.0425      2974.9575      2025.0425      2974.9575      2025.0425      2974.9575      8.5714476e+08  0.1            19534040       50.566682      573.60121      5736.0192      1.6716259    
  63695600   307.9359       1.2115029     -50112043       0.81771566     916.98052     -50111126       949.88397      949.88397      949.88397      2025.058       2974.942       2025.058       2974.942       2025.058       2974.942       8.5706089e+08  0.1            19534060       50.60174       570.49379      5704.9404      1.6368079    
  63695800   307.94678      3.8998934     -50112136       0.81780707     917.01293     -50111219       949.84858      949.84858      949.84858      2025.0757      2974.9243      2025.0757      2974.9243      2025.0757      2974.9243      8.5696509e+08  0.1            19534080       50.636474      575.79711      5757.9698      1.6019793    
  63696000   307.90822      4.1503144     -50112233       0.81781894     916.89809     -50111316       949.84398      949.84398      949.84398      2025.078       2974.922       2025.078       2974.922       2025.078       2974.922       8.5695266e+08  0.1            19534100       50.671245      575.20137      5752.0133      1.567152     
  63696200   307.90963      1.120209      -50112333       0.81772379     916.90229     -50111416       949.88082      949.88082      949.88082      2025.0596      2974.9404      2025.0596      2974.9404      2025.0596      2974.9404      8.5705237e+08  0.1            19534120       50.705864      577.70946      5777.0938      1.5323201    
  63696400   307.90015     -2.444275      -50112429       0.81761101     916.87407     -50111512       949.9245       949.9245       949.9245       2025.0378      2974.9622      2025.0378      2974.9622      2025.0378      2974.9622      8.5717059e+08  0.1            19534140       50.740507      577.32641      5773.2646      1.4974893    
  63696600   307.89287     -2.7202387     -50112525       0.8176057      916.85239     -50111608       949.92655      949.92655      949.92655      2025.0367      2974.9633      2025.0367      2974.9633      2025.0367      2974.9633      8.5717616e+08  0.1            19534160       50.775233      575.92643      5759.2623      1.4626611    
  63696800   307.90792      0.47564207    -50112624       0.81771391     916.89721     -50111707       949.88465      949.88465      949.88465      2025.0577      2974.9423      2025.0577      2974.9423      2025.0577      2974.9423      8.5706272e+08  0.1            19534180       50.809844      577.85947      5778.5957      1.4278298    
  63697000   307.89111      3.3581596     -50112718       0.81781172     916.84714     -50111801       949.84678      949.84678      949.84678      2025.0766      2974.9234      2025.0766      2974.9234      2025.0766      2974.9234      8.5696022e+08  0.1            19534200       50.845486      561.12713      5611.2706      1.3930271    
  63697200   307.91721      3.3167163     -50112815       0.8178141      916.92486     -50111898       949.84586      949.84586      949.84586      2025.0771      2974.9229      2025.0771      2974.9229      2025.0771      2974.9229      8.5695772e+08  0.1            19534220       50.880277      574.87199      5748.722       1.3582005    
  63697400   307.92193      1.4413513     -50112913       0.81775666     916.93894     -50111997       949.86809      949.86809      949.86809      2025.066       2974.934       2025.066       2974.934       2025.066       2974.934       8.5701792e+08  0.1            19534240       50.914779      579.67824      5796.7802      1.3233664    
  63697600   307.90419     -0.14646235    -50113010       0.81770856     916.88611     -50112094       949.88672      949.88672      949.88672      2025.0566      2974.9434      2025.0566      2974.9434      2025.0566      2974.9434      8.5706833e+08  0.1            19534260       50.949479      576.35853      5763.5843      1.2885378    
  63697800   307.89148     -0.35170659    -50113107       0.81770562     916.84825     -50112190       949.88786      949.88786      949.88786      2025.0561      2974.9439      2025.0561      2974.9439      2025.0561      2974.9439      8.5707142e+08  0.1            19534280       50.983981      579.6856       5796.8516      1.2537045    
  63698000   307.8595       0.66580495    -50113204       0.81774261     916.75302     -50112287       949.87353      949.87353      949.87353      2025.0632      2974.9368      2025.0632      2974.9368      2025.0632      2974.9368      8.5703264e+08  0.1            19534300       51.019008      570.98324      5709.8205      1.2188842    
  63698200   307.89562      1.850012      -50113300       0.81778502     916.86059     -50112383       949.85711      949.85711      949.85711      2025.0714      2974.9286      2025.0714      2974.9286      2025.0714      2974.9286      8.5698819e+08  0.1            19534320       51.053836      574.25194      5742.5355      1.184059     
  63698400   307.91787      2.0994479     -50113396       0.81779692     916.92683     -50112479       949.85251      949.85251      949.85251      2025.0737      2974.9263      2025.0737      2974.9263      2025.0737      2974.9263      8.5697573e+08  0.1            19534340       51.088837      571.4086       5714.0779      1.1492377    
  63698600   307.9061       1.2176541     -50113493       0.81777192     916.89179     -50112576       949.86219      949.86219      949.86219      2025.0689      2974.9311      2025.0689      2974.9311      2025.0689      2974.9311      8.5700193e+08  0.1            19534360       51.12357       575.82113      5758.2234      1.1144103    
  63698800   307.88631      0.12696033    -50113590       0.81774009     916.83285     -50112673       949.87451      949.87451      949.87451      2025.0627      2974.9373      2025.0627      2974.9373      2025.0627      2974.9373      8.5703529e+08  0.1            19534380       51.15864       570.29502      5702.9541      1.0795901    
  63699000   307.8452       0.0063990296  -50113686       0.81773992     916.71043     -50112770       949.87458      949.87458      949.87458      2025.0627      2974.9373      2025.0627      2974.9373      2025.0627      2974.9373      8.5703546e+08  0.1            19534400       51.193231      578.1832       5781.8279      1.0447599    
  63699200   307.88016      1.0505269     -50113783       0.81777777     916.81454     -50112866       949.85992      949.85992      949.85992      2025.07        2974.93        2025.07        2974.93        2025.07        2974.93        8.569958e+08   0.1            19534420       51.228254      571.04785      5710.4685      1.0099384    
  63699400   307.90897      2.1005251     -50113878       0.81781576     916.90032     -50112961       949.84521      949.84521      949.84521      2025.0774      2974.9226      2025.0774      2974.9226      2025.0774      2974.9226      8.5695599e+08  0.1            19534440       51.262809      578.78412      5787.8491      0.97510782   
  63699600   307.90201      1.7978696     -50113975       0.81780965     916.8796      -50113058       949.84758      949.84758      949.84758      2025.0762      2974.9238      2025.0762      2974.9238      2025.0762      2974.9238      8.5696239e+08  0.1            19534460       51.297539      575.87059      5758.7115      0.9402808    
  63699800   307.87917      0.32295832    -50114072       0.81776532     916.8116      -50113155       949.86474      949.86474      949.86474      2025.0676      2974.9324      2025.0676      2974.9324      2025.0676      2974.9324      8.5700884e+08  0.1            19534480       51.332027      579.92299      5799.2188      0.90544962   
  63700000   307.83323     -0.4047315     -50114168       0.81774534     916.6748      -50113252       949.87248      949.87248      949.87248      2025.0638      2974.9362      2025.0638      2974.9362      2025.0638      2974.9362      8.5702978e+08  0.1            19534500       51.366999      571.87207      5718.7244      0.87062714   
  63700200   307.87105      0.99673761    -50114265       0.81779479     916.78743     -50113348       949.85333      949.85333      949.85333      2025.0733      2974.9267      2025.0733      2974.9267      2025.0733      2974.9267      8.5697796e+08  0.1            19534520       51.401763      575.32267      5753.2247      0.83580105   
  63700400   307.90651      2.8622352     -50114359       0.81785926     916.89302     -50113442       949.82837      949.82837      949.82837      2025.0858      2974.9142      2025.0858      2974.9142      2025.0858      2974.9142      8.5691041e+08  0.1            19534540       51.436886      569.41345      5694.1369      0.80098066   
  63700600   307.89357      1.8232148     -50114457       0.81782917     916.85449     -50113540       949.84002      949.84002      949.84002      2025.08        2974.92        2025.08        2974.92        2025.08        2974.92        8.5694193e+08  0.1            19534560       51.473047      553.09604      5530.9635      0.76617528   
  63700800   307.85659     -1.3718162     -50114553       0.8177288      916.74437     -50113636       949.87888      949.87888      949.87888      2025.0606      2974.9394      2025.0606      2974.9394      2025.0606      2974.9394      8.5704712e+08  0.1            19534580       51.507914      573.59328      5735.9303      0.73134973   
  63701000   307.82235     -0.66640007    -50114650       0.81775554     916.64239     -50113733       949.86853      949.86853      949.86853      2025.0657      2974.9343      2025.0657      2974.9343      2025.0657      2974.9343      8.570191e+08   0.1            19534600       51.542637      575.99314      5759.9292      0.69652215   
  63701200   307.88653      3.960415      -50114743       0.81790972     916.83352     -50113826       949.80884      949.80884      949.80884      2025.0956      2974.9044      2025.0956      2974.9044      2025.0956      2974.9044      8.5685754e+08  0.1            19534620       51.577523      573.29269      5732.9277      0.66169681   
  63701400   307.89838      2.9191243     -50114841       0.81787958     916.86879     -50113924       949.82051      949.82051      949.82051      2025.0897      2974.9103      2025.0897      2974.9103      2025.0897      2974.9103      8.5688911e+08  0.1            19534640       51.612248      575.95867      5759.588       0.62686943   
  63701600   307.8501      -2.4026382     -50114937       0.8177101      916.72503     -50114020       949.88613      949.88613      949.88613      2025.0569      2974.9431      2025.0569      2974.9431      2025.0569      2974.9431      8.5706672e+08  0.1            19534660       51.646889      577.34984      5773.4971      0.59204123   
  63701800   307.85819     -0.057249623   -50115035       0.81779019     916.74911     -50114118       949.85511      949.85511      949.85511      2025.0724      2974.9276      2025.0724      2974.9276      2025.0724      2974.9276      8.5698278e+08  0.1            19534680       51.681579      576.5334       5765.3278      0.55721381   
  63702000   307.85444      4.3364813     -50115127       0.81793648     916.73796     -50114210       949.79848      949.79848      949.79848      2025.1008      2974.8992      2025.1008      2974.8992      2025.1008      2974.8992      8.5682951e+08  0.1            19534700       51.716423      573.98889      5739.8961      0.52238813   
  63702200   307.84899      0.42772737    -50115227       0.81781329     916.72173     -50114310       949.84617      949.84617      949.84617      2025.0769      2974.9231      2025.0769      2974.9231      2025.0769      2974.9231      8.5695858e+08  0.1            19534720       51.751082      577.05279      5770.5292      0.48756068   
  63702400   307.85408     -1.3562322     -50115323       0.81775893     916.73688     -50114406       949.86722      949.86722      949.86722      2025.0664      2974.9336      2025.0664      2974.9336      2025.0664      2974.9336      8.5701554e+08  0.1            19534740       51.785551      580.23237      5802.3217      0.4527318    
  63702600   307.88479      3.0013333     -50115417       0.81790402     916.82833     -50114501       949.81105      949.81105      949.81105      2025.0945      2974.9055      2025.0945      2974.9055      2025.0945      2974.9055      8.5686352e+08  0.1            19534760       51.820196      577.28241      5772.8193      0.41790482   
  63702800   307.86089      1.3845809     -50115515       0.8178552      916.75716     -50114598       949.82994      949.82994      949.82994      2025.085       2974.915       2025.085       2974.915       2025.085       2974.915       8.5691466e+08  0.1            19534780       51.854999      574.66254      5746.6315      0.38307925   
  63703000   307.80104     -1.0514926     -50115611       0.81777974     916.57893     -50114694       949.85916      949.85916      949.85916      2025.0704      2974.9296      2025.0704      2974.9296      2025.0704      2974.9296      8.5699373e+08  0.1            19534800       51.889508      579.56502      5795.6504      0.34825174   
  63703200   307.85819      2.7681945     -50115706       0.81790715     916.74912     -50114789       949.80984      949.80984      949.80984      2025.0951      2974.9049      2025.0951      2974.9049      2025.0951      2974.9049      8.5686023e+08  0.1            19534820       51.924308      574.70351      5747.0386      0.31342642   
  63703400   307.8621       0.80030592    -50115803       0.81784697     916.76077     -50114887       949.83313      949.83313      949.83313      2025.0834      2974.9166      2025.0834      2974.9166      2025.0834      2974.9166      8.5692328e+08  0.1            19534840       51.958971      576.99183      5769.9103      0.27860039   
  63703600   307.84774     -0.32344916    -50115899       0.8178141      916.718       -50114983       949.84586      949.84586      949.84586      2025.0771      2974.9229      2025.0771      2974.9229      2025.0771      2974.9229      8.5695773e+08  0.1            19534860       51.993815      573.98492      5739.8502      0.24377543   
  63703800   307.8634       2.9583295     -50115994       0.81792382     916.76464     -50115077       949.80338      949.80338      949.80338      2025.0983      2974.9017      2025.0983      2974.9017      2025.0983      2974.9017      8.5684277e+08  0.1            19534880       52.028266      580.53423      5805.3437      0.20894887   
  63704000   307.79421     -0.64653555    -50116091       0.81781069     916.55859     -50115175       949.84718      949.84718      949.84718      2025.0764      2974.9236      2025.0764      2974.9236      2025.0764      2974.9236      8.569613e+08   0.1            19534900       52.063125      573.73211      5737.323       0.17412417   
  63704200   307.83982      1.7977757     -50116187       0.81789326     916.69442     -50115270       949.81521      949.81521      949.81521      2025.0924      2974.9076      2025.0924      2974.9076      2025.0924      2974.9076      8.5687479e+08  0.1            19534920       52.097668      578.98564      5789.8577      0.13929858   
  63704400   307.85422      1.13809       -50116283       0.81787539     916.73731     -50115366       949.82213      949.82213      949.82213      2025.0889      2974.9111      2025.0889      2974.9111      2025.0889      2974.9111      8.5689351e+08  0.1            19534940       52.132223      578.78779      5787.8781      0.1044734    
  63704600   307.84042      0.10727412    -50116379       0.81784552     916.69621     -50115462       949.83369      949.83369      949.83369      2025.0832      2974.9168      2025.0832      2974.9168      2025.0832      2974.9168      8.5692481e+08  0.1            19534960       52.166957      575.81177      5758.1112      0.069648811  
  63704800   307.84767      2.3771862     -50116474       0.81792222     916.71779     -50115557       949.804        949.804        949.804        2025.098       2974.902       2025.098       2974.902       2025.098       2974.902       8.5684445e+08  0.1            19534980       52.201517      578.69655      5786.9691      0.034824229  
  63705000   307.78304     -0.63253309    -50116571       0.81782846     916.52533     -50115654       949.8403       949.8403       949.8403       2025.0799      2974.9201      2025.0799      2974.9201      2025.0799      2974.9201      8.5694268e+08  0.1            19535000       52.236131      577.81481      5778.1491      0            
Loop time of 52.2361 on 1 procs for 300000 steps with 1000 atoms

Performance: 49.621 ns/day, 0.484 hours/ns, 5743.150 timesteps/s
100.0% CPU use with 1 MPI tasks x 1 OpenMP threads

MPI task timing breakdown:
Section |  min time  |  avg time  |  max time  |%varavg| %total
---------------------------------------------------------------
Pair    | 38.881     | 38.881     | 38.881     |   0.0 | 74.43
Neigh   | 0.026987   | 0.026987   | 0.026987   |   0.0 |  0.05
Comm    | 1.7061     | 1.7061     | 1.7061     |   0.0 |  3.27
Output  | 0.033056   | 0.033056   | 0.033056   |   0.0 |  0.06
Modify  | 10.244     | 10.244     | 10.244     |   0.0 | 19.61
Other   |            | 1.345      |            |       |  2.58

Nlocal:           1000 ave        1000 max        1000 min
Histogram: 1 0 0 0 0 0 0 0 0 0
Nghost:           1230 ave        1230 max        1230 min
Histogram: 1 0 0 0 0 0 0 0 0 0
Neighs:           5602 ave        5602 max        5602 min
Histogram: 1 0 0 0 0 0 0 0 0 0

Total # of neighbors = 5602
Ave neighs/atom = 5.602
Neighbor list builds = 51
Dangerous builds = 24

# run_style
run_style verlet

# write restart
write_restart ${write_res}
write_restart ./pgnpmf/01000/equpmf91.res
System init for write_restart ...
Generated 0 of 1 mixed pair_coeff terms from geometric mixing rule

Total wall time: 0:01:51
