LAMMPS (23 Jun 2022 - Update 1)
# Read restart
read_restart ${read_res}
read_restart ./pgnpmf/01000/equpmf28.res
Reading restart file ...
  restart file = 23 Jun 2022, LAMMPS = 23 Jun 2022
  restoring atom style atomic from restart
  orthogonal box = (1704.3543 1704.3543 1704.3543) to (3295.6457 3295.6457 3295.6457)
  1 by 2 by 2 MPI processor grid
  restoring pair style table from restart
  1000 atoms
  read_restart CPU = 0.016 seconds

# Settings

pair_style table spline 9941

pair_coeff 1 1 ./pgnpmf/N20.txt DE_GNP 75.6
pair_coeff 2 2 ./pgnpmf/N100.txt DE_GNP 115.92
WARNING: 3 of 9941 force values in table DE_GNP are inconsistent with -dE/dr.
WARNING:  Should only be flagged at inflection points (../pair_table.cpp:463)
pair_coeff 1 2 ./pgnpmf/mixed_potential.txt DE_GNP 95.66
WARNING: 1562 of 9941 force values in table DE_GNP are inconsistent with -dE/dr.
WARNING:  Should only be flagged at inflection points (../pair_table.cpp:463)

#Neigh_list Calc Frequency

neigh_modify delay 0 every 1 check yes

# Saving Frequency (50 frames)

variable ts_save equal ${steps_equ}
variable ts_save equal 5000

# Dump
#dump 1 all custom ${ts_save} ./pgnpmf/${folder}/equilibration/trajectory/trajectory_${usic}_${trial}.equ.custom type x y z ix iy iz
#dump_modify 1 first no sort id
#dump 2 all cfg 50000 ./equilibration/trajectory/ovito/dumpgen.tens_*.cfg mass type xs ys zs fx fy fz

# thermo_style
thermo_style custom step temp press pe density ke etotal lx ly lz xlo xhi ylo yhi zlo zhi vol dt time cpu tpcpu spcpu cpuremain

# run info
timestep ${ts}
timestep 0.5
thermo 200

# fix

fix 1 all momentum 1000 linear 1 1 1 angular
variable T equal ${temp}
variable T equal 300
fix 2 all nvt temp ${T} 370000 100.0
fix 2 all nvt temp 300 370000 100.0

run 100000
Generated 0 of 1 mixed pair_coeff terms from geometric mixing rule
Unused restart file global fix info:
  fix style: npt, fix ID: 5
Neighbor list info ...
  update every 1 steps, delay 0 steps, check yes
  max neighbors/atom: 2000, page size: 100000
  master list distance cutoff = 117.92
  ghost atom cutoff = 117.92
  binsize = 58.96, bins = 27 27 27
  1 neighbor lists, perpetual/occasional/extra = 1 0 0
  (1) pair table, perpetual
      attributes: half, newton on
      pair build: half/bin/atomonly/newton
      stencil: half/bin/3d
      bin: standard
Per MPI rank memory allocation (min/avg/max) = 3.102 | 3.104 | 3.107 Mbytes
   Step          Temp          Press          PotEng        Density         KinEng         TotEng           Lx             Ly             Lz            Xlo            Xhi            Ylo            Yhi            Zlo            Zhi           Volume           Dt            Time           CPU           T/CPU          S/CPU         CPULeft    
  19605000   305.60193      0.77854718    -31319171       0.17392611     910.03038     -31318261       1591.2915      1591.2915      1591.2915      1704.3543      3295.6457      1704.3543      3295.6457      1704.3543      3295.6457      4.0294818e+09  0.5            9805000        0              0              0              0            
  19605200   385.53689      0.74830618    -31319243       0.17392611     1148.063      -31318095       1591.2915      1591.2915      1591.2915      1704.3543      3295.6457      1704.3543      3295.6457      1704.3543      3295.6457      4.0294818e+09  0.5            9805100        0.017541648    5700.5155      11400.577      8.7542823    
  19605400   565.71093      0.71980609    -31319327       0.17392611     1684.5905     -31317642       1591.2915      1591.2915      1591.2915      1704.3543      3295.6457      1704.3543      3295.6457      1704.3543      3295.6457      4.0294818e+09  0.5            9805200        0.034224294    5994.2979      11988.641      8.5222987    
  19605600   872.6616       0.69515527    -31319430       0.17392611     2598.6372     -31316831       1591.2915      1591.2915      1591.2915      1704.3543      3295.6457      1704.3543      3295.6457      1704.3543      3295.6457      4.0294818e+09  0.5            9805300        0.050498625    6144.6522      12289.283      8.3662507    
  19605800   1366.8229      0.6793738     -31319557       0.17392611     4070.1651     -31315487       1591.2915      1591.2915      1591.2915      1704.3543      3295.6457      1704.3543      3295.6457      1704.3543      3295.6457      4.0294818e+09  0.5            9805400        0.067091824    6026.5658      12053.143      8.3196071    
  19606000   2125.7061      0.66354984    -31319714       0.17392611     6329.9898     -31313384       1591.2915      1591.2915      1591.2915      1704.3543      3295.6457      1704.3543      3295.6457      1704.3543      3295.6457      4.0294818e+09  0.5            9805500        0.083234233    6194.8653      12389.749      8.2403591    
  19606200   3215.2621      0.61810192    -31319906       0.17392611     9574.5015     -31310331       1591.2915      1591.2915      1591.2915      1704.3543      3295.6457      1704.3543      3295.6457      1704.3543      3295.6457      4.0294818e+09  0.5            9805600        0.099428868    6174.9039      12349.851      8.1864433    
  19606400   4619.0612      0.53514944    -31320140       0.17392611     13754.775     -31306386       1591.2915      1591.2915      1591.2915      1704.3543      3295.6457      1704.3543      3295.6457      1704.3543      3295.6457      4.0294818e+09  0.5            9805700        0.11575355     6125.6932      12251.35       8.1524759    
  19606600   6128.4252      0.46445128    -31320415       0.17392611     18249.404     -31302166       1591.2915      1591.2915      1591.2915      1704.3543      3295.6457      1704.3543      3295.6457      1704.3543      3295.6457      4.0294818e+09  0.5            9805800        0.13209587     6119.1021      12238.2        8.1239971    
  19606800   7305.8986      0.40521673    -31320717       0.17392611     21755.719     -31298961       1591.2915      1591.2915      1591.2915      1704.3543      3295.6457      1704.3543      3295.6457      1704.3543      3295.6457      4.0294818e+09  0.5            9805900        0.14845784     6111.7514      12223.492      8.099288     
  19607000   7824.5986      0.26512677    -31321031       0.17392611     23300.318     -31297730       1591.2915      1591.2915      1591.2915      1704.3543      3295.6457      1704.3543      3295.6457      1704.3543      3295.6457      4.0294818e+09  0.5            9806000        0.16523788     5959.4276      11918.838      8.0967408    
  19607200   8123.7158      0.12633785    -31328718       0.17392611     24191.038     -31304527       1591.2915      1591.2915      1591.2915      1704.3543      3295.6457      1704.3543      3295.6457      1704.3543      3295.6457      4.0294818e+09  0.5            9806100        0.18137241     6197.9008      12395.776      8.062904     
  19607400   8942.3095      0.038926623   -31329025       0.17392611     26628.671     -31302396       1591.2915      1591.2915      1591.2915      1704.3543      3295.6457      1704.3543      3295.6457      1704.3543      3295.6457      4.0294818e+09  0.5            9806200        0.19746322     6214.7492      12429.553      8.0302349    
  19607600   10121.349     -0.052473652   -31329340       0.17392611     30139.65      -31299201       1591.2915      1591.2915      1591.2915      1704.3543      3295.6457      1704.3543      3295.6457      1704.3543      3295.6457      4.0294818e+09  0.5            9806300        0.21377384     6130.9537      12261.926      8.0083587    
  19607800   10930.2       -0.15960251    -31329660       0.17392611     32548.269     -31297111       1591.2915      1591.2915      1591.2915      1704.3543      3295.6457      1704.3543      3295.6457      1704.3543      3295.6457      4.0294818e+09  0.5            9806400        0.23006928     6136.6985      12273.373      7.9867466    
  19608000   11270.632     -0.28836403    -31329965       0.17392611     33562.016     -31296403       1591.2915      1591.2915      1591.2915      1704.3543      3295.6457      1704.3543      3295.6457      1704.3543      3295.6457      4.0294818e+09  0.5            9806500        0.24653335     6073.8172      12147.639      7.9712986    
  19608200   11818.801     -0.41734131    -31330256       0.17392611     35194.372     -31295062       1591.2915      1591.2915      1591.2915      1704.3543      3295.6457      1704.3543      3295.6457      1704.3543      3295.6457      4.0294818e+09  0.5            9806600        0.26670325     4957.8816      9915.7449      8.0678252    
  19608400   12896.379     -0.50707745    -31330533       0.17392611     38403.214     -31292130       1591.2915      1591.2915      1591.2915      1704.3543      3295.6457      1704.3543      3295.6457      1704.3543      3295.6457      4.0294818e+09  0.5            9806700        0.28293443     6160.9804      12321.961      8.0387147    
  19608600   13930.176     -0.58235289    -31330799       0.17392611     41481.685     -31289317       1591.2915      1591.2915      1591.2915      1704.3543      3295.6457      1704.3543      3295.6457      1704.3543      3295.6457      4.0294818e+09  0.5            9806800        0.29905497     6203.2815      12406.633      8.0080681    
  19608800   14425.078     -0.62125234    -31323662       0.17392611     42955.418     -31280707       1591.2915      1591.2915      1591.2915      1704.3543      3295.6457      1704.3543      3295.6457      1704.3543      3295.6457      4.0294818e+09  0.5            9806900        0.31573116     5996.57        11993.039      7.9930268    
  19609000   14790.34      -0.73275146    -31323867       0.17392611     44043.106     -31279824       1591.2915      1591.2915      1591.2915      1704.3543      3295.6457      1704.3543      3295.6457      1704.3543      3295.6457      4.0294818e+09  0.5            9807000        0.33206664     6121.6362      12243.329      7.9696401    
  19609200   15660.195     -0.80138121    -31324038       0.17392611     46633.388     -31277405       1591.2915      1591.2915      1591.2915      1704.3543      3295.6457      1704.3543      3295.6457      1704.3543      3295.6457      4.0294818e+09  0.5            9807100        0.34817889     6206.4725      12412.96       7.9418318    
  19609400   16815.689     -0.83789524    -31324174       0.17392611     50074.25      -31274100       1591.2915      1591.2915      1591.2915      1704.3543      3295.6457      1704.3543      3295.6457      1704.3543      3295.6457      4.0294818e+09  0.5            9807200        0.36482652     6006.8563      12013.716      7.9267201    
  19609600   17552.309     -0.88705268    -31324267       0.17392611     52267.779     -31271999       1591.2915      1591.2915      1591.2915      1704.3543      3295.6457      1704.3543      3295.6457      1704.3543      3295.6457      4.0294818e+09  0.5            9807300        0.38090711     6218.6738      12437.328      7.899716     
  19609800   17869.625     -0.94131494    -31324305       0.17392611     53212.691     -31271092       1591.2915      1591.2915      1591.2915      1704.3543      3295.6457      1704.3543      3295.6457      1704.3543      3295.6457      4.0294818e+09  0.5            9807400        0.39694619     6234.7778      12469.542      7.8727985    
  19610000   18480.354     -0.97643013    -31324288       0.17392611     55031.338     -31269257       1591.2915      1591.2915      1591.2915      1704.3543      3295.6457      1704.3543      3295.6457      1704.3543      3295.6457      4.0294818e+09  0.5            9807500        0.41333265     6102.5971      12205.226      7.8533508    
  19610200   19602.764     -0.95341575    -31324210       0.17392611     58373.684     -31265836       1591.2915      1591.2915      1591.2915      1704.3543      3295.6457      1704.3543      3295.6457      1704.3543      3295.6457      4.0294818e+09  0.5            9807600        0.4300545      5980.1831      11960.324      7.8402551    
  19610400   20588.558     -0.9391118     -31316689       0.17392611     61309.209     -31255380       1591.2915      1591.2915      1591.2915      1704.3543      3295.6457      1704.3543      3295.6457      1704.3543      3295.6457      4.0294818e+09  0.5            9807700        0.44630951     6151.965       12303.907      7.8187109    
  19610600   21023.356     -0.97400768    -31316486       0.17392611     62603.963     -31253882       1591.2915      1591.2915      1591.2915      1704.3543      3295.6457      1704.3543      3295.6457      1704.3543      3295.6457      4.0294818e+09  0.5            9807800        0.46280125     6063.6353      12127.308      7.8015354    
  19610800   21418.613     -1.0395212     -31323594       0.17392611     63780.973     -31259813       1591.2915      1591.2915      1591.2915      1704.3543      3295.6457      1704.3543      3295.6457      1704.3543      3295.6457      4.0294818e+09  0.5            9807900        0.47921309     6093.1564      12186.307      7.7831089    
  19611000   22357.252     -1.0500505     -31315878       0.17392611     66576.078     -31249302       1591.2915      1591.2915      1591.2915      1704.3543      3295.6457      1704.3543      3295.6457      1704.3543      3295.6457      4.0294818e+09  0.5            9808000        0.49532177     6207.8456      12415.72       7.7600672    
  19611200   23501.475     -1.0937649     -31322854       0.17392611     69983.379     -31252871       1591.2915      1591.2915      1591.2915      1704.3543      3295.6457      1704.3543      3295.6457      1704.3543      3295.6457      4.0294818e+09  0.5            9808100        0.51171769     6099.0902      12198.173      7.7418179    
  19611400   24168.371     -1.1260738     -31329764       0.17392611     71969.281     -31257795       1591.2915      1591.2915      1591.2915      1704.3543      3295.6457      1704.3543      3295.6457      1704.3543      3295.6457      4.0294818e+09  0.5            9808200        0.52845693     5973.9762      11947.964      7.7287061    
  19611600   24486.442     -1.1497324     -31329245       0.17392611     72916.443     -31256329       1591.2915      1591.2915      1591.2915      1704.3543      3295.6457      1704.3543      3295.6457      1704.3543      3295.6457      4.0294818e+09  0.5            9808300        0.54456725     6207.2168      12414.412      7.7064745    
  19611800   25171.812     -1.1236357     -31328687       0.17392611     74957.358     -31253730       1591.2915      1591.2915      1591.2915      1704.3543      3295.6457      1704.3543      3295.6457      1704.3543      3295.6457      4.0294818e+09  0.5            9808400        0.56093722     6108.712       12217.448      7.6881624    
  19612000   26315.869     -1.1850544     -31342851       0.17392611     78364.163     -31264487       1591.2915      1591.2915      1591.2915      1704.3543      3295.6457      1704.3543      3295.6457      1704.3543      3295.6457      4.0294818e+09  0.5            9808500        0.5774744      6046.9952      12093.907      7.6721832    
  19612200   27239.604     -1.2949219     -31357004       0.17392611     81114.89      -31275889       1591.2915      1591.2915      1591.2915      1704.3543      3295.6457      1704.3543      3295.6457      1704.3543      3295.6457      4.0294818e+09  0.5            9808600        0.59356551     6214.6059      12429.302      7.6504207    
  19612400   27638.416     -1.2493414     -31356396       0.17392611     82302.485     -31274094       1591.2915      1591.2915      1591.2915      1704.3543      3295.6457      1704.3543      3295.6457      1704.3543      3295.6457      4.0294818e+09  0.5            9808700        0.60978723     6164.5908      12329.129      7.6306016    
  19612600   28092.482     -1.2933106     -31363175       0.17392611     83654.613     -31279521       1591.2915      1591.2915      1591.2915      1704.3543      3295.6457      1704.3543      3295.6457      1704.3543      3295.6457      4.0294818e+09  0.5            9808800        0.62638658     6024.3279      12048.708      7.6155614    
  19612800   29093.465     -1.273413      -31362611       0.17392611     86635.371     -31275976       1591.2915      1591.2915      1591.2915      1704.3543      3295.6457      1704.3543      3295.6457      1704.3543      3295.6457      4.0294818e+09  0.5            9808900        0.64246551     6219.3251      12438.632      7.5942909    
  19613000   30199.575     -1.2664281     -31362085       0.17392611     89929.177     -31272156       1591.2915      1591.2915      1591.2915      1704.3543      3295.6457      1704.3543      3295.6457      1704.3543      3295.6457      4.0294818e+09  0.5            9809000        0.65865683     6176.1422      12352.29       7.5745729    
  19613200   30795.907     -1.3786759     -31376361       0.17392611     91704.952     -31284656       1591.2915      1591.2915      1591.2915      1704.3543      3295.6457      1704.3543      3295.6457      1704.3543      3295.6457      4.0294818e+09  0.5            9809100        0.67490189     6155.7179      12311.424      7.5556275    
  19613400   31125.209     -1.3702963     -31368560       0.17392611     92685.556     -31275875       1591.2915      1591.2915      1591.2915      1704.3543      3295.6457      1704.3543      3295.6457      1704.3543      3295.6457      4.0294818e+09  0.5            9809200        0.69167109     5963.3069      11926.602      7.5425269    
  19613600   31885.963     -1.3270132     -31368206       0.17392611     94950.953     -31273255       1591.2915      1591.2915      1591.2915      1704.3543      3295.6457      1704.3543      3295.6457      1704.3543      3295.6457      4.0294818e+09  0.5            9809300        0.70887684     5811.9946      11623.993      7.5338955    
  19613800   33047.96      -1.3089393     -31367908       0.17392611     98411.18      -31269496       1591.2915      1591.2915      1591.2915      1704.3543      3295.6457      1704.3543      3295.6457      1704.3543      3295.6457      4.0294818e+09  0.5            9809400        0.72566015     5958.2864      11916.566      7.5204967    
  19614000   33898.113     -1.3417358     -31375051       0.17392611     100942.79     -31274108       1591.2915      1591.2915      1591.2915      1704.3543      3295.6457      1704.3543      3295.6457      1704.3543      3295.6457      4.0294818e+09  0.5            9809500        0.7421778      6054.1619      12108.323      7.504259     
  19614200   34240.92      -1.3437176     -31374873       0.17392611     101963.61     -31272909       1591.2915      1591.2915      1591.2915      1704.3543      3295.6457      1704.3543      3295.6457      1704.3543      3295.6457      4.0294818e+09  0.5            9809600        0.75836919     6176.1266      12352.264      7.4847908    
  19614400   34741.416     -1.3503228     -31367371       0.17392611     103454        -31263917       1591.2915      1591.2915      1591.2915      1704.3543      3295.6457      1704.3543      3295.6457      1704.3543      3295.6457      4.0294818e+09  0.5            9809700        0.77469637     6124.7444      12249.481      7.4667705    
  19614600   35815.725     -1.4135849     -31367292       0.17392611     106653.11     -31260639       1591.2915      1591.2915      1591.2915      1704.3543      3295.6457      1704.3543      3295.6457      1704.3543      3295.6457      4.0294818e+09  0.5            9809800        0.7910443      6116.973       12233.91       7.4490172    
  19614800   36899.196     -1.4222023     -31367231       0.17392611     109879.51     -31257352       1591.2915      1591.2915      1591.2915      1704.3543      3295.6457      1704.3543      3295.6457      1704.3543      3295.6457      4.0294818e+09  0.5            9809900        0.80762098     6032.5776      12065.204      7.4334247    
  19615000   37399.344     -1.4591964     -31367181       0.17392611     111368.86     -31255812       1591.2915      1591.2915      1591.2915      1704.3543      3295.6457      1704.3543      3295.6457      1704.3543      3295.6457      4.0294818e+09  0.5            9810000        0.82431546     5990.0154      11980.039      7.418854     
  19615200   37702.508     -1.4416387     -31367127       0.17392611     112271.63     -31254855       1591.2915      1591.2915      1591.2915      1704.3543      3295.6457      1704.3543      3295.6457      1704.3543      3295.6457      4.0294818e+09  0.5            9810100        0.84048524     6184.3611      12368.717      7.3995815    
  19615400   38549.406     -1.4438226     -31359662       0.17392611     114793.55     -31244869       1591.2915      1591.2915      1591.2915      1704.3543      3295.6457      1704.3543      3295.6457      1704.3543      3295.6457      4.0294818e+09  0.5            9810200        0.85689968     6092.2032      12184.386      7.3825353    
  19615600   39771.098     -1.4357477     -31359519       0.17392611     118431.54     -31241087       1591.2915      1591.2915      1591.2915      1704.3543      3295.6457      1704.3543      3295.6457      1704.3543      3295.6457      4.0294818e+09  0.5            9810300        0.87322718     6124.6386      12249.306      7.3647787    
  19615800   40548.764     -1.5290869     -31374067       0.17392611     120747.3      -31253320       1591.2915      1591.2915      1591.2915      1704.3543      3295.6457      1704.3543      3295.6457      1704.3543      3295.6457      4.0294818e+09  0.5            9810400        0.88928144     6228.8814      12457.766      7.3448194    
  19616000   40797.516     -1.6034484     -31381148       0.17392611     121488.04     -31259660       1591.2915      1591.2915      1591.2915      1704.3543      3295.6457      1704.3543      3295.6457      1704.3543      3295.6457      4.0294818e+09  0.5            9810500        0.90563948     6113.1861      12226.354      7.3274606    
  19616200   41342.69      -1.5541309     -31373368       0.17392611     123111.47     -31250257       1591.2915      1591.2915      1591.2915      1704.3543      3295.6457      1704.3543      3295.6457      1704.3543      3295.6457      4.0294818e+09  0.5            9810600        0.92198711     6117.1085      12234.228      7.3100538    
  19616400   42537.772     -1.5522488     -31372852       0.17392611     126670.22     -31246182       1591.2915      1591.2915      1591.2915      1704.3543      3295.6457      1704.3543      3295.6457      1704.3543      3295.6457      4.0294818e+09  0.5            9810700        0.93820107     6167.497       12334.948      7.2916472    
  19616600   43604.673     -1.561256      -31372215       0.17392611     129847.27     -31242368       1591.2915      1591.2915      1591.2915      1704.3543      3295.6457      1704.3543      3295.6457      1704.3543      3295.6457      4.0294818e+09  0.5            9810800        0.95467372     6070.6897      12141.409      7.275285     
  19616800   43999.352     -1.6449144     -31386215       0.17392611     131022.56     -31255193       1591.2915      1591.2915      1591.2915      1704.3543      3295.6457      1704.3543      3295.6457      1704.3543      3295.6457      4.0294818e+09  0.5            9810900        0.97088762     6167.5503      12335.089      7.2569861    
  19617000   44310.964     -1.6235535     -31377973       0.17392611     131950.48     -31246023       1591.2915      1591.2915      1591.2915      1704.3543      3295.6457      1704.3543      3295.6457      1704.3543      3295.6457      4.0294818e+09  0.5            9811000        0.9872334      6117.7761      12235.553      7.2397246    
  19617200   45314.029     -1.5383338     -31369632       0.17392611     134937.44     -31234694       1591.2915      1591.2915      1591.2915      1704.3543      3295.6457      1704.3543      3295.6457      1704.3543      3295.6457      4.0294818e+09  0.5            9811100        1.00373        6061.839       12123.679      7.2235779    
  19617400   46546.485     -1.4529231     -31368585       0.17392611     138607.48     -31229978       1591.2915      1591.2915      1591.2915      1704.3543      3295.6457      1704.3543      3295.6457      1704.3543      3295.6457      4.0294818e+09  0.5            9811200        1.0201782      6079.7207      12159.452      7.2070771    
  19617600   47187.289     -1.4185245     -31367476       0.17392611     140515.69     -31226960       1591.2915      1591.2915      1591.2915      1704.3543      3295.6457      1704.3543      3295.6457      1704.3543      3295.6457      4.0294818e+09  0.5            9811300        1.0365675      6101.5713      12203.174      7.1901694    
  19617800   47521.174     -1.3738747     -31358958       0.17392611     141509.94     -31217448       1591.2915      1591.2915      1591.2915      1704.3543      3295.6457      1704.3543      3295.6457      1704.3543      3295.6457      4.0294818e+09  0.5            9811400        1.0531126      6044.0823      12088.156      7.1743403    
  19618000   48538.816     -1.3584973     -31357803       0.17392611     144540.3      -31213263       1591.2915      1591.2915      1591.2915      1704.3543      3295.6457      1704.3543      3295.6457      1704.3543      3295.6457      4.0294818e+09  0.5            9811500        1.069387       6144.5794      12289.132      7.1566783    
  19618200   50112.921     -1.4051398     -31378785       0.17392611     149227.72     -31229557       1591.2915      1591.2915      1591.2915      1704.3543      3295.6457      1704.3543      3295.6457      1704.3543      3295.6457      4.0294818e+09  0.5            9811600        1.0856698      6141.4668      12282.951      7.1391122    
  19618400   50647.987     -1.4054788     -31385048       0.17392611     150821.06     -31234227       1591.2915      1591.2915      1591.2915      1704.3543      3295.6457      1704.3543      3295.6457      1704.3543      3295.6457      4.0294818e+09  0.5            9811700        1.102168       6061.2765      12122.557      7.1229765    
  19618600   50077.547     -1.4276093     -31376615       0.17392611     149122.38     -31227492       1591.2915      1591.2915      1591.2915      1704.3543      3295.6457      1704.3543      3295.6457      1704.3543      3295.6457      4.0294818e+09  0.5            9811800        1.1184289      6149.7124      12299.414      7.1053236    
  19618800   50139.607     -1.5492955     -31390414       0.17392611     149307.19     -31241106       1591.2915      1591.2915      1591.2915      1704.3543      3295.6457      1704.3543      3295.6457      1704.3543      3295.6457      4.0294818e+09  0.5            9811900        1.1350664      6010.5166      12021.07       7.0900626    
  19619000   52517.387     -1.5251757     -31389540       0.17392611     156387.81     -31233152       1591.2915      1591.2915      1591.2915      1704.3543      3295.6457      1704.3543      3295.6457      1704.3543      3295.6457      4.0294818e+09  0.5            9812000        1.1513377      6145.7908      12291.544      7.0725135    
  19619200   53575.914     -1.4834134     -31388748       0.17392611     159539.92     -31229208       1591.2915      1591.2915      1591.2915      1704.3543      3295.6457      1704.3543      3295.6457      1704.3543      3295.6457      4.0294818e+09  0.5            9812100        1.1676639      6125.1593      12250.313      7.0553306    
  19619400   53139.993     -1.5715265     -31388068       0.17392611     158241.83     -31229826       1591.2915      1591.2915      1591.2915      1704.3543      3295.6457      1704.3543      3295.6457      1704.3543      3295.6457      4.0294818e+09  0.5            9812200        1.1842905      6014.3965      12028.748      7.0399601    
  19619600   53294.014     -1.6045132     -31387502       0.17392611     158700.47     -31228802       1591.2915      1591.2915      1591.2915      1704.3543      3295.6457      1704.3543      3295.6457      1704.3543      3295.6457      4.0294818e+09  0.5            9812300        1.2004587      6185.0186      12370.089      7.0218707    
  19619800   56247.791     -1.7497707     -31409177       0.17392611     167496.32     -31241681       1591.2915      1591.2915      1591.2915      1704.3543      3295.6457      1704.3543      3295.6457      1704.3543      3295.6457      4.0294818e+09  0.5            9812400        1.2172125      5968.7991      11937.619      7.0072056    
  19620000   56887.57      -1.9265704     -31416193       0.17392611     169401.47     -31246791       1591.2915      1591.2915      1591.2915      1704.3543      3295.6457      1704.3543      3295.6457      1704.3543      3295.6457      4.0294818e+09  0.5            9812500        1.2335299      6128.4348      12256.846      6.990012     
  19620200   55215.378     -2.1383605     -31423303       0.17392611     164421.97     -31258881       1591.2915      1591.2915      1591.2915      1704.3543      3295.6457      1704.3543      3295.6457      1704.3543      3295.6457      4.0294818e+09  0.5            9812600        1.2496519      6202.7055      12405.419      6.9717509    
  19620400   54810.335     -2.2150068     -31415736       0.17392611     163215.82     -31252520       1591.2915      1591.2915      1591.2915      1704.3543      3295.6457      1704.3543      3295.6457      1704.3543      3295.6457      4.0294818e+09  0.5            9812700        1.2662194      6035.8987      12071.81       6.9559935    
  19620600   59114.865     -2.1631484     -31415599       0.17392611     176033.97     -31239565       1591.2915      1591.2915      1591.2915      1704.3543      3295.6457      1704.3543      3295.6457      1704.3543      3295.6457      4.0294818e+09  0.5            9812800        1.2825172      6135.8276      12271.654      6.9387553    
  19620800   59579.583     -2.3368058     -31422845       0.17392611     177417.82     -31245428       1591.2915      1591.2915      1591.2915      1704.3543      3295.6457      1704.3543      3295.6457      1704.3543      3295.6457      4.0294818e+09  0.5            9812900        1.298913       6099.0787      12198.146      6.9220643    
  19621000   58320.12      -2.537604      -31422711       0.17392611     173667.36     -31249044       1591.2915      1591.2915      1591.2915      1704.3543      3295.6457      1704.3543      3295.6457      1704.3543      3295.6457      4.0294818e+09  0.5            9813000        1.315268       6114.3505      12228.648      6.9051661    
  19621200   58795.837     -2.6473279     -31415186       0.17392611     175083.96     -31240102       1591.2915      1591.2915      1591.2915      1704.3543      3295.6457      1704.3543      3295.6457      1704.3543      3295.6457      4.0294818e+09  0.5            9813100        1.3318583      6027.6364      12055.3        6.8894977    
  19621400   62764.373     -2.6518696     -31415009       0.17392611     186901.58     -31228107       1591.2915      1591.2915      1591.2915      1704.3543      3295.6457      1704.3543      3295.6457      1704.3543      3295.6457      4.0294818e+09  0.5            9813200        1.3480222      6186.6085      12373.256      6.8716335    
  19621600   62602.52      -2.7407796     -31407391       0.17392611     186419.62     -31220972       1591.2915      1591.2915      1591.2915      1704.3543      3295.6457      1704.3543      3295.6457      1704.3543      3295.6457      4.0294818e+09  0.5            9813300        1.3645337      6056.4051      12112.823      6.8555566    
  19621800   61121.355     -2.9426472     -31414468       0.17392611     182008.96     -31232459       1591.2915      1591.2915      1591.2915      1704.3543      3295.6457      1704.3543      3295.6457      1704.3543      3295.6457      4.0294818e+09  0.5            9813400        1.3807375      6171.3748      12342.739      6.8379462    
  19622000   62203.191     -3.04171       -31414107       0.17392611     185230.48     -31228876       1591.2915      1591.2915      1591.2915      1704.3543      3295.6457      1704.3543      3295.6457      1704.3543      3295.6457      4.0294818e+09  0.5            9813500        1.3969202      6179.4301      12358.81       6.8202659    
  19622200   66803.94      -3.0341022     -31413678       0.17392611     198930.73     -31214747       1591.2915      1591.2915      1591.2915      1704.3543      3295.6457      1704.3543      3295.6457      1704.3543      3295.6457      4.0294818e+09  0.5            9813600        1.4135014      6030.9291      12061.912      6.8045376    
  19622400   65360.088     -3.2409714     -31413172       0.17392611     194631.18     -31218541       1591.2915      1591.2915      1591.2915      1704.3543      3295.6457      1704.3543      3295.6457      1704.3543      3295.6457      4.0294818e+09  0.5            9813700        1.4297877      6140.144       12280.227      6.7873908    
  19622600   63608.019     -3.3865626     -31412623       0.17392611     189413.82     -31223209       1591.2915      1591.2915      1591.2915      1704.3543      3295.6457      1704.3543      3295.6457      1704.3543      3295.6457      4.0294818e+09  0.5            9813800        1.4461365      6116.6445      12233.356      6.7705557    
  19622800   65218.352     -3.4519453     -31404669       0.17392611     194209.11     -31210460       1591.2915      1591.2915      1591.2915      1704.3543      3295.6457      1704.3543      3295.6457      1704.3543      3295.6457      4.0294818e+09  0.5            9813900        1.4624351      6135.5129      12270.995      6.7534998    
  19623000   68480.153     -3.4768155     -31396673       0.17392611     203922.2      -31192751       1591.2915      1591.2915      1591.2915      1704.3543      3295.6457      1704.3543      3295.6457      1704.3543      3295.6457      4.0294818e+09  0.5            9814000        1.4791216      5992.8405      11985.669      6.7382285    
  19623200   67916.545     -3.5771399     -31396029       0.17392611     202243.87     -31193785       1591.2915      1591.2915      1591.2915      1704.3543      3295.6457      1704.3543      3295.6457      1704.3543      3295.6457      4.0294818e+09  0.5            9814100        1.4952494      6200.4956      12401.002      6.7204137    
  19623400   67270.743     -3.783446      -31410129       0.17392611     200320.78     -31209808       1591.2915      1591.2915      1591.2915      1704.3543      3295.6457      1704.3543      3295.6457      1704.3543      3295.6457      4.0294818e+09  0.5            9814200        1.5119176      5999.4581      11998.899      6.7050331    
  19623600   68788.019     -3.8012721     -31402072       0.17392611     204838.98     -31197233       1591.2915      1591.2915      1591.2915      1704.3543      3295.6457      1704.3543      3295.6457      1704.3543      3295.6457      4.0294818e+09  0.5            9814300        1.5282638      6117.6167      12235.242      6.6882155    
  19623800   72705.468     -3.7185229     -31393987       0.17392611     216504.47     -31177483       1591.2915      1591.2915      1591.2915      1704.3543      3295.6457      1704.3543      3295.6457      1704.3543      3295.6457      4.0294818e+09  0.5            9814400        1.544298       6236.6792      12473.375      6.6700598    
  19624000   71920.491     -3.8793822     -31393265       0.17392611     214166.94     -31179098       1591.2915      1591.2915      1591.2915      1704.3543      3295.6457      1704.3543      3295.6457      1704.3543      3295.6457      4.0294818e+09  0.5            9814500        1.5607209      6089.0271      12178.042      6.6536068    
  19624200   69771.967     -3.9912533     -31392551       0.17392611     207769        -31184782       1591.2915      1591.2915      1591.2915      1704.3543      3295.6457      1704.3543      3295.6457      1704.3543      3295.6457      4.0294818e+09  0.5            9814600        1.5769364      6166.9622      12333.927      6.6362808    
  19624400   70557.523     -4.0260716     -31399205       0.17392611     210108.25     -31189096       1591.2915      1591.2915      1591.2915      1704.3543      3295.6457      1704.3543      3295.6457      1704.3543      3295.6457      4.0294818e+09  0.5            9814700        1.5933503      6092.3932      12184.801      6.6198023    
  19624600   73087.627     -3.9070856     -31391075       0.17392611     217642.47     -31173432       1591.2915      1591.2915      1591.2915      1704.3543      3295.6457      1704.3543      3295.6457      1704.3543      3295.6457      4.0294818e+09  0.5            9814800        1.6096092      6150.4817      12300.939      6.6026893    
  19624800   74754.31      -3.8636234     -31397660       0.17392611     222605.57     -31175055       1591.2915      1591.2915      1591.2915      1704.3543      3295.6457      1704.3543      3295.6457      1704.3543      3295.6457      4.0294818e+09  0.5            9814900        1.6264206      5948.3442      11896.718      6.5878315    
  19625000   74215.213     -3.8657917     -31396822       0.17392611     221000.23     -31175822       1591.2915      1591.2915      1591.2915      1704.3543      3295.6457      1704.3543      3295.6457      1704.3543      3295.6457      4.0294818e+09  0.5            9815000        1.6424953      6220.9602      12441.879      6.569988     
  19625200   72275.173     -4.0229154     -31403333       0.17392611     215223.12     -31188110       1591.2915      1591.2915      1591.2915      1704.3543      3295.6457      1704.3543      3295.6457      1704.3543      3295.6457      4.0294818e+09  0.5            9815100        1.658973       6068.7938      12137.583      6.5537714    
  19625400   74016.389     -3.8720118     -31402412       0.17392611     220408.17     -31182004       1591.2915      1591.2915      1591.2915      1704.3543      3295.6457      1704.3543      3295.6457      1704.3543      3295.6457      4.0294818e+09  0.5            9815200        1.6752546      6141.9157      12283.842      6.5367842    
  19625600   77861.522     -3.6530196     -31394006       0.17392611     231858.32     -31162148       1591.2915      1591.2915      1591.2915      1704.3543      3295.6457      1704.3543      3295.6457      1704.3543      3295.6457      4.0294818e+09  0.5            9815300        1.6914124      6188.9656      12377.967      6.5193335    
  19625800   77707.417     -3.591711      -31400235       0.17392611     231399.42     -31168836       1591.2915      1591.2915      1591.2915      1704.3543      3295.6457      1704.3543      3295.6457      1704.3543      3295.6457      4.0294818e+09  0.5            9815400        1.7079996      6028.7327      12057.47       6.5035432    
  19626000   76321.091     -3.4565406     -31384247       0.17392611     227271.18     -31156976       1591.2915      1591.2915      1591.2915      1704.3543      3295.6457      1704.3543      3295.6457      1704.3543      3295.6457      4.0294818e+09  0.5            9815500        1.7245751      6033.0089      12066.01       6.4876934    
  19626200   78008.888     -3.3301669     -31390283       0.17392611     232297.15     -31157985       1591.2915      1591.2915      1591.2915      1704.3543      3295.6457      1704.3543      3295.6457      1704.3543      3295.6457      4.0294818e+09  0.5            9815600        1.741261       5993.0588      11986.116      6.4722405    
  19626400   81902.37      -3.0054393     -31381408       0.17392611     243891.27     -31137517       1591.2915      1591.2915      1591.2915      1704.3543      3295.6457      1704.3543      3295.6457      1704.3543      3295.6457      4.0294818e+09  0.5            9815700        1.7574318      6184.0273      12368.038      6.4548723    
  19626600   80483.317     -2.8890675     -31372383       0.17392611     239665.57     -31132717       1591.2915      1591.2915      1591.2915      1704.3543      3295.6457      1704.3543      3295.6457      1704.3543      3295.6457      4.0294818e+09  0.5            9815800        1.7742411      5949.0785      11898.183      6.439844     
  19626800   78052.042     -2.9369167     -31378011       0.17392611     232425.65     -31145585       1591.2915      1591.2915      1591.2915      1704.3543      3295.6457      1704.3543      3295.6457      1704.3543      3295.6457      4.0294818e+09  0.5            9815900        1.7904514      6168.9047      12337.788      6.4226343    
  19627000   81549.471     -2.6805832     -31376154       0.17392611     242840.4      -31133314       1591.2915      1591.2915      1591.2915      1704.3543      3295.6457      1704.3543      3295.6457      1704.3543      3295.6457      4.0294818e+09  0.5            9816000        1.806907       6076.946       12153.853      6.4063128    
  19627200   84452.488     -2.3385784     -31359336       0.17392611     251485.09     -31107851       1591.2915      1591.2915      1591.2915      1704.3543      3295.6457      1704.3543      3295.6457      1704.3543      3295.6457      4.0294818e+09  0.5            9816100        1.8233454      6083.3341      12166.707      6.3899278    
  19627400   82378.425     -2.2226823     -31379284       0.17392611     245308.88     -31133975       1591.2915      1591.2915      1591.2915      1704.3543      3295.6457      1704.3543      3295.6457      1704.3543      3295.6457      4.0294818e+09  0.5            9816200        1.8400839      5974.2331      11948.468      6.3745823    
  19627600   81270.43      -2.0803149     -31384412       0.17392611     242009.46     -31142402       1591.2915      1591.2915      1591.2915      1704.3543      3295.6457      1704.3543      3295.6457      1704.3543      3295.6457      4.0294818e+09  0.5            9816300        1.8562113      6200.6786      12401.38       6.3571182    
  19627800   85881.688     -1.7060365     -31382058       0.17392611     255741        -31126317       1591.2915      1591.2915      1591.2915      1704.3543      3295.6457      1704.3543      3295.6457      1704.3543      3295.6457      4.0294818e+09  0.5            9816400        1.8725292      6128.2133      12256.404      6.3403237    
  19628000   86658.119     -1.5029549     -31386968       0.17392611     258053.08     -31128915       1591.2915      1591.2915      1591.2915      1704.3543      3295.6457      1704.3543      3295.6457      1704.3543      3295.6457      4.0294818e+09  0.5            9816500        1.8890876      6039.209       12078.352      6.3243427    
  19628200   84839.63      -1.3296029     -31377085       0.17392611     252637.93     -31124447       1591.2915      1591.2915      1591.2915      1704.3543      3295.6457      1704.3543      3295.6457      1704.3543      3295.6457      4.0294818e+09  0.5            9816600        1.9052296      6195.0434      12390.167      6.3069722    
  19628400   85553.736     -1.0820459     -31374601       0.17392611     254764.42     -31119837       1591.2915      1591.2915      1591.2915      1704.3543      3295.6457      1704.3543      3295.6457      1704.3543      3295.6457      4.0294818e+09  0.5            9816700        1.9219232      5990.3117      11980.616      6.2914292    
  19628600   90888.324     -0.63765322    -31364717       0.17392611     270649.91     -31094067       1591.2915      1591.2915      1591.2915      1704.3543      3295.6457      1704.3543      3295.6457      1704.3543      3295.6457      4.0294818e+09  0.5            9816800        1.9382409      6128.3147      12256.622      6.2746497    
  19628800   89282.842     -0.54653992    -31369610       0.17392611     265869.06     -31103741       1591.2915      1591.2915      1591.2915      1704.3543      3295.6457      1704.3543      3295.6457      1704.3543      3295.6457      4.0294818e+09  0.5            9816900        1.9547987      6039.4428      12078.869      6.2586467    
  19629000   86982.305     -0.40136667    -31359880       0.17392611     259018.45     -31100862       1591.2915      1591.2915      1591.2915      1704.3543      3295.6457      1704.3543      3295.6457      1704.3543      3295.6457      4.0294818e+09  0.5            9817000        1.9711872      6101.8695      12203.729      6.242098     
  19629200   88699.648     -0.21288555    -31372441       0.17392611     264132.4      -31108309       1591.2915      1591.2915      1591.2915      1704.3543      3295.6457      1704.3543      3295.6457      1704.3543      3295.6457      4.0294818e+09  0.5            9817100        1.9873507      6186.7597      12373.568      6.2248473    
  19629400   93105.547      0.086090996   -31362985       0.17392611     277252.42     -31085732       1591.2915      1591.2915      1591.2915      1704.3543      3295.6457      1704.3543      3295.6457      1704.3543      3295.6457      4.0294818e+09  0.5            9817200        2.0038118      6074.8913      12149.771      6.208537     
  19629600   91933.871      0.16806567    -31353694       0.17392611     273763.37     -31079931       1591.2915      1591.2915      1591.2915      1704.3543      3295.6457      1704.3543      3295.6457      1704.3543      3295.6457      4.0294818e+09  0.5            9817300        2.0201499      6120.7174      12241.444      6.1918464    
  19629800   90504.238      0.1341868     -31359354       0.17392611     269506.16     -31089848       1591.2915      1591.2915      1591.2915      1704.3543      3295.6457      1704.3543      3295.6457      1704.3543      3295.6457      4.0294818e+09  0.5            9817400        2.0367825      6012.2609      12024.482      6.1760553    
  19630000   92092.908      0.27013188    -31357848       0.17392611     274236.96     -31083611       1591.2915      1591.2915      1591.2915      1704.3543      3295.6457      1704.3543      3295.6457      1704.3543      3295.6457      4.0294818e+09  0.5            9817500        2.0529354      6190.8465      12381.704      6.1588113    
  19630200   96505.74       0.54996532    -31356523       0.17392611     287377.61     -31069145       1591.2915      1591.2915      1591.2915      1704.3543      3295.6457      1704.3543      3295.6457      1704.3543      3295.6457      4.0294818e+09  0.5            9817600        2.069346       6093.6321      12187.263      6.1423493    
  19630400   95749.877      0.57028002    -31347983       0.17392611     285126.78     -31062856       1591.2915      1591.2915      1591.2915      1704.3543      3295.6457      1704.3543      3295.6457      1704.3543      3295.6457      4.0294818e+09  0.5            9817700        2.0858903      6044.3519      12088.713      6.1262812    
  19630600   89797.465      0.4030036     -31347022       0.17392611     267401.52     -31079621       1591.2915      1591.2915      1591.2915      1704.3543      3295.6457      1704.3543      3295.6457      1704.3543      3295.6457      4.0294818e+09  0.5            9817800        2.1020551      6186.2802      12372.526      6.1091028    
  19630800   88111.005      0.33626029    -31353655       0.17392611     262379.53     -31091276       1591.2915      1591.2915      1591.2915      1704.3543      3295.6457      1704.3543      3295.6457      1704.3543      3295.6457      4.0294818e+09  0.5            9817900        2.1184629      6094.7113      12189.473      6.092638     
  19631000   96424.963      0.49459585    -31367825       0.17392611     287137.07     -31080687       1591.2915      1591.2915      1591.2915      1704.3543      3295.6457      1704.3543      3295.6457      1704.3543      3295.6457      4.0294818e+09  0.5            9818000        2.1350132      6042.169       12084.302      6.0765807    
  19631200   98462.72       0.58416063    -31374720       0.17392611     293205.17     -31081515       1591.2915      1591.2915      1591.2915      1704.3543      3295.6457      1704.3543      3295.6457      1704.3543      3295.6457      4.0294818e+09  0.5            9818100        2.1512734      6149.9764      12299.971      6.0596984    
  19631400   98309.315      0.53006795    -31374323       0.17392611     292748.35     -31081575       1591.2915      1591.2915      1591.2915      1704.3543      3295.6457      1704.3543      3295.6457      1704.3543      3295.6457      4.0294818e+09  0.5            9818200        2.167899       6014.8006      12029.588      6.0438444    
  19631600   97215.061      0.43483218    -31388722       0.17392611     289489.85     -31099232       1591.2915      1591.2915      1591.2915      1704.3543      3295.6457      1704.3543      3295.6457      1704.3543      3295.6457      4.0294818e+09  0.5            9818300        2.1840581      6188.4891      12376.995      6.0266912    
  19631800   98618.275      0.36164845    -31395778       0.17392611     293668.38     -31102110       1591.2915      1591.2915      1591.2915      1704.3543      3295.6457      1704.3543      3295.6457      1704.3543      3295.6457      4.0294818e+09  0.5            9818400        2.2003614      6133.7034      12267.416      6.009947     
  19632000   102761.42      0.42268876    -31395440       0.17392611     306005.95     -31089434       1591.2915      1591.2915      1591.2915      1704.3543      3295.6457      1704.3543      3295.6457      1704.3543      3295.6457      4.0294818e+09  0.5            9818500        2.2169736      6019.6842      12039.368      5.9940442    
  19632200   102965.73      0.35349556    -31387670       0.17392611     306614.35     -31081056       1591.2915      1591.2915      1591.2915      1704.3543      3295.6457      1704.3543      3295.6457      1704.3543      3295.6457      4.0294818e+09  0.5            9818600        2.2335509      6032.3527      12064.68       5.9780379    
  19632400   96739.543      0.14786415    -31387214       0.17392611     288073.84     -31099140       1591.2915      1591.2915      1591.2915      1704.3543      3295.6457      1704.3543      3295.6457      1704.3543      3295.6457      4.0294818e+09  0.5            9818700        2.2500906      6046.0263      12092.068      5.9619234    
  19632600   97260.402      0.21562703    -31364579       0.17392611     289624.87     -31074954       1591.2915      1591.2915      1591.2915      1704.3543      3295.6457      1704.3543      3295.6457      1704.3543      3295.6457      4.0294818e+09  0.5            9818800        2.2663553      6148.3165      12296.64       5.9450814    
  19632800   101954.13      0.26793889    -31363991       0.17392611     303601.98     -31060389       1591.2915      1591.2915      1591.2915      1704.3543      3295.6457      1704.3543      3295.6457      1704.3543      3295.6457      4.0294818e+09  0.5            9818900        2.2825409      6178.3325      12356.686      5.928042     
  19633000   103922.78      0.29324891    -31370685       0.17392611     309464.28     -31061221       1591.2915      1591.2915      1591.2915      1704.3543      3295.6457      1704.3543      3295.6457      1704.3543      3295.6457      4.0294818e+09  0.5            9819000        2.299028       6065.3363      12130.653      5.9117905    
  19633200   105574.41      0.18604953    -31384669       0.17392611     314382.57     -31070287       1591.2915      1591.2915      1591.2915      1704.3543      3295.6457      1704.3543      3295.6457      1704.3543      3295.6457      4.0294818e+09  0.5            9819100        2.3153338      6132.7976      12265.61       5.895074     
  19633400   106054.75      0.25438608    -31376407       0.17392611     315812.95     -31060594       1591.2915      1591.2915      1591.2915      1704.3543      3295.6457      1704.3543      3295.6457      1704.3543      3295.6457      4.0294818e+09  0.5            9819200        2.3321948      5930.8404      11861.642      5.8797629    
  19633600   105203.45      0.12197692    -31375417       0.17392611     313277.92     -31062139       1591.2915      1591.2915      1591.2915      1704.3543      3295.6457      1704.3543      3295.6457      1704.3543      3295.6457      4.0294818e+09  0.5            9819300        2.3483918      6173.971       12347.937      5.8627728    
  19633800   105334.7       0.26544533    -31366961       0.17392611     313668.76     -31053292       1591.2915      1591.2915      1591.2915      1704.3543      3295.6457      1704.3543      3295.6457      1704.3543      3295.6457      4.0294818e+09  0.5            9819400        2.3647329      6119.5582      12239.148      5.8461493    
  19634000   109215.39      0.46445295    -31373142       0.17392611     325224.78     -31047917       1591.2915      1591.2915      1591.2915      1704.3543      3295.6457      1704.3543      3295.6457      1704.3543      3295.6457      4.0294818e+09  0.5            9819500        2.3812824      6042.4757      12084.938      5.8300403    
  19634200   111080.54      0.51268994    -31364420       0.17392611     330778.87     -31033641       1591.2915      1591.2915      1591.2915      1704.3543      3295.6457      1704.3543      3295.6457      1704.3543      3295.6457      4.0294818e+09  0.5            9819600        2.397466       6179.1014      12358.185      5.813038     
  19634400   106892.84      0.45090779    -31362945       0.17392611     318308.62     -31044637       1591.2915      1591.2915      1591.2915      1704.3543      3295.6457      1704.3543      3295.6457      1704.3543      3295.6457      4.0294818e+09  0.5            9819700        2.4139832      6054.277       12108.558      5.7968481    
  19634600   102726.05      0.36141489    -31354051       0.17392611     305900.63     -31048150       1591.2915      1591.2915      1591.2915      1704.3543      3295.6457      1704.3543      3295.6457      1704.3543      3295.6457      4.0294818e+09  0.5            9819800        2.4303184      6121.743       12243.481      5.7802209    
  19634800   110172.12      0.61773573    -31374596       0.17392611     328073.76     -31046522       1591.2915      1591.2915      1591.2915      1704.3543      3295.6457      1704.3543      3295.6457      1704.3543      3295.6457      4.0294818e+09  0.5            9819900        2.4463993      6218.5787      12437.192      5.7629982    
  19635000   112022.95      0.68440271    -31387643       0.17392611     333585.23     -31054058       1591.2915      1591.2915      1591.2915      1704.3543      3295.6457      1704.3543      3295.6457      1704.3543      3295.6457      4.0294818e+09  0.5            9820000        2.4630275      6013.8565      12027.724      5.7470681    
  19635200   111558.2       0.82468966    -31371109       0.17392611     332201.28     -31038907       1591.2915      1591.2915      1591.2915      1704.3543      3295.6457      1704.3543      3295.6457      1704.3543      3295.6457      4.0294818e+09  0.5            9820100        2.4795585      6049.2584      12098.495      5.7309041    
  19635400   111955.48      0.79261279    -31384035       0.17392611     333384.29     -31050650       1591.2915      1591.2915      1591.2915      1704.3543      3295.6457      1704.3543      3295.6457      1704.3543      3295.6457      4.0294818e+09  0.5            9820200        2.4960764      6054.0138      12107.995      5.7147053    
  19635600   115371.26      0.88825795    -31389530       0.17392611     343555.92     -31045974       1591.2915      1591.2915      1591.2915      1704.3543      3295.6457      1704.3543      3295.6457      1704.3543      3295.6457      4.0294818e+09  0.5            9820300        2.5124516      6106.821       12213.655      5.6981784    
  19635800   117693.28      1.1066214     -31380196       0.17392611     350470.48     -31029726       1591.2915      1591.2915      1591.2915      1704.3543      3295.6457      1704.3543      3295.6457      1704.3543      3295.6457      4.0294818e+09  0.5            9820400        2.5290899      6010.2377      12020.502      5.6822445    
  19636000   112904.18      0.98722532    -31407720       0.17392611     336209.37     -31071511       1591.2915      1591.2915      1591.2915      1704.3543      3295.6457      1704.3543      3295.6457      1704.3543      3295.6457      4.0294818e+09  0.5            9820500        2.5455846      6062.5597      12125.104      5.6659823    
  19636200   108541.5       0.96597977    -31420529       0.17392611     323218.06     -31097311       1591.2915      1591.2915      1591.2915      1704.3543      3295.6457      1704.3543      3295.6457      1704.3543      3295.6457      4.0294818e+09  0.5            9820600        2.5619524      6109.5588      12219.165      5.649437     
  19636400   114761.47      1.2590426     -31425940       0.17392611     341740.06     -31084200       1591.2915      1591.2915      1591.2915      1704.3543      3295.6457      1704.3543      3295.6457      1704.3543      3295.6457      4.0294818e+09  0.5            9820700        2.5786322      5995.2585      11990.503      5.6335758    
  19636600   117049.7       1.4608733     -31431261       0.17392611     348554.02     -31082707       1591.2915      1591.2915      1591.2915      1704.3543      3295.6457      1704.3543      3295.6457      1704.3543      3295.6457      4.0294818e+09  0.5            9820800        2.5949214      6139.0365      12278.037      5.6168588    
  19636800   118156.43      1.6469448     -31429153       0.17392611     351849.68     -31077303       1591.2915      1591.2915      1591.2915      1704.3543      3295.6457      1704.3543      3295.6457      1704.3543      3295.6457      4.0294818e+09  0.5            9820900        2.6117326      5948.4008      11896.811      5.6012668    
  19637000   119449.01      1.8006435     -31426998       0.17392611     355698.74     -31071300       1591.2915      1591.2915      1591.2915      1704.3543      3295.6457      1704.3543      3295.6457      1704.3543      3295.6457      4.0294818e+09  0.5            9821000        2.6281079      6106.7583      12213.536      5.5847328    
  19637200   121188.05      2.0434163     -31417406       0.17392611     360877.33     -31056529       1591.2915      1591.2915      1591.2915      1704.3543      3295.6457      1704.3543      3295.6457      1704.3543      3295.6457      4.0294818e+09  0.5            9821100        2.6448756      5963.8646      11927.725      5.5690273    
  19637400   122198.15      2.1684322     -31429893       0.17392611     363885.22     -31066007       1591.2915      1591.2915      1591.2915      1704.3543      3295.6457      1704.3543      3295.6457      1704.3543      3295.6457      4.0294818e+09  0.5            9821200        2.6611961      6127.258       12254.476      5.5523757    
  19637600   119857.55      2.204356      -31442332       0.17392611     356915.32     -31085417       1591.2915      1591.2915      1591.2915      1704.3543      3295.6457      1704.3543      3295.6457      1704.3543      3295.6457      4.0294818e+09  0.5            9821300        2.6774959      6135.0653      12270.171      5.535685     
  19637800   117577.24      2.2974422     -31440026       0.17392611     350124.93     -31089901       1591.2915      1591.2915      1591.2915      1704.3543      3295.6457      1704.3543      3295.6457      1704.3543      3295.6457      4.0294818e+09  0.5            9821400        2.6939933      6061.5326      12123.053      5.5194043    
  19638000   122882.62      2.6997634     -31430348       0.17392611     365923.46     -31064425       1591.2915      1591.2915      1591.2915      1704.3543      3295.6457      1704.3543      3295.6457      1704.3543      3295.6457      4.0294818e+09  0.5            9821500        2.7105431      6042.3771      12084.754      5.5032272    
  19638200   125936.71      3.0071156     -31435338       0.17392611     375018.03     -31060320       1591.2915      1591.2915      1591.2915      1704.3543      3295.6457      1704.3543      3295.6457      1704.3543      3295.6457      4.0294818e+09  0.5            9821600        2.7273156      5962.1468      11924.299      5.4874938    
  19638400   123186.14      3.0038839     -31440337       0.17392611     366827.29     -31073510       1591.2915      1591.2915      1591.2915      1704.3543      3295.6457      1704.3543      3295.6457      1704.3543      3295.6457      4.0294818e+09  0.5            9821700        2.7437106      6099.4254      12198.845      5.4709951    
  19638600   121076.93      3.0754913     -31437986       0.17392611     360546.42     -31077440       1591.2915      1591.2915      1591.2915      1704.3543      3295.6457      1704.3543      3295.6457      1704.3543      3295.6457      4.0294818e+09  0.5            9821800        2.7602317      6052.8745      12105.762      5.4547468    
  19638800   128295.74      3.4200854     -31443003       0.17392611     382042.81     -31060960       1591.2915      1591.2915      1591.2915      1704.3543      3295.6457      1704.3543      3295.6457      1704.3543      3295.6457      4.0294818e+09  0.5            9821900        2.7766572      6088.0706      12176.109      5.4383083    
  19639000   130090.53      3.5769575     -31440613       0.17392611     387387.37     -31053226       1591.2915      1591.2915      1591.2915      1704.3543      3295.6457      1704.3543      3295.6457      1704.3543      3295.6457      4.0294818e+09  0.5            9822000        2.7932887      6012.6929      12025.388      5.4222696    
  19639200   124450.96      3.5822772     -31438239       0.17392611     370593.7      -31067645       1591.2915      1591.2915      1591.2915      1704.3543      3295.6457      1704.3543      3295.6457      1704.3543      3295.6457      4.0294818e+09  0.5            9822100        2.8096251      6121.2926      12242.569      5.4056564    
  19639400   123120.06      3.7705366     -31435936       0.17392611     366630.5      -31069305       1591.2915      1591.2915      1591.2915      1704.3543      3295.6457      1704.3543      3295.6457      1704.3543      3295.6457      4.0294818e+09  0.5            9822200        2.8261013      6069.3912      12138.813      5.3893126    
  19639600   130436.57      4.1611428     -31441027       0.17392611     388417.83     -31052610       1591.2915      1591.2915      1591.2915      1704.3543      3295.6457      1704.3543      3295.6457      1704.3543      3295.6457      4.0294818e+09  0.5            9822300        2.8428466      5971.8185      11943.672      5.373476     
  19639800   130898.49      4.3579719     -31431332       0.17392611     389793.35     -31041538       1591.2915      1591.2915      1591.2915      1704.3543      3295.6457      1704.3543      3295.6457      1704.3543      3295.6457      4.0294818e+09  0.5            9822400        2.8591711      6125.769       12251.492      5.3568408    
  19640000   128220.26      4.412754      -31429041       0.17392611     381818.05     -31047223       1591.2915      1591.2915      1591.2915      1704.3543      3295.6457      1704.3543      3295.6457      1704.3543      3295.6457      4.0294818e+09  0.5            9822500        2.8760132      5937.4835      11874.978      5.3411705    
  19640200   128309.84      4.5592824     -31412039       0.17392611     382084.8      -31029954       1591.2915      1591.2915      1591.2915      1704.3543      3295.6457      1704.3543      3295.6457      1704.3543      3295.6457      4.0294818e+09  0.5            9822600        2.8924866      6070.4026      12140.78       5.324808     
  19640400   134942.36      4.9122061     -31409801       0.17392611     401835.32     -31007966       1591.2915      1591.2915      1591.2915      1704.3543      3295.6457      1704.3543      3295.6457      1704.3543      3295.6457      4.0294818e+09  0.5            9822700        2.9091552      5999.2962      11998.604      5.3088004    
  19640600   135856.16      5.0699357     -31414897       0.17392611     404556.44     -31010341       1591.2915      1591.2915      1591.2915      1704.3543      3295.6457      1704.3543      3295.6457      1704.3543      3295.6457      4.0294818e+09  0.5            9822800        2.9257591      6022.6724      12045.335      5.2926684    
  19640800   130532.45      4.9557388     -31412644       0.17392611     388703.36     -31023940       1591.2915      1591.2915      1591.2915      1704.3543      3295.6457      1704.3543      3295.6457      1704.3543      3295.6457      4.0294818e+09  0.5            9822900        2.9427913      5871.2218      11742.46       5.2772993    
  19641000   129923.99      5.0588013     -31417826       0.17392611     386891.47     -31030935       1591.2915      1591.2915      1591.2915      1704.3543      3295.6457      1704.3543      3295.6457      1704.3543      3295.6457      4.0294818e+09  0.5            9823000        2.9591261      6121.9285      12243.831      5.2606717    
  19641200   132387.44      5.1698124     -31415632       0.17392611     394227.19     -31021405       1591.2915      1591.2915      1591.2915      1704.3543      3295.6457      1704.3543      3295.6457      1704.3543      3295.6457      4.0294818e+09  0.5            9823100        2.9761143      5886.425       11772.84       5.2451991    
  19641400   136075.03      5.2236519     -31420797       0.17392611     405208.19     -31015589       1591.2915      1591.2915      1591.2915      1704.3543      3295.6457      1704.3543      3295.6457      1704.3543      3295.6457      4.0294818e+09  0.5            9823200        2.9924284      6129.6632      12259.352      5.2285318    
  19641600   137560.29      5.4630986     -31396443       0.17392611     409631.04     -30986812       1591.2915      1591.2915      1591.2915      1704.3543      3295.6457      1704.3543      3295.6457      1704.3543      3295.6457      4.0294818e+09  0.5            9823300        3.0091544      5978.7054      11957.436      5.212582     
  19641800   135298.5       5.5150099     -31386844       0.17392611     402895.82     -30983948       1591.2915      1591.2915      1591.2915      1704.3543      3295.6457      1704.3543      3295.6457      1704.3543      3295.6457      4.0294818e+09  0.5            9823400        3.0255822      6087.2438      12174.467      5.1961115    
  19642000   130911.37      5.4692268     -31384656       0.17392611     389831.71     -30994824       1591.2915      1591.2915      1591.2915      1704.3543      3295.6457      1704.3543      3295.6457      1704.3543      3295.6457      4.0294818e+09  0.5            9823500        3.042365       5958.4781      11916.97       5.1802461    
  19642200   136110.13      5.6824458     -31397265       0.17392611     405312.72     -30991953       1591.2915      1591.2915      1591.2915      1704.3543      3295.6457      1704.3543      3295.6457      1704.3543      3295.6457      4.0294818e+09  0.5            9823600        3.0586367      6145.6707      12291.336      5.1635077    
  19642400   141274.18      5.8525344     -31395093       0.17392611     420690.39     -30974403       1591.2915      1591.2915      1591.2915      1704.3543      3295.6457      1704.3543      3295.6457      1704.3543      3295.6457      4.0294818e+09  0.5            9823700        3.0754898      5933.606       11867.166      5.1477479    
  19642600   139695.76      5.7759035     -31400282       0.17392611     415990.12     -30984292       1591.2915      1591.2915      1591.2915      1704.3543      3295.6457      1704.3543      3295.6457      1704.3543      3295.6457      4.0294818e+09  0.5            9823800        3.0918445      6114.4746      12228.986      5.1311489    
  19642800   136572.57      5.7559141     -31390753       0.17392611     406689.8      -30984063       1591.2915      1591.2915      1591.2915      1704.3543      3295.6457      1704.3543      3295.6457      1704.3543      3295.6457      4.0294818e+09  0.5            9823900        3.1083883      6044.5386      12089.084      5.1148639    
  19643000   139482.55      5.9214559     -31381286       0.17392611     415355.21     -30965930       1591.2915      1591.2915      1591.2915      1704.3543      3295.6457      1704.3543      3295.6457      1704.3543      3295.6457      4.0294818e+09  0.5            9824000        3.1248034      6091.9601      12183.935      5.0983662    
  19643200   146499.61      6.1150298     -31386567       0.17392611     436250.81     -30950316       1591.2915      1591.2915      1591.2915      1704.3543      3295.6457      1704.3543      3295.6457      1704.3543      3295.6457      4.0294818e+09  0.5            9824100        3.1414476      6008.0946      12016.222      5.0822398    
  19643400   143325.57      6.1105128     -31384470       0.17392611     426799.08     -30957671       1591.2915      1591.2915      1591.2915      1704.3543      3295.6457      1704.3543      3295.6457      1704.3543      3295.6457      4.0294818e+09  0.5            9824200        3.1576716      6163.7381      12327.458      5.0654341    
  19643600   138115.7       5.9605568     -31389818       0.17392611     411284.98     -30978533       1591.2915      1591.2915      1591.2915      1704.3543      3295.6457      1704.3543      3295.6457      1704.3543      3295.6457      4.0294818e+09  0.5            9824300        3.1742607      6028.0411      12056.094      5.0492151    
  19643800   142750.32      6.056148      -31380485       0.17392611     425086.08     -30955399       1591.2915      1591.2915      1591.2915      1704.3543      3295.6457      1704.3543      3295.6457      1704.3543      3295.6457      4.0294818e+09  0.5            9824400        3.1905532      6137.7904      12275.532      5.0325247    
  19644000   150037.7       6.3904075     -31378485       0.17392611     446786.64     -30931698       1591.2915      1591.2915      1591.2915      1704.3543      3295.6457      1704.3543      3295.6457      1704.3543      3295.6457      4.0294818e+09  0.5            9824500        3.2072194      6000.1457      12000.322      5.0164227    
  19644200   145280.02      6.244289      -31383863       0.17392611     432619.08     -30951244       1591.2915      1591.2915      1591.2915      1704.3543      3295.6457      1704.3543      3295.6457      1704.3543      3295.6457      4.0294818e+09  0.5            9824600        3.2237152      6062.1778      12124.367      5.0000505    
  19644400   141646.17      6.0860731     -31389292       0.17392611     421798.1      -30967494       1591.2915      1591.2915      1591.2915      1704.3543      3295.6457      1704.3543      3295.6457      1704.3543      3295.6457      4.0294818e+09  0.5            9824700        3.2402997      6029.7196      12059.452      4.9838136    
  19644600   146496.25      6.0875263     -31402147       0.17392611     436240.81     -30965907       1591.2915      1591.2915      1591.2915      1704.3543      3295.6457      1704.3543      3295.6457      1704.3543      3295.6457      4.0294818e+09  0.5            9824800        3.2565471      6154.8211      12309.607      4.9670592    
  19644800   152270.79      6.313002      -31392827       0.17392611     453436.41     -30939390       1591.2915      1591.2915      1591.2915      1704.3543      3295.6457      1704.3543      3295.6457      1704.3543      3295.6457      4.0294818e+09  0.5            9824900        3.2732814      5975.7365      11951.473      4.9510463    
  19645000   149209.62      6.1806431     -31383493       0.17392611     444320.75     -30939172       1591.2915      1591.2915      1591.2915      1704.3543      3295.6457      1704.3543      3295.6457      1704.3543      3295.6457      4.0294818e+09  0.5            9825000        3.289665       6103.6687      12207.333      4.9345       
  19645200   146870.01      6.1633596     -31374185       0.17392611     437353.81     -30936831       1591.2915      1591.2915      1591.2915      1704.3543      3295.6457      1704.3543      3295.6457      1704.3543      3295.6457      4.0294818e+09  0.5            9825100        3.3062082      6044.8027      12089.614      4.9181927    
  19645400   148475.57      6.1543909     -31372255       0.17392611     442134.89     -30930120       1591.2915      1591.2915      1591.2915      1704.3543      3295.6457      1704.3543      3295.6457      1704.3543      3295.6457      4.0294818e+09  0.5            9825200        3.3227466      6046.533       12093.021      4.9018762    
  19645600   155341         6.5250569     -31370312       0.17392611     462578.98     -30907733       1591.2915      1591.2915      1591.2915      1704.3543      3295.6457      1704.3543      3295.6457      1704.3543      3295.6457      4.0294818e+09  0.5            9825300        3.3397104      5894.8921      11789.799      4.8861799    
  19645800   160763.06      6.804869      -31360909       0.17392611     478724.93     -30882184       1591.2915      1591.2915      1591.2915      1704.3543      3295.6457      1704.3543      3295.6457      1704.3543      3295.6457      4.0294818e+09  0.5            9825400        3.3559547      6156.0252      12312.077      4.8694268    
  19646000   147914.68      6.4997502     -31358864       0.17392611     440464.65     -30918399       1591.2915      1591.2915      1591.2915      1704.3543      3295.6457      1704.3543      3295.6457      1704.3543      3295.6457      4.0294818e+09  0.5            9825500        3.3726614      5985.6075      11971.211      4.8533444    
  19646200   146684.1       6.3563425     -31379023       0.17392611     436800.19     -30942223       1591.2915      1591.2915      1591.2915      1704.3543      3295.6457      1704.3543      3295.6457      1704.3543      3295.6457      4.0294818e+09  0.5            9825600        3.3889739      6130.2776      12260.578      4.8366932    
  19646400   154192.83      6.6268406     -31391787       0.17392611     459159.91     -30932627       1591.2915      1591.2915      1591.2915      1704.3543      3295.6457      1704.3543      3295.6457      1704.3543      3295.6457      4.0294818e+09  0.5            9825700        3.4054749      6060.2318      12120.468      4.8203122    
  19646600   156880.67      6.8704053     -31397124       0.17392611     467163.85     -30929960       1591.2915      1591.2915      1591.2915      1704.3543      3295.6457      1704.3543      3295.6457      1704.3543      3295.6457      4.0294818e+09  0.5            9825800        3.4219361      6074.9057      12149.788      4.8038741    
  19646800   153969.91      6.7864345     -31395058       0.17392611     458496.1      -30936562       1591.2915      1591.2915      1591.2915      1704.3543      3295.6457      1704.3543      3295.6457      1704.3543      3295.6457      4.0294818e+09  0.5            9825900        3.4386706      5975.6708      11951.309      4.7878165    
  19647000   149423.84      6.7880699     -31393004       0.17392611     444958.67     -30948046       1591.2915      1591.2915      1591.2915      1704.3543      3295.6457      1704.3543      3295.6457      1704.3543      3295.6457      4.0294818e+09  0.5            9826000        3.4550293      6112.9249      12225.842      4.7712335    
  19647200   153787.94      7.124726      -31390943       0.17392611     457954.22     -30932989       1591.2915      1591.2915      1591.2915      1704.3543      3295.6457      1704.3543      3295.6457      1704.3543      3295.6457      4.0294818e+09  0.5            9826100        3.4717801      5969.8787      11939.816      4.7551892    
  19647400   161247.26      7.5898133     -31374023       0.17392611     480166.81     -30893856       1591.2915      1591.2915      1591.2915      1704.3543      3295.6457      1704.3543      3295.6457      1704.3543      3295.6457      4.0294818e+09  0.5            9826200        3.4880675      6139.738       12279.392      4.7385091    
  19647600   158781.95      7.5960782     -31371766       0.17392611     472825.55     -30898940       1591.2915      1591.2915      1591.2915      1704.3543      3295.6457      1704.3543      3295.6457      1704.3543      3295.6457      4.0294818e+09  0.5            9826300        3.5048038      5975.0049      11950.062      4.7224374    
  19647800   153647.94      7.6618962     -31369473       0.17392611     457537.34     -30911936       1591.2915      1591.2915      1591.2915      1704.3543      3295.6457      1704.3543      3295.6457      1704.3543      3295.6457      4.0294818e+09  0.5            9826400        3.5211173      6129.9067      12259.824      4.7057945    
  19648000   157061.74      7.9397839     -31367142       0.17392611     467703.05     -30899439       1591.2915      1591.2915      1591.2915      1704.3543      3295.6457      1704.3543      3295.6457      1704.3543      3295.6457      4.0294818e+09  0.5            9826500        3.5379386      5944.849       11889.646      4.6898279    
  19648200   165851.13      8.3445517     -31364717       0.17392611     493876.34     -30870840       1591.2915      1591.2915      1591.2915      1704.3543      3295.6457      1704.3543      3295.6457      1704.3543      3295.6457      4.0294818e+09  0.5            9826600        3.554253       6129.5272      12259.075      4.6731869    
  19648400   161638.93      8.4066731     -31347469       0.17392611     481333.12     -30866136       1591.2915      1591.2915      1591.2915      1704.3543      3295.6457      1704.3543      3295.6457      1704.3543      3295.6457      4.0294818e+09  0.5            9826700        3.5709847      5976.6915      11953.435      4.6570928    
  19648600   156819.7       8.3864678     -31352353       0.17392611     466982.29     -30885371       1591.2915      1591.2915      1591.2915      1704.3543      3295.6457      1704.3543      3295.6457      1704.3543      3295.6457      4.0294818e+09  0.5            9826800        3.5874579      6070.4914      12140.991      4.6406586    
  19648800   161401.48      8.6695967     -31342435       0.17392611     480626.06     -30861809       1591.2915      1591.2915      1591.2915      1704.3543      3295.6457      1704.3543      3295.6457      1704.3543      3295.6457      4.0294818e+09  0.5            9826900        3.6037385      6142.2549      12284.504      4.6239771    
  19649000   169634.86      9.2680965     -31325024       0.17392611     505143.63     -30819880       1591.2915      1591.2915      1591.2915      1704.3543      3295.6457      1704.3543      3295.6457      1704.3543      3295.6457      4.0294818e+09  0.5            9827000        3.6203933      6004.2794      12008.555      4.6077753    
  19649200   165112.77      9.247589      -31314951       0.17392611     491677.62     -30823274       1591.2915      1591.2915      1591.2915      1704.3543      3295.6457      1704.3543      3295.6457      1704.3543      3295.6457      4.0294818e+09  0.5            9827100        3.6368623      6072.0462      12144.094      4.5913349    
  19649400   160935.5       9.3431902     -31304886       0.17392611     479238.44     -30825647       1591.2915      1591.2915      1591.2915      1704.3543      3295.6457      1704.3543      3295.6457      1704.3543      3295.6457      4.0294818e+09  0.5            9827200        3.6533917      6049.8051      12099.607      4.57497      
  19649600   163635.47      9.6216973     -31302191       0.17392611     487278.49     -30814912       1591.2915      1591.2915      1591.2915      1704.3543      3295.6457      1704.3543      3295.6457      1704.3543      3295.6457      4.0294818e+09  0.5            9827300        3.6698975      6058.4896      12116.962      4.5585743    
  19649800   172335.63      10.040532     -31306826       0.17392611     513186.08     -30793640       1591.2915      1591.2915      1591.2915      1704.3543      3295.6457      1704.3543      3295.6457      1704.3543      3295.6457      4.0294818e+09  0.5            9827400        3.6865179      6016.6817      12033.368      4.5423187    
[...]
  20294400   306.03935      1.0377093     -31563642       0.17880475     911.33292     -31562730       1576.6852      1576.6852      1576.6852      1711.6574      3288.3426      1711.6574      3288.3426      1711.6574      3288.3426      3.9195387e+09  0.5            10149700       29.682025      4862.6959      9725.3985      1.0871786    
  20294600   305.90285      0.97628277    -31563715       0.17880348     910.92646     -31562804       1576.6889      1576.6889      1576.6889      1711.6556      3288.3444      1711.6556      3288.3444      1711.6556      3288.3444      3.9195664e+09  0.5            10149800       29.702351      4919.6222      9839.213       1.0666591    
  20294800   305.92496      1.0373874     -31563786       0.17880752     910.99229     -31562875       1576.677       1576.677       1576.677       1711.6615      3288.3385      1711.6615      3288.3385      1711.6615      3288.3385      3.9194779e+09  0.5            10149900       29.722589      4941.3875      9882.7891      1.0461367    
  20295000   306.0104       0.93068131    -31563859       0.17880464     911.24671     -31562948       1576.6855      1576.6855      1576.6855      1711.6573      3288.3427      1711.6573      3288.3427      1711.6573      3288.3427      3.919541e+09   0.5            10150000       29.74292       4918.4659      9836.9211      1.025618     
  20295200   305.96595      1.1072813     -31563929       0.17881356     911.11435     -31563017       1576.6593      1576.6593      1576.6593      1711.6704      3288.3296      1711.6704      3288.3296      1711.6704      3288.3296      3.9193454e+09  0.5            10150100       29.763276      4912.5343      9825.0918      1.0051004    
  20295400   305.8749       0.85536682    -31564004       0.17880469     910.84323     -31563093       1576.6853      1576.6853      1576.6853      1711.6573      3288.3427      1711.6573      3288.3427      1711.6573      3288.3427      3.9195399e+09  0.5            10150200       29.78381       4870.0965      9740.2006      0.98458882   
  20295600   305.96816      1.1743262     -31564071       0.17881977     911.12092     -31563160       1576.641       1576.641       1576.641       1711.6795      3288.3205      1711.6795      3288.3205      1711.6795      3288.3205      3.9192092e+09  0.5            10150300       29.80392       4972.51        9944.9913      0.96406356   
  20295800   306.00022      0.80269359    -31564148       0.17880589     911.21642     -31563237       1576.6818      1576.6818      1576.6818      1711.6591      3288.3409      1711.6591      3288.3409      1711.6591      3288.3409      3.9195136e+09  0.5            10150400       29.824095      4956.6089      9913.2619      0.9435409    
  20296000   305.87782      1.2287225     -31564214       0.17882506     910.85191     -31563303       1576.6255      1576.6255      1576.6255      1711.6873      3288.3127      1711.6873      3288.3127      1711.6873      3288.3127      3.9190933e+09  0.5            10150500       29.844343      4938.8045      9877.5939      0.92302099   
  20296200   305.79877      0.72381476    -31564292       0.17880549     910.61653     -31563381       1576.683       1576.683       1576.683       1711.6585      3288.3415      1711.6585      3288.3415      1711.6585      3288.3415      3.9195223e+09  0.5            10150600       29.864582      4941.0545      9882.083       0.90250116   
  20296400   305.90843      1.3384422     -31564354       0.17883252     910.94306     -31563443       1576.6035      1576.6035      1576.6035      1711.6982      3288.3018      1711.6982      3288.3018      1711.6982      3288.3018      3.9189299e+09  0.5            10150700       29.885137      4864.8678      9729.7494      0.88199107   
  20296600   305.87421      0.59551024    -31564435       0.17880307     910.84117     -31563524       1576.6901      1576.6901      1576.6901      1711.655       3288.345       1711.655       3288.345       1711.655       3288.345       3.9195754e+09  0.5            10150800       29.905309      4957.4819      9914.955       0.86146986   
  20296800   305.81682      1.4428554     -31564493       0.17883968     910.67027     -31563583       1576.5825      1576.5825      1576.5825      1711.7087      3288.2913      1711.7087      3288.2913      1711.7087      3288.2913      3.918773e+09   0.5            10150900       29.925567      4936.3071      9872.6492      0.84095156   
  20297000   305.73386      0.56254362    -31564576       0.17880462     910.42322     -31563666       1576.6856      1576.6856      1576.6856      1711.6572      3288.3428      1711.6572      3288.3428      1711.6572      3288.3428      3.9195415e+09  0.5            10151000       29.945871      4925.1166      9850.2006      0.82043488   
  20297200   305.82058      1.3796986     -31564635       0.17884019     910.68146     -31563724       1576.581       1576.581       1576.581       1711.7095      3288.2905      1711.7095      3288.2905      1711.7095      3288.2905      3.9187619e+09  0.5            10151100       29.966252      4906.4357      9812.8696      0.79992055   
  20297400   305.80434      0.75956533    -31564714       0.17881612     910.63311     -31563804       1576.6517      1576.6517      1576.6517      1711.6741      3288.3259      1711.6741      3288.3259      1711.6741      3288.3259      3.9192892e+09  0.5            10151200       29.98666       4900.0452      9800.1187      0.77940709   
  20297600   305.74688      0.97960845    -31564781       0.17882687     910.46199     -31563871       1576.6201      1576.6201      1576.6201      1711.6899      3288.3101      1711.6899      3288.3101      1711.6899      3288.3101      3.9190537e+09  0.5            10151300       30.006788      4968.2284      9936.4559      0.7588867    
  20297800   305.73765      1.3081025     -31564845       0.17884218     910.4345      -31563935       1576.5752      1576.5752      1576.5752      1711.7124      3288.2876      1711.7124      3288.2876      1711.7124      3288.2876      3.9187183e+09  0.5            10151400       30.026947      4960.6986      9921.3835      0.73836759   
  20298000   305.73079      0.51908534    -31564925       0.17881118     910.41409     -31564015       1576.6663      1576.6663      1576.6663      1711.6669      3288.3331      1711.6669      3288.3331      1711.6669      3288.3331      3.9193977e+09  0.5            10151500       30.047118      4957.4849      9914.9692      0.71784929   
  20298200   305.72385      1.4428492     -31564981       0.17885099     910.39343     -31564071       1576.5493      1576.5493      1576.5493      1711.7254      3288.2746      1711.7254      3288.2746      1711.7254      3288.2746      3.9185252e+09  0.5            10151600       30.067294      4956.3551      9912.7151      0.69733157   
  20298400   305.60317      0.73775346    -31565061       0.17882333     910.03407     -31564151       1576.6306      1576.6306      1576.6306      1711.6847      3288.3153      1711.6847      3288.3153      1711.6847      3288.3153      3.9191314e+09  0.5            10151700       30.087798      4877.1702      9754.3384      0.67682168   
  20298600   305.78379      1.2092597     -31572500       0.17884598     910.57191     -31571590       1576.564       1576.564       1576.564       1711.718       3288.282       1711.718       3288.282       1711.718       3288.282       3.918635e+09   0.5            10151800       30.108047      4938.5972      9877.1695      0.65630624   
  20298800   305.79217      0.74500185    -31572576       0.17882843     910.59687     -31571665       1576.6156      1576.6156      1576.6156      1711.6922      3288.3078      1711.6922      3288.3078      1711.6922      3288.3078      3.9190194e+09  0.5            10151900       30.12842       4908.3737      9816.7555      0.63579379   
  20299000   305.68825      1.2618546     -31572637       0.17885159     910.28741     -31571727       1576.5475      1576.5475      1576.5475      1711.7262      3288.2738      1711.7262      3288.2738      1711.7262      3288.2738      3.9185122e+09  0.5            10152000       30.148588      4958.3531      9916.7056      0.61527735   
  20299200   305.6314       0.75162175    -31572714       0.17883197     910.11811     -31571803       1576.6051      1576.6051      1576.6051      1711.6974      3288.3026      1711.6974      3288.3026      1711.6974      3288.3026      3.9189419e+09  0.5            10152100       30.168807      4945.8098      9891.6215      0.59476238   
  20299400   305.71599      1.2152899     -31572775       0.17885303     910.37        -31571865       1576.5433      1576.5433      1576.5433      1711.7284      3288.2716      1711.7284      3288.2716      1711.7284      3288.2716      3.9184805e+09  0.5            10152200       30.189537      4824.0219      9648.0325      0.57425753   
  20299600   305.75046      0.82977393    -31572850       0.17883882     910.47266     -31571939       1576.585       1576.585       1576.585       1711.7075      3288.2925      1711.7075      3288.2925      1711.7075      3288.2925      3.9187919e+09  0.5            10152300       30.209805      4933.8114      9867.6599      0.55374392   
  20299800   305.74621      1.1290323     -31572914       0.17885305     910.46001     -31572004       1576.5432      1576.5432      1576.5432      1711.7284      3288.2716      1711.7284      3288.2716      1711.7284      3288.2716      3.9184801e+09  0.5            10152400       30.230093      4929.059       9858.083       0.53323098   
  20300000   305.67729      0.8974566     -31572987       0.17884503     910.25478     -31572077       1576.5668      1576.5668      1576.5668      1711.7166      3288.2834      1711.7166      3288.2834      1711.7166      3288.2834      3.9186557e+09  0.5            10152500       30.250143      4987.4971      9975.0096      0.51271432   
  20300200   305.66691      1.0904981     -31573053       0.17885461     910.22387     -31572143       1576.5386      1576.5386      1576.5386      1711.7307      3288.2693      1711.7307      3288.2693      1711.7307      3288.2693      3.9184459e+09  0.5            10152600       30.27035       4948.7956      9897.5906      0.49220085   
  20300400   305.65575      0.91281336    -31573124       0.17884875     910.19063     -31572214       1576.5558      1576.5558      1576.5558      1711.7221      3288.2779      1711.7221      3288.2779      1711.7221      3288.2779      3.9185742e+09  0.5            10152700       30.290787      4893.0775      9786.1592      0.47169137   
  20300600   305.67944      1.0826592     -31573190       0.17885745     910.26118     -31572280       1576.5303      1576.5303      1576.5303      1711.7349      3288.2651      1711.7349      3288.2651      1711.7349      3288.2651      3.9183836e+09  0.5            10152800       30.310799      4996.9963      9994.0196      0.45117566   
  20300800   305.71076      0.92602705    -31573261       0.17885263     910.35444     -31572350       1576.5444      1576.5444      1576.5444      1711.7278      3288.2722      1711.7278      3288.2722      1711.7278      3288.2722      3.9184892e+09  0.5            10152900       30.331183      4905.9064      9811.7931      0.43066591   
  20301000   305.70088      1.0517933     -31573328       0.17885943     910.32501     -31572417       1576.5245      1576.5245      1576.5245      1711.7378      3288.2622      1711.7378      3288.2622      1711.7378      3288.2622      3.9183404e+09  0.5            10153000       30.351485      4925.4943      9850.9764      0.41015523   
  20301200   305.69898      1.0315848     -31580774       0.17886149     910.31936     -31579864       1576.5184      1576.5184      1576.5184      1711.7408      3288.2592      1711.7408      3288.2592      1711.7408      3288.2592      3.9182953e+09  0.5            10153100       30.371724      4941.0667      9882.1382      0.38964402   
  20301400   305.66842      0.93669602    -31580844       0.178859       910.22835     -31579934       1576.5257      1576.5257      1576.5257      1711.7371      3288.2629      1711.7371      3288.2629      1711.7371      3288.2629      3.9183498e+09  0.5            10153200       30.392006      4930.3667      9860.7285      0.3691337    
  20301600   305.63023      1.0272464     -31580911       0.17886421     910.11463     -31580001       1576.5104      1576.5104      1576.5104      1711.7448      3288.2552      1711.7448      3288.2552      1711.7448      3288.2552      3.9182356e+09  0.5            10153300       30.412067      4984.9832      9969.9655      0.34862115   
  20301800   305.63796      1.0407255     -31580979       0.17886637     910.13765     -31580069       1576.5041      1576.5041      1576.5041      1711.748       3288.252       1711.748       3288.252       1711.748       3288.252       3.9181883e+09  0.5            10153400       30.432289      4944.9902      9889.9701      0.32811095   
  20302000   305.64086      0.94293087    -31581049       0.17886403     910.14629     -31580139       1576.5109      1576.5109      1576.5109      1711.7445      3288.2555      1711.7445      3288.2555      1711.7445      3288.2555      3.9182394e+09  0.5            10153500       30.452416      4968.3563      9936.7131      0.30760019   
  20302200   305.63516      0.99403392    -31581116       0.17886791     910.12931     -31580206       1576.4996      1576.4996      1576.4996      1711.7502      3288.2498      1711.7502      3288.2498      1711.7502      3288.2498      3.9181545e+09  0.5            10153600       30.472884      4885.8077      9771.623       0.28709314   
  20302400   305.64151      1.0654355     -31581183       0.17887271     910.14822     -31580273       1576.4855      1576.4855      1576.4855      1711.7573      3288.2427      1711.7573      3288.2427      1711.7573      3288.2427      3.9180495e+09  0.5            10153700       30.493469      4857.906       9715.838       0.26658717   
  20302600   305.66091      0.98279477    -31581252       0.1788712      910.20601     -31580342       1576.4899      1576.4899      1576.4899      1711.7551      3288.2449      1711.7551      3288.2449      1711.7551      3288.2449      3.9180825e+09  0.5            10153800       30.513594      4968.8572      9937.6996      0.24607739   
  20302800   305.66381      0.92536908    -31581321       0.17887068     910.21462     -31580411       1576.4914      1576.4914      1576.4914      1711.7543      3288.2457      1711.7543      3288.2457      1711.7543      3288.2457      3.9180939e+09  0.5            10153900       30.533922      4919.4472      9838.8824      0.22556962   
  20303000   305.62659      0.97816728    -31581389       0.17887454     910.10381     -31580478       1576.4801      1576.4801      1576.4801      1711.76        3288.24        1711.76        3288.24        1711.76        3288.24        3.9180093e+09  0.5            10154000       30.554001      4980.3376      9960.6633      0.20506042   
  20303200   305.58713      1.0562513     -31581455       0.17887927     909.98629     -31580545       1576.4662      1576.4662      1576.4662      1711.7669      3288.2331      1711.7669      3288.2331      1711.7669      3288.2331      3.9179057e+09  0.5            10154100       30.574392      4904.1056      9808.2367      0.18455368   
  20303400   305.54915      1.1024456     -31581522       0.17888263     909.8732      -31580612       1576.4563      1576.4563      1576.4563      1711.7718      3288.2282      1711.7718      3288.2282      1711.7718      3288.2282      3.917832e+09   0.5            10154200       30.594793      4901.7373      9803.4665      0.16404716   
  20303600   305.53213      1.0822039     -31581589       0.17888339     909.82251     -31580679       1576.4541      1576.4541      1576.4541      1711.773       3288.227       1711.773       3288.227       1711.773       3288.227       3.9178156e+09  0.5            10154300       30.614798      4998.7818      9997.5571      0.14353891   
  20303800   305.55408      0.96440106    -31581658       0.17888029     909.88788     -31580748       1576.4632      1576.4632      1576.4632      1711.7684      3288.2316      1711.7684      3288.2316      1711.7684      3288.2316      3.9178834e+09  0.5            10154400       30.635         4949.8018      9899.6331      0.12303214   
  20304000   305.75034      0.9942867     -31589102       0.17888474     910.47231     -31588192       1576.4501      1576.4501      1576.4501      1711.7749      3288.2251      1711.7749      3288.2251      1711.7749      3288.2251      3.917786e+09   0.5            10154500       30.655101      4975.0016      9949.9983      0.10252543   
  20304200   305.78763      1.1466314     -31589168       0.17889284     910.58335     -31588257       1576.4263      1576.4263      1576.4263      1711.7868      3288.2132      1711.7868      3288.2132      1711.7868      3288.2132      3.9176086e+09  0.5            10154600       30.675329      4943.6378      9887.2781      0.082019601  
  20304400   305.77147      0.86416435    -31596619       0.17888448     910.53523     -31595708       1576.4509      1576.4509      1576.4509      1711.7746      3288.2254      1711.7746      3288.2254      1711.7746      3288.2254      3.9177915e+09  0.5            10154700       30.695588      4936.0164      9872.0255      0.061514208  
  20304600   305.80751      1.0514325     -31596685       0.17889403     910.64256     -31595775       1576.4228      1576.4228      1576.4228      1711.7886      3288.2114      1711.7886      3288.2114      1711.7886      3288.2114      3.9175826e+09  0.5            10154800       30.715741      4962.1901      9924.3915      0.041009002  
  20304800   305.78839      1.1511912     -31596754       0.1788999      910.58561     -31595843       1576.4056      1576.4056      1576.4056      1711.7972      3288.2028      1711.7972      3288.2028      1711.7972      3288.2028      3.9174539e+09  0.5            10154900       30.736004      4935.0583      9870.1055      0.02050434   
  20305000   305.7396       0.89423515    -31596827       0.17889102     910.44033     -31595916       1576.4317      1576.4317      1576.4317      1711.7842      3288.2158      1711.7842      3288.2158      1711.7842      3288.2158      3.9176484e+09  0.5            10155000       30.756614      4851.8519      9703.6689      0            
Loop time of 30.7567 on 4 procs for 300000 steps with 1000 atoms

Performance: 421.372 ns/day, 0.057 hours/ns, 9753.986 timesteps/s
99.5% CPU use with 4 MPI tasks x no OpenMP threads

MPI task timing breakdown:
Section |  min time  |  avg time  |  max time  |%varavg| %total
---------------------------------------------------------------
Pair    | 1.0683     | 4.8621     | 15.621     | 281.8 | 15.81
Neigh   | 0.0035322  | 0.011838   | 0.035566   |  12.6 |  0.04
Comm    | 6.341      | 16.108     | 19.638     | 140.6 | 52.37
Output  | 0.046845   | 0.080362   | 0.17858    |  20.0 |  0.26
Modify  | 6.5996     | 7.1175     | 7.8783     |  17.6 | 23.14
Other   |            | 2.577      |            |       |  8.38

Nlocal:            250 ave         577 max         135 min
Histogram: 3 0 0 0 0 0 0 0 0 1
Nghost:          189.5 ave         288 max         103 min
Histogram: 1 0 0 1 0 1 0 0 0 1
Neighs:         878.25 ave        2982 max         140 min
Histogram: 3 0 0 0 0 0 0 0 0 1

Total # of neighbors = 3513
Ave neighs/atom = 3.513
Neighbor list builds = 128
Dangerous builds = 44

# run_style
run_style verlet

# write restart
write_restart ${write_res}
write_restart ./pgnpmf/01000/equpmf29.res
System init for write_restart ...
Generated 0 of 1 mixed pair_coeff terms from geometric mixing rule

Total wall time: 0:01:03
