ITEM: TIMESTEP
0
ITEM: NUMBER OF ATOMS
1000
ITEM: BOX BOUNDS pp pp pp
-1.0000000000000000e+02 5.1000000000000000e+03
-1.0000000000000000e+02 5.1000000000000000e+03
-1.0000000000000000e+02 5.1000000000000000e+03
ITEM: ATOMS type x y z ix iy iz
2 4999.99 4759.3 25.08 0 0 0
2 3303.06 3511.39 0.042 0 0 0
2 681.212 0.018 4575.8 0 0 0
2 1149.79 4978.59 0 0 0 0
2 4395.78 3371.19 214.011 0 0 0
2 2416.54 1705.18 1339.07 0 0 0
2 2191.64 452.269 0 0 0 0
2 1796.02 4755.74 3479.93 0 0 0
2 2637.88 778.489 0.007 0 0 0
2 0 4999.98 3700.7 0 0 0
2 4021.47 1562.79 4999.99 0 0 0
2 1818.8 1224.28 1180.96 0 0 0
2 4619.63 1749.1 5000 0 0 0
2 2061.04 4878.05 2748.09 0 0 0
2 3923.68 181.222 0.004 0 0 0
2 2094.64 602.428 49.846 0 0 0
2 4999.99 2848.72 2646.53 0 0 0
2 1728.81 4300.95 0 0 0 0
2 1294.88 0.016 4015.76 0 0 0
2 0.022 5000 2569.07 0 0 0
2 2464.68 3059.67 4102.88 0 0 0
2 1325.29 4244.33 2744.38 0 0 0
2 0.013 4999.95 3290.25 0 0 0
2 4999.99 4999.98 0.005 0 0 0
2 236.809 4999.99 2299.48 0 0 0
2 2763.12 2349.57 5000 0 0 0
2 0.003 3962.65 4999.99 0 0 0
2 0.004 1785.59 5000 0 0 0
2 427.443 4938.23 4560.59 0 0 0
2 0.004 4999.98 4805.73 0 0 0
2 415.096 3474.7 2492.45 0 0 0
2 2460 4295.67 3150.8 0 0 0
2 1124.4 1349.46 281.8 0 0 0
2 2224.59 4435.02 3460.39 0 0 0
2 4926.93 0.015 3803.61 0 0 0
2 1693.37 3142.05 2745.85 0 0 0
2 0.006 1130.9 2546.05 0 0 0
2 1653.18 4996.83 4.528 0 0 0
2 0.015 4999.96 1697.81 0 0 0
2 1836.88 0.029 4999.97 0 0 0
2 2798.58 0.015 0.009 0 0 0
2 0.005 3348.66 286.351 0 0 0
2 4999.99 1209.07 4999.99 0 0 0
2 1535.48 3096.32 5000 0 0 0
2 799.729 1377.49 911.556 0 0 0
2 926.612 3768.68 343.819 0 0 0
2 0.004 4110.44 2730.83 0 0 0
2 3490.72 2729.95 2418.2 0 0 0
2 3264.04 0.013 2990.33 0 0 0
2 2320.44 4667.69 1971.68 0 0 0
2 0.011 4896.28 4999.98 0 0 0
2 0 2729.29 2012.57 0 0 0
2 1859.39 2529.72 5000 0 0 0
2 4999.99 3854.8 4327.07 0 0 0
2 5000 3446.43 2.712 0 0 0
2 1252.25 1666.41 1072.43 0 0 0
2 2227.85 2182.01 0.011 0 0 0
2 404.088 1096.66 2420.7 0 0 0
2 374.255 4999.96 1952.39 0 0 0
2 1549.46 2452.87 214.243 0 0 0
2 0.034 2478.8 4999.95 0 0 0
2 3753.51 0 4903.83 0 0 0
2 1799.13 3632.32 5000 0 0 0
2 2844.76 224.189 5000 0 0 0
2 2730.71 82.282 5000 0 0 0
2 3452.57 96.236 1084.3 0 0 0
2 0.007 3542.08 4999.4 0 0 0
2 98.327 1646.91 4999.99 0 0 0
2 3922.75 1168.21 0 0 0 0
2 3142.43 3570.35 2924.09 0 0 0
2 173.704 676.977 5000 0 0 0
2 56.815 3044.36 1607.56 0 0 0
2 0.005 3433.6 4868.51 0 0 0
2 2085.89 5000 2381.8 0 0 0
2 216.752 1799 3416.54 0 0 0
2 4528.96 3142.79 4517.5 0 0 0
2 0.021 4999.98 4040.74 0 0 0
2 0 608.197 2153.13 0 0 0
2 1614.03 4612.64 1209.66 0 0 0
2 3555.39 1545.44 2222.51 0 0 0
2 828.937 4486.46 4744.42 0 0 0
2 617.057 1327.73 1665.85 0 0 0
2 439.258 5000 3420.9 0 0 0
2 2203.12 2312.99 3040.24 0 0 0
2 4895.84 3912.82 4162.82 0 0 0
2 1553.78 2361.87 4096.01 0 0 0
2 4998.62 3312.66 2141.63 0 0 0
2 2760.6 2643.07 4612.65 0 0 0
2 4807.36 575.191 168.534 0 0 0
2 4409.32 1540.88 2853.66 0 0 0
2 1338.74 1557.62 0 0 0 0
2 477.927 689.053 3117.06 0 0 0
2 4192.53 3809 3272.74 0 0 0
2 4968.81 5000 244.772 0 0 0
2 4648.85 0 2339.01 0 0 0
2 1655.35 1615.32 2586.97 0 0 0
2 4504.24 0 2870.33 0 0 0
2 5000 69.286 419.96 0 0 0
2 0 1396.4 482.745 0 0 0
2 3782.99 501.237 2079.41 0 0 0
2 3107.71 740.155 3666.85 0 0 0
2 0 48.476 1337.6 0 0 0
2 114.043 1241.9 1351.35 0 0 0
2 2196.76 0 978.577 0 0 0
2 0 2401.28 1318.79 0 0 0
2 2958.49 90.936 2548.69 0 0 0
2 670.537 1527.07 1748.64 0 0 0
2 97.939 3335.16 931.27 0 0 0
2 1104.57 817.001 1005.92 0 0 0
2 879.812 2770.68 1711.65 0 0 0
2 1763.01 0 387.282 0 0 0
2 1271.25 0 32.49 0 0 0
2 2636.03 0 2792.37 0 0 0
2 2033.81 2849.6 4127.71 0 0 0
2 411.2 1432.06 413.724 0 0 0
2 904.578 825.238 1619.27 0 0 0
2 562.028 0 1955.76 0 0 0
2 1375.37 1557.41 2306.89 0 0 0
2 1431.97 388.181 609.647 0 0 0
2 592.589 267.873 1770.96 0 0 0
2 24.146 353.306 1863.92 0 0 0
2 960.526 439.922 675.652 0 0 0
2 1074.45 1333.37 120.056 0 0 0
2 925.556 564.766 345.836 0 0 0
2 390.861 179.214 327.639 0 0 0
2 297.055 1236.76 740.187 0 0 0
2 2356.04 2110.64 85.872 0 0 0
2 506.004 1535.97 786.418 0 0 0
2 0 2169.62 0 0 0 0
2 687.958 971.231 838.901 0 0 0
2 133.601 1993.85 461.241 0 0 0
2 259.109 2113.91 508.99 0 0 0
2 458.453 289.331 207.274 0 0 0
2 2826.73 746.663 4103.49 0 0 0
2 1105.34 1244.62 1106.73 0 0 0
2 2778.84 495.37 1772.95 0 0 0
2 1535.91 2788.53 1840.99 0 0 0
2 1950.56 0 1280.63 0 0 0
2 654.363 648.923 504.031 0 0 0
2 1187.2 1826.34 3968.57 0 0 0
2 34.93 1423.89 191.082 0 0 0
2 603.102 1402.07 490.827 0 0 0
2 1537.29 594.067 935.016 0 0 0
2 643.54 1168.3 1611.81 0 0 0
2 18.43 3394.61 1686.09 0 0 0
2 2231.37 1774.37 1427.21 0 0 0
2 1418.41 785.835 417.739 0 0 0
2 729.339 144.765 780.982 0 0 0
2 1295.27 332.142 1177.08 0 0 0
2 2374.96 2480.57 647.327 0 0 0
2 1427.4 335.821 0 0 0 0
2 19.615 796.182 1037.45 0 0 0
2 604.605 509.041 1660.8 0 0 0
2 508.313 1988.29 243.792 0 0 0
2 1057.52 2012.56 19.363 0 0 0
2 257.298 515.753 938.288 0 0 0
2 1787.17 2204.76 2861.99 0 0 0
2 2581.69 0 1679.82 0 0 0
2 582.314 583.563 1481.49 0 0 0
2 2646.9 2982.05 4716.53 0 0 0
2 374.462 1079.13 622.826 0 0 0
2 1051.68 258.272 968.687 0 0 0
2 222.186 4298.38 2806.41 0 0 0
2 1517.36 0 741.725 0 0 0
2 927.948 840.449 525.889 0 0 0
2 4889.54 2431.27 2796.96 0 0 0
2 1328.29 538.678 906.112 0 0 0
2 1048.87 1194.67 315.647 0 0 0
2 656.632 1601.06 521.064 0 0 0
2 771.55 3612.7 3331.22 0 0 0
2 949.493 169.615 176.73 0 0 0
2 1144.86 1024.17 44.477 0 0 0
2 1386.72 0 503.48 0 0 0
2 1447.44 1006.04 144.062 0 0 0
2 841.218 687.505 118.62 0 0 0
2 896.515 916.753 1453.69 0 0 0
2 2388.41 0 1496.03 0 0 0
2 684.512 1981.31 215.61 0 0 0
2 2854.37 1289.23 699.806 0 0 0
2 646.279 736.337 1637.16 0 0 0
2 197.574 228.333 521.714 0 0 0
2 1108.62 1.019 923.272 0 0 0
2 954.644 245.583 1233.47 0 0 0
2 219.424 486.482 1102.04 0 0 0
2 1448.25 906.724 1855.82 0 0 0
2 673.131 210.231 193.221 0 0 0
2 343.844 313.632 611.089 0 0 0
2 359.942 1137.85 461.991 0 0 0
2 324.296 2232.04 614.33 0 0 0
2 1551.65 453.839 758.509 0 0 0
2 545.91 1626.09 0 0 0 0
2 373.262 698.687 891.554 0 0 0
2 944.69 2973.03 390.097 0 0 0
2 700.827 3197.85 453.277 0 0 0
2 179.625 1147.67 424.17 0 0 0
2 2844.71 336.985 0 0 0 0
2 331.626 1535.59 256.401 0 0 0
2 2912.2 0 1596.69 0 0 0
2 811.97 1530.73 1093.14 0 0 0
2 418.293 361.831 761.638 0 0 0
2 1110.94 351.727 28.194 0 0 0
2 0 1330.17 2657.56 0 0 0
2 134.142 399.956 1589.47 0 0 0
2 3199.32 279.341 238.383 0 0 0
2 31.31 50.452 2399.43 0 0 0
2 6.758 1390.27 1417.69 0 0 0
2 3483.53 4076.77 2396.22 0 0 0
2 401.522 225.624 1374.04 0 0 0
2 3069.49 0 4192.55 0 0 0
2 1078.58 568.376 958.07 0 0 0
2 1505.34 639.054 438.138 0 0 0
2 75.097 12.135 1027.68 0 0 0
2 1985.73 836.931 1171.35 0 0 0
2 745.918 268.806 1847.57 0 0 0
2 1028.3 214.973 475.95 0 0 0
2 1719.87 1220.24 199.772 0 0 0
2 137.251 18.515 122.652 0 0 0
2 2072.26 3760.81 967.687 0 0 0
2 938.015 374.137 1794.12 0 0 0
2 56.084 695.526 664.589 0 0 0
2 1084.38 1670.38 510.786 0 0 0
2 649.194 234.663 1066.7 0 0 0
2 1738.51 196.536 1110.34 0 0 0
2 843.251 2016.8 100.784 0 0 0
2 1641.68 0.154 4677.61 0 0 0
2 827.757 496.197 162.693 0 0 0
2 1136.88 3926.51 4131.64 0 0 0
2 885.414 469.125 2020.7 0 0 0
2 528.868 743.082 837.944 0 0 0
2 418.805 385.164 409.572 0 0 0
2 613.851 217.84 1554.71 0 0 0
2 1070.92 772.926 1644.57 0 0 0
2 1686.01 588.424 214.487 0 0 0
2 1318.08 1214.52 712.638 0 0 0
2 735.121 1525.97 661.195 0 0 0
2 543.228 735.778 3.689 0 0 0
2 342.788 183.292 1011.66 0 0 0
2 273.267 512.297 1912.89 0 0 0
2 450.503 1757.29 159.946 0 0 0
2 865.148 170.206 420.337 0 0 0
2 424.037 1343.04 1697.15 0 0 0
2 2568.76 1162.45 3343.33 0 0 0
2 1839.32 310.778 2753.65 0 0 0
2 1545.24 1310.41 1136.74 0 0 0
2 802.828 1692.34 1230.22 0 0 0
2 648.816 782.227 387.281 0 0 0
2 1081.11 1502.99 948.475 0 0 0
2 580.818 428.061 256.248 0 0 0
2 400.684 1934.34 826.337 0 0 0
2 133.319 1681.62 347.149 0 0 0
2 2480.37 1241.85 2030.11 0 0 0
2 474.813 962.888 1890.59 0 0 0
2 1743.53 1830.63 2962.39 0 0 0
2 2151.6 1424.25 522.342 0 0 0
2 3647.93 978.851 2738.17 0 0 0
2 3645.4 2351.1 0 0 0 0
2 1476.81 83.413 23.863 0 0 0
2 1226.94 1653.5 265.143 0 0 0
2 0 2857.35 114.276 0 0 0
2 750.838 1330.27 374.285 0 0 0
2 1268.45 691.585 489.716 0 0 0
2 112.887 1892.58 181.196 0 0 0
2 1212.26 943.023 1057.58 0 0 0
2 1357.31 473.379 281.178 0 0 0
2 908.981 1003.14 243.333 0 0 0
2 1422.44 284.442 751.144 0 0 0
2 1224.25 1441.55 1673.13 0 0 0
2 1695.5 975.714 1182.37 0 0 0
2 1441.56 2080.7 284.342 0 0 0
2 1097.43 1100.51 456.605 0 0 0
2 1237.06 0 1261.91 0 0 0
2 674.101 504.168 1283.51 0 0 0
2 140.765 812.871 1582.14 0 0 0
2 426.321 489.107 1650.55 0 0 0
2 2757.43 1322.1 884.719 0 0 0
2 0 1280.96 1915.69 0 0 0
2 388.619 752.853 714.076 0 0 0
2 1711.68 580.716 920.821 0 0 0
2 1512.48 1574.84 99.605 0 0 0
2 938.288 128.188 643.389 0 0 0
2 1776.84 150.918 829.577 0 0 0
2 2631.47 1937.08 2194.51 0 0 0
2 306.414 210.742 152.348 0 0 0
2 306.579 763.056 1135.61 0 0 0
2 1176.87 1187.61 78.652 0 0 0
2 1507.4 3226.66 58.654 0 0 0
2 29.221 1901.98 1830.45 0 0 0
2 1381.58 1323.49 1060.27 0 0 0
2 2891.98 2970.88 4294.57 0 0 0
2 38.538 1005.33 1763.65 0 0 0
2 365.319 74.662 1996.87 0 0 0
2 3928.46 4183.48 983.032 0 0 0
2 211.498 753.905 702.64 0 0 0
2 1942.82 393.821 1223.84 0 0 0
2 73.918 2296.05 86.331 0 0 0
2 939.398 520.49 1372.76 0 0 0
2 702.893 1334.95 628.82 0 0 0
2 161.02 1259.26 157.661 0 0 0
2 343.587 231.807 1752.29 0 0 0
2 505.199 1200.61 1384.69 0 0 0
2 697.526 532.306 2273.86 0 0 0
2 776.919 1614.73 1385.93 0 0 0
2 1632.25 364.389 197.135 0 0 0
2 1953.13 10.475 62.876 0 0 0
2 4999.94 96.251 4552.19 0 0 0
2 656.516 421.987 1489.97 0 0 0
2 171.682 1445.67 713.867 0 0 0
2 807.209 878.794 323.598 0 0 0
2 1659.64 1289.54 922.283 0 0 0
2 210.49 1008.85 0 0 0 0
2 1774.92 654.325 736.504 0 0 0
2 4.37 969.726 363.413 0 0 0
2 882.817 1156.57 312.75 0 0 0
2 1797.51 480.161 546.725 0 0 0
2 1849.44 1744.39 1841.47 0 0 0
2 1642.09 1013.68 5.019 0 0 0
2 1672 1142.18 365.523 0 0 0
2 1779.62 1928.41 2697.72 0 0 0
2 2611.89 2061.84 2053.39 0 0 0
2 322.238 627.688 1647.46 0 0 0
2 807.702 931.47 125.524 0 0 0
2 504.825 3.07 428.835 0 0 0
2 987.74 336.764 148.03 0 0 0
2 1415.09 0 1088.71 0 0 0
2 440.446 4.844 1837.03 0 0 0
2 509.649 228.121 709.067 0 0 0
2 141.125 431.887 1984.47 0 0 0
2 1370.03 367.739 1725.55 0 0 0
2 2018.19 941.102 732.576 0 0 0
2 609.661 1504.88 1142.73 0 0 0
2 705.39 2576.73 703.401 0 0 0
2 840.136 2.85 3520.14 0 0 0
2 2294.45 2828.62 1456.06 0 0 0
2 1034.04 869.375 379.546 0 0 0
2 1640.56 25.761 226.264 0 0 0
2 800.74 1043.91 993.058 0 0 0
2 1717.31 745.777 117.458 0 0 0
2 1896.54 1518.14 0 0 0 0
2 735.578 0 1823.12 0 0 0
2 2210.83 379.288 1156.15 0 0 0
2 66.015 1669.44 969.665 0 0 0
2 648.157 0 869.639 0 0 0
2 131.699 341.016 1029.26 0 0 0
2 1122.98 1200.71 648.329 0 0 0
2 466.83 769.372 155.167 0 0 0
2 2288.69 1582.09 482.529 0 0 0
2 270.871 1591.67 408.805 0 0 0
2 0 1629.93 608 0 0 0
2 581.414 72.227 2121.87 0 0 0
2 1150.47 1393.42 555.997 0 0 0
2 355.026 620.249 1041.27 0 0 0
2 310.552 797.352 2106.85 0 0 0
2 90.242 511.943 388.735 0 0 0
2 397.673 594.47 1823.2 0 0 0
2 613.085 1035.79 677.889 0 0 0
2 671.295 1534.35 839.375 0 0 0
2 3417.18 666.37 3838.91 0 0 0
2 24.302 1787.93 18.51 0 0 0
2 832.747 374.637 337.306 0 0 0
2 2773.14 2967.65 2037.05 0 0 0
2 1269.69 1128.11 568.006 0 0 0
2 1979.82 2701.23 1155.53 0 0 0
2 2110.19 280.141 2488.76 0 0 0
2 1549.92 598.992 670.025 0 0 0
2 1236.49 214.912 463.801 0 0 0
2 520.047 1091.94 531.353 0 0 0
2 3724.05 612.36 3198.74 0 0 0
2 2067.34 494.404 1461.74 0 0 0
2 474.44 1079.26 1559.66 0 0 0
2 861.711 676.436 1489.24 0 0 0
2 765.589 1450.83 2018.84 0 0 0
2 1513.16 0 2156.24 0 0 0
2 1421.22 4335.79 1978.87 0 0 0
2 1994.1 1574.88 2101.09 0 0 0
2 1012.78 418.369 907.939 0 0 0
2 3495.53 4237.41 0 0 0 0
2 0 1023.33 770.832 0 0 0
2 1933.68 1372.6 202.367 0 0 0
2 674.904 4869.12 2549.61 0 0 0
2 290.111 2260.8 73.491 0 0 0
2 1436.83 471.935 108.03 0 0 0
2 1323.15 1531.71 3003.12 0 0 0
2 1095.97 592.845 1654.94 0 0 0
2 204.843 0 1955.06 0 0 0
2 1770.22 0 1169.33 0 0 0
2 810.603 716.946 475.765 0 0 0
2 575.04 422.52 734.024 0 0 0
2 563.094 1021.72 1202.31 0 0 0
2 632.746 564.739 158.245 0 0 0
2 2940.79 195.738 4204.24 0 0 0
2 1535.36 0 2496.02 0 0 0
2 512.541 1185.02 769.326 0 0 0
2 216.278 1408.65 1337.67 0 0 0
2 2136.92 3122.09 870.495 0 0 0
2 1085.75 489.517 529.109 0 0 0
2 2219.99 13.008 1476.93 0 0 0
2 1122.11 740.392 1161.96 0 0 0
2 1640.97 105.875 950.655 0 0 0
2 1479.62 747.185 981.708 0 0 0
2 401.488 460.968 251.157 0 0 0
2 1163.24 171.827 1079.1 0 0 0
2 391.421 1016.32 232.127 0 0 0
2 558.757 867.697 1753.86 0 0 0
2 835.413 882.663 1084.08 0 0 0
2 170.709 1896.99 869.916 0 0 0
2 5000 488.259 2526.3 0 0 0
2 1513.8 2913.94 2535.61 0 0 0
2 1358.37 565.405 1169.5 0 0 0
2 672.549 302.614 663.194 0 0 0
2 5000 4828.99 2588.14 0 0 0
2 2147.53 412.995 283.021 0 0 0
2 1748.76 131.591 4690.25 0 0 0
2 0 1047.68 526.728 0 0 0
2 609.613 57.778 1474.24 0 0 0
2 1860.68 1119.11 601.232 0 0 0
2 99.157 286.919 836.494 0 0 0
2 710.334 385.847 1002.74 0 0 0
2 4084.19 1664.12 799.977 0 0 0
2 1212.33 1434.28 1092.93 0 0 0
2 1686.66 347.035 747.245 0 0 0
2 308.543 562.038 351.778 0 0 0
2 798.424 1205.19 909.398 0 0 0
2 228.658 908.83 1032.08 0 0 0
2 641.598 3822.61 509.101 0 0 0
2 1168.46 162.024 109.288 0 0 0
2 2276.75 3621.01 2148.23 0 0 0
2 438.642 2409.61 2404.38 0 0 0
2 675.298 1305.51 195.441 0 0 0
2 1532.54 691.161 1202.61 0 0 0
2 214.764 127.128 726.351 0 0 0
2 1480.06 1095.14 724.803 0 0 0
2 256.549 393.966 1708.05 0 0 0
2 1439.92 1130.95 0.002 0 0 0
2 430.532 350.857 2129.03 0 0 0
2 982.657 853.972 2523.62 0 0 0
2 135.191 991.429 1255.09 0 0 0
2 652.974 1301.03 794.449 0 0 0
2 675.51 268.291 2258.57 0 0 0
2 0 1645.43 146.052 0 0 0
2 1898.54 1171.84 127.65 0 0 0
2 411.739 1811.5 3.507 0 0 0
2 1515.15 922.946 860.98 0 0 0
2 976.414 661.111 1069.39 0 0 0
2 1256.31 822.486 1315.33 0 0 0
2 251.483 356.642 806.647 0 0 0
2 1502.94 559.285 1405.43 0 0 0
2 908.713 1100.16 1673.32 0 0 0
2 230.265 306.696 359.853 0 0 0
2 1972.23 468.146 595.878 0 0 0
2 521.57 1841.35 713.488 0 0 0
2 2804.73 117.476 807.555 0 0 0
2 1364.98 1571.13 1444.37 0 0 0
2 618.966 415.856 426.105 0 0 0
2 1010.33 1057.31 979.96 0 0 0
2 293.322 299.771 1491.64 0 0 0
2 1214.68 686.34 961.206 0 0 0
2 218.681 1076.23 740.458 0 0 0
2 3525.82 319.976 4028.26 0 0 0
2 676.787 456.408 2.57 0 0 0
2 1617.13 949.255 2157.12 0 0 0
2 0 671.884 505.857 0 0 0
2 373.784 1645.57 2048.78 0 0 0
2 722.397 0 690.805 0 0 0
2 1791.49 3290.33 1099.52 0 0 0
2 1740.07 0 1.191 0 0 0
2 1419.65 651.289 63.533 0 0 0
2 340.947 1751.65 3727.77 0 0 0
2 47.584 1084.86 1593.52 0 0 0
2 1634.35 1385.77 729.814 0 0 0
2 427.067 176.606 2301.71 0 0 0
2 371.517 849.269 473.373 0 0 0
2 163.892 269.268 1180.14 0 0 0
2 1547.57 763.895 800.494 0 0 0
2 600.775 3432.43 5000 0 0 0
2 1225.67 1297.68 868.441 0 0 0
2 526.995 485.864 583.566 0 0 0
2 1858.97 352.042 257.911 0 0 0
2 372.276 388.972 934.925 0 0 0
2 1965.26 495.08 406.972 0 0 0
2 0 3147.13 3138.68 0 0 0
2 3236.88 3432.63 2649.13 0 0 0
2 1461.65 2789.9 2016.1 0 0 0
2 540.498 161.364 1893.41 0 0 0
2 354.389 2717.18 1221.78 0 0 0
2 3199.14 2339.69 1449.89 0 0 0
2 922.906 1009.87 414.014 0 0 0
2 147.397 922.874 1410.18 0 0 0
2 1085.55 1508.39 0.063 0 0 0
2 6.069 4912.71 1300.37 0 0 0
2 2233.31 534.34 146.937 0 0 0
2 953.255 178.712 2049.89 0 0 0
2 2728.69 3236.98 2965.06 0 0 0
2 875.081 271.648 972.331 0 0 0
2 1866.47 1251.06 892.408 0 0 0
2 510.958 983.986 2107.2 0 0 0
2 767.171 1937.83 398.508 0 0 0
2 8.899 688.508 1543.59 0 0 0
2 975.54 1712.49 0 0 0 0
2 1024.73 1125.55 2153.57 0 0 0
2 1903.09 624.557 140.521 0 0 0
2 2225.11 445.547 1314.98 0 0 0
2 3189.16 3521.7 2139.22 0 0 0
2 403.729 205.009 851.8 0 0 0
2 1354.37 158.478 1478.39 0 0 0
2 171.974 644.113 1562.01 0 0 0
2 24.707 1255.32 1520.13 0 0 0
2 1118.01 446.356 750.773 0 0 0
2 524.289 705.598 1007.48 0 0 0
2 130.479 1153.22 1182.46 0 0 0
2 5000 3543.46 4699.51 0 0 0
2 747.869 734.157 2117.76 0 0 0
2 1683.02 417.892 365.641 0 0 0
2 278.092 530.399 1376.01 0 0 0
2 2806.64 2795.58 1229.95 0 0 0
2 587.899 1224.2 438.392 0 0 0
2 1229.43 1288.26 3715.66 0 0 0
2 2031.4 141.689 888.012 0 0 0
2 2895.22 4090.08 3212.48 0 0 0
2 386.318 1311.94 587.603 0 0 0
2 3244.47 2930.07 403.773 0 0 0
2 1293.29 716.465 319.344 0 0 0
2 435.636 2068.44 2618.48 0 0 0
2 1122.55 908.486 1525.8 0 0 0
2 907.672 5.776 1809.56 0 0 0
2 502.215 927.563 804.444 0 0 0
2 429.151 163.293 1216.98 0 0 0
2 131.821 1055.43 979.076 0 0 0
2 0.341 166.265 1738.71 0 0 0
2 488.41 408.601 1946.95 0 0 0
2 154.807 2580.48 1.159 0 0 0
2 425.291 1624.75 472.678 0 0 0
2 2394.21 1240.12 2839.98 0 0 0
2 965.229 1397.46 356.069 0 0 0
2 4993.75 1233.88 171.13 0 0 0
2 463.071 593.129 142.677 0 0 0
2 827.211 545.887 660.522 0 0 0
2 453.674 543.864 1370.03 0 0 0
2 3354.95 740.172 1922.98 0 0 0
2 1296.83 242.789 240.17 0 0 0
2 1064.97 1469.86 1951.15 0 0 0
2 16.741 2005.4 795.941 0 0 0
2 1558.32 1331.75 364.433 0 0 0
2 819.978 0 1380.17 0 0 0
2 2025.31 1067.11 29.654 0 0 0
2 741.551 415.449 554.947 0 0 0
2 1910.5 168.76 1451.6 0 0 0
2 2250.38 0 600.016 0 0 0
2 998.652 1355.19 753.203 0 0 0
2 1776.34 1399.83 514.72 0 0 0
2 1376.11 870.931 1057.05 0 0 0
2 399.893 1412.66 1536.67 0 0 0
2 2481.31 226.817 1112.25 0 0 0
2 289.474 1133.24 1261.24 0 0 0
2 7.464 1934.17 1008.62 0 0 0
2 129.06 4377.2 3382.11 0 0 0
2 1539.89 1325.96 179.524 0 0 0
2 2034.73 2148.8 740.298 0 0 0
2 68.006 121.363 576.3 0 0 0
2 1069.67 4102.29 4353.64 0 0 0
2 1184.45 1694.19 43.186 0 0 0
2 1662.13 1844.36 2267.94 0 0 0
2 1627.49 0 1721.23 0 0 0
2 238.007 244.961 1331.38 0 0 0
2 554.353 983.12 1036.19 0 0 0
2 2156.34 1385.74 1451.41 0 0 0
2 1632.51 1964.28 1482.9 0 0 0
2 0 2520.65 858.945 0 0 0
2 3774.9 3910.42 1864.31 0 0 0
2 1641.25 937.574 401.288 0 0 0
2 1573.38 2732.42 353.345 0 0 0
2 24.382 903.962 647.697 0 0 0
2 509.125 275.874 966.477 0 0 0
2 1124.35 4089.68 198.741 0 0 0
2 202.188 2018.31 1135.3 0 0 0
2 1274.71 253.569 2352.87 0 0 0
2 1634.15 422.273 976.072 0 0 0
2 951.318 1274.4 609.99 0 0 0
2 2914.7 1662.09 1287.88 0 0 0
2 3893.29 1664.82 2656.79 0 0 0
2 2165.73 686.337 586.336 0 0 0
2 1474.93 2889.65 313.232 0 0 0
2 782.34 2317.73 2592.78 0 0 0
2 2657.84 1384.18 681.63 0 0 0
2 545.489 1255.66 607.566 0 0 0
2 717.949 641.395 1394.77 0 0 0
2 346.44 1760.32 740.511 0 0 0
2 280.376 602.279 127.55 0 0 0
2 780.399 2106.51 645.761 0 0 0
2 336.126 1514.89 1168.63 0 0 0
2 2551.52 383.785 1675.47 0 0 0
2 293.82 290.37 0 0 0 0
2 1300.33 706.181 747.828 0 0 0
2 1183.77 860.143 512.887 0 0 0
2 2285.26 608.07 2308.11 0 0 0
2 651.784 550.325 2020.73 0 0 0
2 1554.54 1720.93 653.753 0 0 0
2 711.728 369.378 146.458 0 0 0
2 1190.09 588.374 820.131 0 0 0
2 2532.18 4998.85 1312.4 0 0 0
2 486.939 0 811.83 0 0 0
2 159.384 260.873 1775.05 0 0 0
2 3540.42 3166.22 1301.19 0 0 0
2 340.166 2727.58 617.511 0 0 0
2 1359.46 859.985 191.846 0 0 0
2 186.605 1682.03 3743.3 0 0 0
2 851.457 758.306 687.725 0 0 0
2 576.115 1622.51 342.553 0 0 0
2 144.378 954.993 485.857 0 0 0
2 2527.11 3351.05 0.574 0 0 0
2 2966.68 1011.2 503.497 0 0 0
2 533.047 1560.5 156.587 0 0 0
2 1369.28 1175.31 3026.16 0 0 0
2 504.257 334.798 1634.26 0 0 0
2 595.719 946.083 369.604 0 0 0
2 743.802 1766.31 132.389 0 0 0
2 1222.05 1122.68 974.165 0 0 0
2 1039.79 0 594.431 0 0 0
2 1890.67 477.34 55.531 0 0 0
2 348.938 1327.76 1144.06 0 0 0
2 2206.31 4044.56 432.24 0 0 0
2 1370.49 581.045 595.959 0 0 0
2 1333.16 1717.17 138.789 0 0 0
2 4.35 0 445.817 0 0 0
2 2286.68 40.809 342.635 0 0 0
2 1075.28 1175.67 1816.43 0 0 0
2 2306.65 1388.44 1860.81 0 0 0
2 199.938 792.22 395.144 0 0 0
2 1416.65 2415.53 4993.98 0 0 0
2 0 1084.4 3010.64 0 0 0
2 3792.06 1398.42 1651.34 0 0 0
2 791.036 1303.24 1234.61 0 0 0
2 1185.82 279.146 849.719 0 0 0
2 1008.08 933.612 1121.32 0 0 0
2 0 1370.57 821.117 0 0 0
2 228.129 1607.87 1052.07 0 0 0
2 117.893 267.228 2461.86 0 0 0
2 600.246 2280.92 687.694 0 0 0
2 414.32 37.687 960.847 0 0 0
2 3195.15 626.898 3809.17 0 0 0
2 1528.91 822.517 609.558 0 0 0
2 1552.93 782.628 80.262 0 0 0
2 140.784 250.739 222.672 0 0 0
2 540.014 3668.39 1225.77 0 0 0
2 1069.2 369.886 293.755 0 0 0
2 528.596 445.831 1027.06 0 0 0
2 392.094 1261.65 4120.48 0 0 0
2 1063.46 546.459 248.045 0 0 0
2 1401.79 1956.32 24.561 0 0 0
2 0.003 1784.18 322.494 0 0 0
2 91.789 604.331 1712.98 0 0 0
2 1714.64 843.085 755.294 0 0 0
2 2006.7 0 3087.05 0 0 0
2 563.26 1436.25 0 0 0 0
2 1478.38 287.846 284.275 0 0 0
2 5.136 656.961 247.935 0 0 0
2 811.936 972.333 1741.3 0 0 0
2 801.127 1662.67 3216.09 0 0 0
2 615.043 1298.27 2077.1 0 0 0
2 736.611 916.214 488.803 0 0 0
2 303.757 398.522 1258.66 0 0 0
2 787.363 95.15 1959.93 0 0 0
2 1904.41 1701.16 158.086 0 0 0
2 396.071 4268.07 1208.44 0 0 0
2 1317.43 1037.05 411.491 0 0 0
2 37.521 2464.8 81.557 0 0 0
2 1316.48 462.331 1907.62 0 0 0
2 1408.21 1410.35 385.492 0 0 0
2 1529.68 1965.67 3981.22 0 0 0
2 379.256 2863.39 2222.87 0 0 0
2 0 410.5 1705.66 0 0 0
2 472.934 1392.83 228.529 0 0 0
2 242.11 1795.94 27.321 0 0 0
2 1682.24 2472.27 2558.61 0 0 0
2 299.157 1456.7 864.362 0 0 0
2 1175.24 49.224 2205.49 0 0 0
2 2240.72 60.361 1.822 0 0 0
2 1075.12 20.073 1953.03 0 0 0
2 707.753 117.519 53.277 0 0 0
2 1331.35 1239.09 451.653 0 0 0
2 1286.18 887.129 670.187 0 0 0
2 1905.47 773.59 312.085 0 0 0
2 1207.65 14.661 630.682 0 0 0
2 698.953 902.057 1540.94 0 0 0
2 1538.67 1178.66 3610.54 0 0 0
2 1302.99 0 5000 0 0 0
2 1598.83 332.681 16.085 0 0 0
2 1385.2 974.816 2070.18 0 0 0
2 365.664 696.523 1280.69 0 0 0
2 607.614 1670.91 736.858 0 0 0
2 1465.33 1118.98 912.026 0 0 0
2 308.84 791.665 1602.55 0 0 0
2 998.709 821.582 153.875 0 0 0
2 248.522 1202.34 1629.7 0 0 0
2 176.542 1555.2 1730.39 0 0 0
2 2551.51 0 795.507 0 0 0
2 786.793 1673.52 815.464 0 0 0
2 3123.3 5000 1221.11 0 0 0
2 278.487 1176.97 1085.34 0 0 0
2 1214.98 543.501 425.4 0 0 0
2 224.138 1361.19 574.34 0 0 0
2 653.997 1295.1 1031.17 0 0 0
2 2340.96 688.199 1343.06 0 0 0
2 263.426 1026.93 2014.9 0 0 0
2 754.535 414.55 815.508 0 0 0
2 726.456 682.559 1229.55 0 0 0
2 773.666 3524.56 739.999 0 0 0
2 788.265 644.514 1719.59 0 0 0
2 0 1295.95 3533.15 0 0 0
2 2819.74 1943.88 0 0 0 0
2 0.378 1292.41 24.473 0 0 0
2 3635.2 1648.68 2452.07 0 0 0
2 1665.72 4893.89 139.241 0 0 0
2 515.697 3960.25 3390.32 0 0 0
2 854.336 693.152 1982.11 0 0 0
2 4113.87 4984.79 4520.01 0 0 0
2 979.93 725.609 1814.29 0 0 0
2 348.827 0 302.774 0 0 0
2 345.279 966.486 1573.89 0 0 0
2 924.666 731.253 1223.98 0 0 0
2 596.21 2335.05 901.611 0 0 0
2 1268.43 378.051 963.941 0 0 0
2 563.482 1771.74 456.179 0 0 0
2 2214.1 1924.54 44.999 0 0 0
2 1389.1 1416.1 142.318 0 0 0
2 2171.22 2251.74 1659.93 0 0 0
2 1097.68 2259.82 0 0 0 0
2 4295.83 0 1908.91 0 0 0
2 2377.03 973.67 194.662 0 0 0
2 269.392 0 627.578 0 0 0
2 62.355 0 2226.21 0 0 0
2 1538.6 600.866 1781.72 0 0 0
2 2322.12 240.097 934.624 0 0 0
2 3181.68 4033.17 4038.59 0 0 0
2 278.533 293.161 1899.65 0 0 0
2 140.795 1038.53 161.684 0 0 0
2 382.199 1508.89 1003.35 0 0 0
2 707.141 258.947 402.887 0 0 0
2 1617.12 2045.4 1651.97 0 0 0
2 1093.33 743.802 2002.9 0 0 0
2 558.615 3797.41 3530.53 0 0 0
2 985.457 2905.33 973.014 0 0 0
2 2035.06 318.606 119.433 0 0 0
2 354.035 1063.71 1402.36 0 0 0
2 12.783 436.65 628.388 0 0 0
2 1155.48 1751.35 822.856 0 0 0
2 678.57 1469.88 120.303 0 0 0
2 1644.87 221.261 325.524 0 0 0
2 10.325 66.595 879.499 0 0 0
2 983.126 509.344 45.677 0 0 0
2 527.957 695.291 1348.68 0 0 0
2 1973.85 604.438 1987.68 0 0 0
2 1287.04 415.267 764.862 0 0 0
2 2074.76 1537.84 0 0 0 0
2 0 416.143 1481.16 0 0 0
2 650.309 823.197 931.423 0 0 0
2 778.253 673.872 285.793 0 0 0
2 1036.52 900.529 0 0 0 0
2 39.942 157.496 1943.93 0 0 0
2 235.49 576.758 775.168 0 0 0
2 1930.78 1836.31 2334.99 0 0 0
2 285.989 1169.6 54.068 0 0 0
2 1522.84 895.501 285.292 0 0 0
2 1463.29 1319.76 14.599 0 0 0
2 275.091 2417.05 2149.25 0 0 0
2 202.736 1812.78 623.783 0 0 0
2 128.452 1466.91 908.224 0 0 0
2 807.44 831.396 866.946 0 0 0
2 265.558 1108.39 3058.13 0 0 0
2 0 2033.38 1215.52 0 0 0
2 841.011 287.432 640.12 0 0 0
2 582.48 1111.38 905.67 0 0 0
2 405.255 1764.99 577.475 0 0 0
2 1540.32 1314.92 1548.64 0 0 0
2 2776.95 2955.99 690.73 0 0 0
2 706.939 2221.86 35.278 0 0 0
2 787.361 549.161 460.361 0 0 0
2 1196.93 1376.86 0.936 0 0 0
2 2253.68 457.037 731.167 0 0 0
2 2722.73 0 699.544 0 0 0
2 0 215.787 718.138 0 0 0
2 0 2212.84 216.184 0 0 0
2 1499.27 682.67 270.352 0 0 0
2 233.21 1315.2 978.217 0 0 0
2 593.78 47.351 290.601 0 0 0
2 2016.63 1466.78 3435.9 0 0 0
2 401.671 867.698 1018.62 0 0 0
2 570.135 776.5 675.827 0 0 0
2 2954.4 3021.43 696.034 0 0 0
2 1993.3 17.429 246.938 0 0 0
2 2256.55 159.649 782.882 0 0 0
2 3846.68 2585.34 122.569 0 0 0
2 4808.68 668.607 3388.87 0 0 0
2 431.681 467.679 24.305 0 0 0
2 2691.66 2965.68 2592.3 0 0 0
2 868.388 627.296 2897.88 0 0 0
2 696.099 660.935 672.197 0 0 0
2 970.219 637.823 661.463 0 0 0
2 4987.35 626.971 1040.36 0 0 0
2 1042.81 696.474 407.526 0 0 0
2 345.264 821.02 293.015 0 0 0
2 759.559 474.512 1739.19 0 0 0
2 177.249 952.086 304.681 0 0 0
2 2510.52 717.458 397.412 0 0 0
2 1336.56 2696.67 0 0 0 0
2 1856.81 691.261 1531.33 0 0 0
2 1495.15 435.103 1283.51 0 0 0
2 0 1469.23 31.007 0 0 0
2 3080.5 3086.2 510.943 0 0 0
2 1945.7 1088.96 4479.76 0 0 0
2 1564.62 2225.49 3977.63 0 0 0
2 1179.59 53.39 1590.4 0 0 0
2 2270.78 710.479 156.903 0 0 0
2 13.78 1175.12 846.131 0 0 0
2 1577.76 1200.63 71.039 0 0 0
2 1094.35 32.292 18.254 0 0 0
2 655.981 629.34 835.292 0 0 0
2 1682.3 15.934 782.068 0 0 0
2 0.003 1.312 1779.85 0 0 0
2 4999.6 1532.91 3.049 0 0 0
2 234.747 49.812 1116.18 0 0 0
2 303.984 17.524 12.89 0 0 0
2 1118.07 1648.66 5000 0 0 0
2 500.193 616.203 703.926 0 0 0
2 2382.2 2267.82 145.437 0 0 0
2 850.605 883.151 1969.35 0 0 0
2 517.998 848.242 1248.26 0 0 0
2 2610.45 347.314 0 0 0 0
2 2389.97 560.272 2043.03 0 0 0
2 232.349 1638.52 689.396 0 0 0
2 221.792 3801.83 1147.49 0 0 0
2 2993.18 1370.99 240.602 0 0 0
2 367.031 917.298 1177.85 0 0 0
2 512.419 421.063 1263.58 0 0 0
2 1810.36 0 187.133 0 0 0
2 3031.16 637.154 1584.62 0 0 0
2 456.752 519.684 865.963 0 0 0
2 383.201 111.366 706.174 0 0 0
2 2789.52 4187.58 2715.75 0 0 0
2 2433.21 681.503 210.433 0 0 0
2 677.673 1375.46 2352.05 0 0 0
2 983.241 0 1566.46 0 0 0
2 550.242 186.17 396.609 0 0 0
2 32.628 293.016 0 0 0 0
2 3872.16 312.334 3728.64 0 0 0
2 1275.89 2113.14 2051.76 0 0 0
2 1111.26 713.099 249.598 0 0 0
2 138.839 438.47 1269.06 0 0 0
2 3392.45 3138.85 616.801 0 0 0
2 961.114 1183.26 98.036 0 0 0
2 393.529 795.758 1750.05 0 0 0
2 818.496 347.148 1226.33 0 0 0
2 1084.79 758.027 741.486 0 0 0
2 731.304 618.682 0.194 0 0 0
2 481.161 725.008 1596.97 0 0 0
2 1614.36 344.904 570.444 0 0 0
2 500.754 0 2253.91 0 0 0
2 2575.58 202.391 672.22 0 0 0
2 1618.47 605.592 0 0 0 0
2 470.388 1182.82 306.641 0 0 0
2 57.758 239.963 1595.63 0 0 0
2 517.21 1521.21 577.235 0 0 0
2 17.634 934.022 937.761 0 0 0
2 38.767 1220.49 276.251 0 0 0
2 295.345 453.694 504.368 0 0 0
2 1162.57 1861 0 0 0 0
2 1801.52 4427.05 1942.35 0 0 0
2 479.585 1325.52 884.799 0 0 0
2 2624.37 1653.69 0 0 0 0
2 774.378 1707.49 1045.03 0 0 0
2 1491.96 460.195 464.959 0 0 0
2 1886.21 7.043 608.715 0 0 0
2 2611.32 0 551.65 0 0 0
2 22.96 1313.06 641.682 0 0 0
2 431.221 389.019 1788.06 0 0 0
2 1074.9 736.07 19.504 0 0 0
2 509.977 1388.51 1052.02 0 0 0
2 1934.69 2363.39 2728.61 0 0 0
2 962.349 3012.82 1708.02 0 0 0
2 797.902 1859.12 0.299 0 0 0
2 1279.31 1059.55 175.84 0 0 0
2 565.533 272.811 0.022 0 0 0
2 0 73.276 3117.5 0 0 0
2 503.343 702.577 327.709 0 0 0
2 342.639 340.35 1098.27 0 0 0
2 263.609 1363.02 8.239 0 0 0
2 1452.38 23.163 338.009 0 0 0
2 52.887 1576.91 455.385 0 0 0
2 5000 1480.39 3467.91 0 0 0
2 2121.77 1265.21 728.459 0 0 0
2 1075.11 1849.74 162.01 0 0 0
2 1129.85 182.024 335.49 0 0 0
2 1212.99 517.824 2039.82 0 0 0
2 2937.4 4973.53 0 0 0 0
2 1845.88 2423.44 3801.44 0 0 0
2 371.428 894.751 48.053 0 0 0
2 766.037 131.082 583.982 0 0 0
2 248.272 0 2161.78 0 0 0
2 1587.79 3069.64 1879.29 0 0 0
2 174.865 3028.75 0 0 0 0
2 1501.87 0 942.325 0 0 0
2 925.79 964.702 2273.31 0 0 0
2 0 1440.67 3903.92 0 0 0
2 1696.83 657.178 561.301 0 0 0
2 522.701 316.807 527.189 0 0 0
2 342.617 4.865 1641.69 0 0 0
2 1164.85 481.799 125.306 0 0 0
2 2214.82 2880.86 1315.2 0 0 0
2 1209.08 602.301 647.622 0 0 0
2 304.445 881.397 878.175 0 0 0
2 404.75 625.227 517.072 0 0 0
2 262.443 752.976 1443.26 0 0 0
2 1265.98 1459.74 265.993 0 0 0
2 139.966 332.646 673.897 0 0 0
2 492.385 926.492 588.094 0 0 0
2 3292.1 1005.53 2441.37 0 0 0
2 1051.8 1532.76 1286.65 0 0 0
2 0 4998.03 2388.2 0 0 0
2 510.38 759.501 517.241 0 0 0
2 1034.92 0 1144.05 0 0 0
2 673.402 2553.72 1758.14 0 0 0
2 352.04 549.46 1196.42 0 0 0
2 1785.04 5000 932.585 0 0 0
2 855.877 67.202 1033.5 0 0 0
2 1678.5 0.474 577.803 0 0 0
2 493.096 1053.28 2261.51 0 0 0
2 241.537 181.12 1602.09 0 0 0
2 828.126 431.246 1517.77 0 0 0
2 0 1945.75 557.705 0 0 0
2 1025.62 349.978 1347.34 0 0 0
2 1709.62 1640.94 1461.71 0 0 0
2 2800.76 2362.74 297.988 0 0 0
2 1829.02 311.774 634.933 0 0 0
2 143.532 637.98 1927.15 0 0 0
2 89.049 1156.98 658.832 0 0 0
2 824.704 1400.72 213.905 0 0 0
2 650.201 305.532 1241.63 0 0 0
2 2151.08 1341.5 1658.74 0 0 0
2 1038.64 1498.36 163.158 0 0 0
2 168.864 1142.09 1488.86 0 0 0
2 519.796 1263.27 35.379 0 0 0
2 1933.28 646.379 1171.79 0 0 0
2 775.617 888.274 1281.68 0 0 0
2 2695.22 905.461 2314.47 0 0 0
2 506.618 295.65 1137.58 0 0 0
2 1005.64 20.885 237.652 0 0 0
2 536.427 1177.78 1140.11 0 0 0
2 55.671 1779.32 3827.69 0 0 0
2 2831.72 327.211 1145.94 0 0 0
2 398.677 25.064 1419.09 0 0 0
2 2530.43 1407.56 1686.1 0 0 0
2 1757.54 2548.18 644.401 0 0 0
2 424.774 421.611 1488.96 0 0 0
2 1966.9 896.769 2199.08 0 0 0
2 144.031 827.531 135.933 0 0 0
2 3226.13 5000 3319.38 0 0 0
2 2346.27 5000 1001.17 0 0 0
2 4012.77 4385.13 2058.59 0 0 0
2 935.881 2485.6 1893.11 0 0 0
2 3157.13 4122.67 1585.51 0 0 0
2 3056.4 2081.2 1128.16 0 0 0
2 959.472 2176.68 421.008 0 0 0
2 2075.73 3566.51 4795.72 0 0 0
2 1101.1 1515.78 324.19 0 0 0
2 39.052 3166.36 294.964 0 0 0
2 2808.52 1051.57 757.151 0 0 0
2 2679.52 303.547 3888.38 0 0 0
2 1731.8 1213.74 0.015 0 0 0
2 4329.21 3635.51 3299.7 0 0 0