ITEM: TIMESTEP
50200000
ITEM: NUMBER OF ATOMS
1000
ITEM: BOX BOUNDS pp pp pp
2.1480321307385893e+03 2.8519678692616335e+03
2.1480321307385893e+03 2.8519678692616335e+03
2.1480321307385893e+03 2.8519678692616335e+03
ITEM: ATOMS type x y z ix iy iz c_vor[1] c_vor[2]
1 2305.67 2771.21 2661.78 0 -1 -1 267908 9
1 2685.5 2683.88 2365.08 0 0 1 238730 14
1 2351.32 2460.91 2776.27 0 0 -1 302042 12
1 2755.83 2578.13 2784.16 0 -1 0 262659 11
1 2434.49 2381.59 2239.56 -1 0 0 318029 12
1 2392.56 2466.41 2813.24 1 -1 0 272847 10
1 2826.6 2760.54 2367.22 -1 -1 0 186673 11
1 2623.33 2716.33 2166.37 0 -1 0 227745 13
1 2647.84 2574.29 2331.58 0 -1 1 267068 11
1 2286.28 2511.95 2671.98 0 -1 -1 249792 12
1 2310.58 2443.71 2486.48 0 -1 0 323880 13
1 2693.8 2753.15 2423.13 -1 -1 -1 242533 13
1 2699.42 2154.46 2703.63 0 0 -1 257629 11
1 2509.11 2269.48 2622.24 0 0 -1 277136 10
1 2514.96 2750.42 2308.23 -1 0 0 225590 13
1 2327.86 2220.63 2582.16 0 0 0 345067 12
1 2622.84 2603.23 2837.77 0 -1 0 226594 12
1 2767.89 2685.28 2757.35 0 -1 -1 284771 12
1 2601.44 2844.34 2338.13 0 -1 0 196733 11
1 2651.73 2229.35 2364.08 0 0 0 258149 12
1 2711.22 2673.13 2604.23 -1 -1 1 191555 12
1 2678.76 2410.43 2723.41 -1 0 -1 260869 10
1 2689.28 2303.96 2683.95 0 0 0 250344 13
1 2736.91 2540.62 2580.48 -1 0 -1 228773 14
1 2683.07 2372.59 2549.75 0 -1 -1 272115 8
1 2201.72 2261.17 2266.3 0 0 0 281634 13
1 2814.92 2802.32 2396.65 0 0 0 210458 14
1 2697.01 2245.54 2496.08 -1 -1 -1 348114 13
1 2671.86 2660.71 2728.28 -1 -1 -1 199802 11
1 2820.17 2747.73 2419.68 -1 -1 -1 247434 12
1 2795.45 2830.94 2271.97 1 0 0 274724 12
1 2713.53 2727.55 2380.26 -1 0 0 190017 12
1 2822.89 2714.02 2576.71 -1 -1 0 263851 13
1 2379.44 2389.43 2630.94 0 0 -1 278241 10
1 2766.45 2175.91 2760.23 0 0 -1 217813 11
1 2170.23 2709.77 2340.3 0 -1 0 274179 11
1 2306.81 2463.71 2656.58 1 0 0 234622 11
1 2608.95 2619.7 2270.41 -1 0 -1 226719 11
1 2619.08 2659.63 2735.65 0 0 -1 198566 12
1 2522.04 2756.22 2495.89 0 0 -1 311872 13
1 2727.04 2169.99 2824.39 0 0 -2 206619 14
1 2635.86 2647.06 2234.02 0 0 0 163114 13
1 2770.65 2776.35 2642.84 0 0 0 220361 9
1 2615.96 2807.29 2185.88 0 -1 0 240232 18
1 2686.37 2341.51 2426.59 0 0 0 260672 9
1 2724.14 2780.57 2162.68 0 -1 -1 231829 14
1 2715.15 2581.17 2311.81 0 -1 0 294457 12
1 2759.52 2648.86 2605.62 0 0 -1 149351 12
1 2300.13 2835.56 2172.29 2 -1 0 276765 11
1 2349.05 2822.57 2268.6 0 -1 0 283038 10
1 2272.47 2189.72 2219.82 0 1 0 286460 12
1 2730.58 2633.45 2648.15 0 -1 -1 176461 13
1 2773.52 2803.02 2690.39 0 -1 -1 235032 12
1 2620.16 2592.06 2540.31 0 0 0 300795 13
1 2467.43 2670.45 2181.2 0 -1 -1 298612 15
1 2497.17 2168.35 2275.04 0 1 0 237832 11
1 2617.93 2191.28 2344.35 0 0 1 175445 11
1 2451.47 2846.8 2279.73 0 -1 -1 234572 10
1 2477.98 2718.07 2199.42 0 -1 0 252694 11
1 2616.5 2236.72 2305.08 0 0 0 279010 13
1 2759.99 2368.01 2635.71 0 -1 -1 283096 13
1 2484.52 2384.17 2574.72 0 0 0 309829 11
1 2678.82 2761.91 2356.15 0 -1 1 185418 14
1 2512.71 2784.28 2674.45 0 -1 -1 318576 12
1 2567.26 2842.44 2829.1 0 -1 -1 251154 14
1 2220.25 2454.76 2222.93 0 0 0 342578 13
1 2581.17 2150.06 2441.97 0 0 0 272452 10
1 2621.6 2755.88 2336.78 1 0 0 219270 14
1 2518.05 2790.59 2800.95 0 0 -1 267779 12
1 2763.94 2851.05 2715.45 0 -2 -1 206194 11
1 2716.21 2280.01 2641.17 0 0 0 247278 12
1 2242 2705.36 2378.78 1 -1 0 267524 13
1 2603.61 2803.04 2836.64 0 -1 -1 177487 13
1 2463.03 2755.02 2319.13 0 0 0 260812 10
1 2719.78 2678.46 2314.85 0 -1 0 236487 14
1 2532.82 2549.39 2282.56 0 -1 0 295685 10
1 2649.17 2703.28 2749.25 0 0 0 169558 13
1 2713.66 2732.87 2305.71 0 0 0 221814 13
1 2643.81 2765.56 2841.85 -1 1 0 182639 15
1 2415.34 2218.87 2815.84 0 0 -1 274072 10
1 2288.57 2838.73 2227.49 1 0 0 261044 12
1 2812.56 2182.93 2496.38 -1 1 0 269464 11
1 2356.41 2673.6 2346.56 0 0 -1 326575 13
1 2506.73 2535.33 2682.97 0 0 -1 296706 13
1 2764.63 2301.77 2633.81 -1 0 0 270305 12
1 2210.29 2599.04 2632.6 0 0 -1 273294 13
1 2747.24 2214.21 2253.58 0 0 0 277788 14
1 2789.59 2467.32 2806.88 -1 0 -1 224574 13
1 2242.8 2686.82 2569.04 0 1 0 273335 11
1 2705.39 2686.19 2264.16 0 -1 0 197054 10
1 2487.51 2187.77 2371.67 0 0 0 258350 11
1 2414.63 2275.07 2206.17 -1 1 0 287400 10
1 2644.31 2686.84 2269.89 -1 0 -1 218966 17
1 2759.05 2741.94 2334.28 -1 0 0 219960 14
1 2608.46 2200.12 2615.03 0 0 0 292397 11
1 2825.55 2621.27 2596.07 0 0 -1 231006 13
1 2152.22 2664.31 2812.95 0 0 -1 302228 10
1 2551.1 2791.98 2843.05 -1 -1 -1 226608 11
1 2625.37 2747.58 2676.82 0 0 -1 226680 10
1 2656.73 2806.51 2335.35 -1 0 0 195935 13
1 2697.39 2402.68 2262.75 -1 0 0 316642 13
1 2690.7 2323.08 2280.17 -1 0 0 276355 13
1 2650.95 2820.63 2818.46 -1 0 0 183919 13
1 2658.51 2356.16 2384.16 -1 1 -1 271147 10
1 2319.89 2744.7 2523.79 0 -1 0 270420 10
1 2608.32 2687.09 2779.96 0 0 -1 204692 11
1 2411.31 2334.67 2796.49 0 1 -1 315814 12
1 2456.81 2685.42 2555.77 -1 0 -1 281319 10
1 2188.45 2708.59 2213.29 0 0 0 288013 9
1 2165.93 2571.45 2187.13 0 0 0 295369 11
1 2399.74 2663.44 2464.93 -1 0 -1 292391 11
1 2743.98 2591.22 2495.35 0 0 -2 223472 11
1 2319.11 2606.94 2627.75 0 0 -1 272275 11
1 2675.61 2651.93 2638.02 0 -1 0 227790 12
1 2539.53 2831.14 2266.43 0 -1 1 224830 12
1 2653.05 2520.46 2799.87 0 -1 0 213525 11
1 2634.87 2677.26 2344.94 -1 -1 0 232731 15
1 2682.55 2844.98 2619.35 0 -1 0 303131 12
1 2202.98 2289.2 2607.53 0 0 0 353973 12
1 2232.21 2615.78 2408.06 0 -1 0 268370 12
1 2445.57 2267.66 2260.84 -1 0 1 292223 10
1 2633.48 2667.34 2435.38 0 -1 0 269156 14
1 2728.19 2167.12 2458.07 0 0 1 254844 11
1 2728.42 2749.73 2659.61 -1 0 -1 246698 14
1 2453.91 2245.33 2713.02 -1 0 0 260122 11
1 2464.43 2843.68 2229 -1 -1 1 245103 13
1 2737.62 2705.2 2507.37 -1 0 1 210276 12
1 2395.07 2225.89 2709.16 0 0 0 268119 12
1 2206.15 2339.66 2202.08 0 -1 0 285011 11
1 2405.33 2524.15 2611.17 0 0 0 253048 14
1 2735.7 2774.61 2396.03 -1 -2 1 199387 14
1 2390.2 2815.06 2376.4 0 -1 0 271707 12
1 2202.07 2850.22 2444.47 0 -1 0 288240 11
1 2851.13 2806.5 2356.53 0 0 0 260805 12
1 2694.14 2576.18 2482.4 -1 0 0 230760 13
1 2650.02 2574.95 2174.64 0 -1 2 223787 11
1 2800.71 2664.77 2575 -2 -1 0 193018 14
1 2730.26 2315.92 2164.12 0 -1 0 265134 13
1 2630.36 2723.83 2574.26 -1 0 0 308762 13
1 2681.72 2299.78 2232.62 -1 1 1 274162 12
1 2816.6 2150.74 2148.79 -1 0 1 251681 10
1 2742.44 2670.63 2560.28 0 -1 1 190432 12
1 2753.28 2425.58 2754.39 -1 0 0 241221 13
1 2566.27 2765.8 2311.88 -1 0 1 183308 11
1 2671.31 2691.23 2217.85 0 -1 1 214257 13
1 2584.14 2659.2 2239.8 -1 -1 1 179296 10
1 2595.2 2672.44 2290.46 0 -1 1 196875 13
1 2848.62 2825.07 2278.08 -1 -1 0 275748 13
1 2585.51 2148.54 2231.59 -1 0 1 286769 14
1 2709.21 2824.06 2837.65 -1 0 0 186565 13
1 2834.31 2846.07 2803.06 0 0 0 282292 11
1 2739.79 2751.93 2822.83 0 0 -1 264122 14
1 2199.88 2732.07 2468.49 0 0 0 257280 13
1 2727.25 2295.92 2818.99 0 0 -1 235040 10
1 2688.87 2643.94 2236.12 -1 0 1 206908 10
1 2469.52 2487.16 2771.64 1 0 -1 243830 11
1 2177.47 2230.13 2305.08 1 1 0 291317 13
1 2731.19 2470.83 2770.89 0 0 0 222704 12
1 2696.33 2618.49 2447.91 0 0 0 243249 13
1 2784.68 2517.31 2577.67 0 0 -1 243676 13
1 2753.16 2825.25 2385.68 0 0 0 246875 11
1 2820.24 2741.86 2624.27 -1 -1 -1 218023 11
1 2797.15 2524.17 2679.18 0 0 -1 218156 13
1 2647.24 2710.19 2808.19 -1 0 -1 237761 16
1 2712.86 2499.04 2556.45 0 0 0 230652 12
1 2752.92 2475.08 2582.96 -1 -1 -1 277992 14
1 2307.24 2574.86 2678.72 0 0 -1 300523 13
1 2647.25 2757.58 2191.81 0 -1 0 180329 12
1 2776.86 2741.27 2388.85 -1 0 0 159469 10
1 2705.56 2828.46 2550.96 0 0 0 294811 10
1 2679.04 2289.04 2844.98 0 1 -1 269097 12
1 2279.61 2829.9 2341.73 0 -1 1 264265 11
1 2257.61 2777.64 2682.42 1 0 -1 297446 13
1 2157.73 2410.43 2830.18 1 0 -1 287789 11
1 2609.24 2702.96 2651.16 0 1 0 259072 15
1 2632.64 2243.36 2593.67 0 0 0 305821 11
1 2799.89 2256.15 2246.45 0 1 0 288766 12
1 2779.41 2589.63 2737.94 0 0 -1 213324 13
1 2488.03 2174.04 2533.86 0 1 -1 300662 9
1 2602.69 2417.38 2265.21 0 -1 1 289656 12
1 2608.88 2673.07 2195.11 0 0 0 208192 13
1 2650.53 2798.63 2226.17 0 0 0 173982 11
1 2833.91 2548.78 2709.14 0 0 -1 214552 13
1 2549.23 2770.12 2260.7 0 0 1 215060 15
1 2589.25 2712.22 2243.55 0 -1 1 196716 14
1 2796.99 2582 2688.46 0 0 -1 193507 12
1 2778.31 2785.12 2360 -1 0 -1 165938 11
1 2807.46 2564.87 2417.94 0 0 0 283236 12
1 2411.39 2256.68 2767.33 0 0 0 280383 13
1 2450.56 2583.16 2322.76 0 -1 0 291338 12
1 2612.16 2166.48 2391.44 0 0 1 247807 14
1 2566.08 2361.74 2714.01 0 0 0 293707 12
1 2737.9 2586.37 2621.47 -1 -1 1 221716 12
1 2634.12 2511.67 2346.09 0 0 0 296814 13
1 2623.21 2753.98 2239.99 0 0 1 208589 15
1 2798.86 2797.24 2491.99 -1 -1 0 298596 15
1 2556.77 2817.6 2324.61 0 -1 1 223070 13
1 2788.7 2625.03 2643.9 0 -1 0 196002 13
1 2411.05 2487.67 2674.02 1 0 0 269467 10
1 2767.46 2691.56 2405.45 0 -1 0 279173 14
1 2372.32 2395.19 2559.24 0 0 0 305483 13
1 2653.43 2529.59 2148.13 0 -1 0 210387 10
1 2246.48 2149.4 2309.78 1 0 0 291095 14
1 2834.07 2588.19 2555.29 0 0 0 274704 14
1 2250.45 2494.73 2604.7 0 -1 0 248661 12
1 2516.21 2479.98 2797.06 0 -1 0 275469 10
1 2634.59 2777.93 2789.48 0 -1 0 204914 12
1 2451.56 2542.26 2441.92 0 0 1 296433 11
1 2695.78 2826.01 2202.59 0 -1 0 231533 14
1 2479.36 2635.39 2363.69 1 0 0 273184 12
1 2676.86 2571.84 2431.67 0 0 0 229864 11
1 2712.49 2839.39 2418.03 0 0 0 228482 11
1 2522.34 2807.82 2210.66 0 0 2 281608 15
1 2196.22 2649.07 2642.07 1 -1 0 222183 11
1 2702.64 2264.05 2717.09 0 0 1 293051 12
1 2170.74 2172.69 2255.68 0 0 1 256892 11
1 2709.93 2621.5 2591.56 0 0 0 205904 12
1 2606.08 2664.29 2389.19 1 -1 2 210433 12
1 2762.84 2512.9 2796.31 0 0 0 226145 13
1 2302.43 2490.36 2609.96 0 0 0 226632 10
1 2569.2 2671.53 2704.47 0 -1 0 304232 15
1 2633.09 2163.53 2301.98 0 0 0 209448 13
1 2713.77 2758.06 2722.55 1 0 0 225140 13
1 2501.33 2291.45 2519.54 0 -1 1 293174 11
1 2662.25 2393.15 2169.84 0 0 1 274271 13
1 2669.76 2419.79 2817.63 -1 0 1 288342 13
1 2184.61 2601.27 2364.68 0 0 0 250491 11
1 2632.11 2696.89 2698.7 -1 0 0 174000 14
1 2383.68 2314.83 2634.9 0 1 0 289164 10
1 2685.25 2149.77 2303.13 0 1 0 224213 11
1 2604.21 2734.06 2290.48 1 0 1 189953 12
1 2525.02 2221.88 2354.06 -1 1 0 284763 13
1 2201.07 2813.24 2493.99 1 0 0 237270 13
1 2767.03 2673.1 2652.15 -1 0 -1 213994 12
1 2583.5 2808.69 2564.41 -1 0 1 274864 10
1 2703.3 2406.45 2768.74 0 1 0 236050 12
1 2229.56 2709.5 2429.92 1 0 0 247768 12
1 2618.62 2417.86 2185.89 -1 0 1 242058 13
1 2670.07 2732.69 2703.13 -1 0 0 174319 12
1 2717.13 2190.33 2203.4 -1 1 1 288027 12
1 2781.45 2684.88 2485.77 0 0 1 219940 11
1 2271.77 2787.5 2503.05 0 0 0 262787 14
1 2299.95 2551.33 2377.8 0 0 0 255199 13
1 2364.68 2152.95 2398.66 0 1 0 294650 11
1 2661.25 2206.87 2316.23 -1 1 1 221835 14
1 2280.44 2591.05 2406.72 0 0 0 247384 12
1 2771.49 2636.33 2504.86 -1 0 0 220838 13
1 2355.97 2541.18 2302.7 0 0 0 296322 13
1 2728.42 2206.55 2784.19 0 0 0 219421 13
1 2407.02 2490.09 2569.28 0 0 0 272542 12
1 2569.19 2385.2 2407.93 0 1 0 298927 11
1 2665.4 2805.89 2164.22 -1 0 1 160143 11
1 2672.66 2804.69 2388.47 0 -1 1 231910 14
1 2770.43 2491.95 2848.53 -1 0 0 267276 10
1 2589.4 2461.32 2197.12 -1 1 1 279765 11
1 2533.47 2653.35 2327.52 0 0 1 253722 11
1 2677.76 2204.25 2801.93 0 1 -1 235855 12
1 2239.73 2672.45 2660.71 -1 0 0 251082 11
1 2326.24 2511.63 2426.94 0 0 0 292329 12
1 2201.24 2489.73 2622.57 0 0 0 260838 11
1 2668.2 2764.33 2303.08 -1 0 1 200175 14
1 2641.75 2533.28 2750.37 0 0 0 211103 9
1 2460.43 2483.17 2573.51 0 0 0 268810 11
1 2351.82 2271.55 2513.53 0 1 0 291474 10
1 2412.9 2541.05 2663.16 0 0 0 250033 12
1 2472.05 2658.26 2668.89 1 0 0 302497 11
1 2166.15 2573.54 2311.96 1 0 0 275206 11
1 2742.02 2310.68 2269.59 0 0 0 275566 13
1 2573 2739.14 2407.86 0 0 1 300470 15
1 2832.79 2597.63 2732.09 0 0 0 235745 12
1 2154.95 2735.78 2659.61 1 0 0 261119 11
1 2751.92 2518.88 2707.65 0 1 0 262135 15
1 2661.38 2507.52 2545.68 0 0 0 267326 12
1 2697.23 2736.94 2490.29 0 0 0 277060 11
1 2684.53 2151.43 2795.96 0 0 2 179721 12
1 2736.03 2806.96 2727.92 0 -1 0 212170 14
1 2639.41 2571.39 2789.41 0 0 0 221562 13
1 2677.67 2810.49 2271.29 0 0 1 208566 13
1 2645.43 2529.06 2438.64 0 0 0 280948 14
1 2597.91 2619.08 2418.13 0 0 1 298233 14
1 2755.04 2738 2176.43 0 -1 1 263547 11
1 2849.48 2159.2 2466.48 0 1 0 254522 12
1 2653.41 2765.42 2740.4 0 -1 0 220446 14
1 2515.59 2741.91 2228.69 0 0 1 234512 12
1 2794.06 2648.76 2309.61 0 1 1 278388 10
1 2172.57 2775.04 2515.13 0 0 0 229326 11
1 2543.87 2549.6 2388.39 0 0 0 279297 12
1 2692.28 2635.27 2686.1 0 -1 0 219218 11
1 2781.42 2702.7 2541.74 0 0 0 188693 11
1 2616.95 2496.44 2648 0 0 0 298489 11
1 2604.69 2554.5 2849.07 -1 0 0 237556 13
1 2223.59 2765.02 2503.53 0 0 -1 189212 9
1 2173.52 2333.46 2244.96 1 1 1 270955 11
1 2718.86 2150.9 2754.12 -1 1 0 194444 14
1 2598.56 2559.98 2730.61 0 -1 0 275624 14
1 2771.04 2572.11 2379.13 -1 0 1 293725 12
1 2519.29 2612.78 2779.67 0 0 0 302890 11
1 2851.33 2532.52 2660.08 -1 0 0 256380 13
1 2296.27 2591.62 2497.33 1 0 0 289132 10
1 2526.87 2506.73 2416.8 1 0 1 296079 12
2 2181.51 2744.8 2397.28 0 -1 0 337625 16
2 2434.27 2287.25 2530.91 0 0 -1 409264 15
2 2240.59 2313.09 2255.05 0 0 0 369169 13
2 2177.66 2352.64 2610.76 0 0 -1 403810 14
2 2244.47 2719.1 2177.38 0 -1 0 427843 15
2 2371.57 2246.57 2251.76 0 0 0 421259 16
2 2792.62 2441.69 2305.82 -1 0 0 436181 14
2 2201.47 2477.16 2368.85 0 0 0 435334 14
2 2153.44 2476.98 2793.46 0 0 -1 400852 15
2 2310.82 2266.54 2304 0 0 0 430009 14
2 2395.42 2591.12 2281.66 0 -1 0 397748 15
2 2675.86 2522.75 2295.47 -1 0 0 398522 16
2 2247.94 2798.02 2745.88 0 -1 -1 434394 15
2 2790.16 2815.81 2591.16 -1 -1 -1 404329 17
2 2343.04 2385.41 2462.55 0 0 0 396831 13
2 2238.13 2401.45 2360.88 0 0 0 443129 14
2 2246.17 2426.51 2596.22 0 0 -1 429822 18
2 2524.21 2280.6 2807.46 0 0 -1 463853 15
2 2301.45 2713.77 2409.88 0 0 0 395952 15
2 2364.26 2277.61 2579.22 0 0 -1 363998 14
2 2357.31 2619.88 2494.74 -1 -1 0 393365 14
2 2543.57 2213.94 2630 0 0 -1 372178 14
2 2664.52 2640.62 2172.97 -1 0 0 310484 17
2 2808.84 2782.03 2156.15 -1 -1 0 384853 16
2 2257.17 2851.8 2824.68 0 -1 -1 441876 17
2 2849.29 2287.87 2289 -1 0 0 352430 15
2 2260.31 2461.24 2311.1 0 0 0 420860 12
2 2212.45 2389.91 2247.76 0 0 0 398320 16
2 2628.42 2305.3 2714.65 -1 0 -1 396756 15
2 2367.66 2735.47 2798.82 0 -1 -1 429084 14
2 2358.42 2219.22 2349.3 0 0 0 453179 15
2 2406.61 2400.6 2813.91 0 0 -1 382669 14
2 2339.67 2475.83 2293.44 0 0 0 422641 15
2 2342.75 2697.68 2479.82 0 -1 0 355042 12
2 2427.55 2149.59 2174.82 0 0 0 383971 15
2 2440.54 2424.88 2541.38 -1 0 0 376745 15
2 2447.1 2598.81 2812.58 0 -1 -1 436346 14
2 2180.15 2593.2 2249.44 0 -1 0 391786 14
2 2584.72 2659.5 2837.29 0 -1 -1 349635 16
2 2304.54 2703.06 2238.3 0 -1 0 437588 15
2 2225.5 2836.46 2381.75 0 -1 0 386852 15
2 2302.72 2352.37 2399.04 0 0 0 430738 14
2 2806.77 2189.03 2572.42 -1 0 -1 440816 15
2 2765.12 2343.8 2789.44 -1 0 -1 406200 16
2 2823.49 2470.33 2377.38 -1 0 0 446599 14
2 2773.76 2265.23 2309.04 -1 0 0 390720 15
2 2548.8 2339.09 2155.44 -1 0 0 437561 14
2 2234.51 2356.56 2551.95 0 0 0 432520 14
2 2464.85 2781.88 2185.15 0 -1 0 351989 16
2 2592.24 2488.86 2424.89 0 0 0 383647 16
2 2757.15 2766.37 2534.26 -1 -1 -1 351361 16
2 2389.89 2220.58 2175.06 0 0 0 379386 13
2 2180 2634.54 2758.47 0 -1 -1 392983 14
2 2409.09 2717.52 2337.29 0 -1 0 400688 16
2 2828.03 2682.17 2436.85 -1 -1 0 375913 18
2 2779.99 2493.09 2210.43 -1 0 0 414974 14
2 2188.25 2663.98 2387.38 0 -1 0 325392 15
2 2501.68 2840.14 2843.96 0 -1 -1 357281 14
2 2220.71 2269.99 2525.12 0 0 0 445899 14
2 2713.82 2786.56 2602.53 -1 -1 -1 339685 15
2 2839.23 2378.84 2279.87 -1 0 0 400103 13
2 2295.86 2302.94 2538.14 0 0 -1 423961 15
2 2771.57 2781.13 2229.94 -1 -1 0 404858 18
2 2174.12 2826.03 2851.82 0 -1 -1 389169 14
2 2274.41 2420.58 2432.62 0 0 0 400902 14
2 2799.75 2634.71 2167.01 -1 -1 0 411764 14
2 2799.68 2323.9 2233.96 -1 0 0 382194 16
2 2405.89 2802.88 2235.88 0 -1 0 377510 14
2 2464.56 2304.23 2754.57 0 0 -1 373564 15
2 2256.53 2328.97 2625.87 0 0 -1 418617 13
2 2547.71 2366.87 2779.93 -1 0 -1 391891 14
2 2419.04 2348.18 2457.58 0 0 0 460364 16
2 2410.93 2431.99 2463.53 0 0 0 447544 16
2 2741.77 2848.57 2651.65 -1 -1 0 348268 17
2 2813.38 2714.8 2204.54 -1 -1 0 392063 14
2 2535.34 2680.26 2195.66 0 -1 0 355603 18
2 2198.08 2663.15 2469.11 0 -1 0 384360 15
2 2305.07 2708.27 2321.1 0 -1 0 397014 14
2 2726.16 2314.29 2522.78 -1 0 -1 423795 15
2 2189.39 2248.09 2733.47 0 0 -1 432823 14
2 2444.91 2323.33 2382.03 0 0 0 426017 14
2 2618.15 2173.24 2798.09 -1 0 -1 335087 14
2 2172.32 2285.31 2457.05 0 0 0 430529 13
2 2156.76 2711.13 2272.97 0 -1 0 396066 16
2 2290.31 2273.86 2380.88 0 0 0 452215 15
2 2450.6 2715.3 2263.87 0 -1 0 408506 17
2 2280.54 2487.08 2385.28 0 0 0 399581 15
2 2390.19 2686.64 2544.89 -1 -1 0 406929 16
2 2152.8 2397.89 2358.66 0 0 0 430271 14
2 2164.39 2482.82 2703.27 0 0 -1 412321 16
2 2231.41 2202.53 2273.06 0 0 0 330048 16
2 2724.34 2694.18 2699.26 0 -1 -1 287182 18
2 2170.62 2596.39 2431.5 1 0 0 368279 14
2 2348.46 2342.43 2823.69 0 0 -1 418391 13
2 2424.88 2202.06 2579.63 0 0 0 443140 15
2 2536.03 2587.14 2712.25 0 0 0 392844 17
2 2449.66 2523.72 2717.75 0 0 -1 336886 15
2 2150.73 2796.06 2453.4 0 -1 -1 297104 16
2 2487.49 2422.85 2770.84 0 0 -1 393998 14
2 2264.53 2406.63 2735.58 0 0 -1 421171 14
2 2642.47 2282.85 2480.36 0 0 0 437489 16
2 2189.79 2770.58 2319.59 0 -1 0 389762 18
2 2260.57 2432.55 2812.78 1 0 -1 455488 16
2 2471.76 2226.08 2776.41 0 0 -1 360067 14
2 2485.11 2295.68 2677.07 0 0 -1 372871 14
2 2171.25 2411.96 2556.58 0 0 -1 426334 15
2 2365.54 2436.75 2680.85 0 0 -1 389029 17
2 2515.93 2246.51 2250.42 0 0 0 405892 15
2 2816.77 2339.49 2658.31 -1 0 -1 379845 14
2 2485.36 2374.34 2194.71 1 0 0 395442 13
2 2531.79 2695.02 2275.5 0 -1 0 305559 17
2 2189.26 2554.07 2741.51 1 -1 -1 418087 16
2 2230.05 2613.64 2694.04 0 -1 -1 376122 16
2 2724.19 2799.47 2320.55 0 -1 0 313947 19
2 2519.6 2811.77 2535.55 0 -1 0 389816 16
2 2465.3 2217.68 2651.17 0 0 0 367050 15
2 2548.57 2725.86 2669.09 0 -1 -1 356194 16
2 2502.05 2388.96 2273.25 0 0 0 433679 15
2 2320.86 2650.5 2810.11 1 -1 -1 423220 13
2 2268.92 2585.02 2802.58 1 -1 -1 472772 16
2 2491.29 2156.11 2598.16 0 0 0 410925 16
2 2230.06 2601.3 2314.97 0 -1 0 383364 17
2 2829.99 2219.68 2439.89 -1 0 -1 389642 14
2 2418.7 2371.19 2738.59 0 0 -1 426247 14
2 2648.58 2290.12 2401.6 0 0 0 359704 14
2 2591.76 2215.74 2244.67 0 0 0 388790 13
2 2183.39 2300.82 2672.36 0 0 -1 395033 14
2 2447.97 2206.23 2231.65 0 0 0 360521 15
2 2521.22 2172.42 2212.47 0 0 0 348470 16
2 2401.11 2552.8 2514.41 0 0 0 419367 16
2 2267.64 2190.99 2423.65 0 0 0 426101 14
2 2787.08 2201.78 2818.6 0 0 -1 328173 14
2 2623.18 2414.71 2384.03 0 0 0 408690 17
2 2754.47 2306.16 2700.89 -1 0 -1 365425 15
2 2390.33 2760.64 2507.97 0 -1 0 417872 15
2 2549.75 2494.44 2151.58 0 -1 0 383174 14
2 2528.8 2416.75 2842.14 0 0 -1 405621 15
2 2791.07 2707.12 2828.51 0 -1 -1 373514 15
2 2244.04 2801.77 2190.64 1 -1 0 391576 13
2 2310.89 2789.62 2827.42 0 -1 -1 419594 15
2 2155.52 2204.82 2149.61 1 0 0 432236 17
2 2642.95 2297.66 2321.67 0 0 0 366706 16
2 2593.17 2736.69 2736.28 0 -1 -1 304536 17
2 2809.75 2698.36 2349.98 0 -1 0 313011 17
2 2470.61 2217.82 2312.93 0 0 0 372814 17
2 2818.06 2644.92 2246.49 0 -1 0 400796 16
2 2846.79 2237.39 2518.27 -1 0 -1 408096 15
2 2600.19 2494.56 2715.89 0 0 -1 353642 14
2 2309.19 2206.21 2166.04 0 0 0 412719 16
2 2584.29 2801.2 2689.13 0 -1 -1 398413 16
2 2645.29 2440.79 2674.37 0 0 -1 382844 14
2 2464.4 2783.17 2472.72 0 -1 0 415760 13
2 2497.87 2366.69 2714.99 0 0 -1 393305 13
2 2323.84 2715.06 2158.89 1 -1 0 422180 13
2 2357.46 2754.87 2280.96 0 0 0 401308 15
2 2623.74 2246.81 2837.91 0 0 -1 414085 16
2 2756.12 2843.26 2176.61 0 -1 0 306858 15
2 2476.04 2355.12 2818.84 0 0 -1 424099 16
2 2520.58 2357.74 2442.99 0 0 0 422057 17
2 2531.86 2440.65 2397.4 0 0 0 387846 15
2 2596.03 2242.5 2759.73 0 0 -1 429784 13
2 2241.31 2460.59 2675.38 0 0 -1 370249 16
2 2291.24 2401.54 2265.98 0 0 0 454132 16
2 2545.18 2795.69 2446.36 0 -1 0 372558 16
2 2361.32 2655.6 2410.69 0 -1 0 384472 16
2 2833.1 2700.83 2757.46 0 -1 -1 376400 15
2 2274.22 2425.1 2189.78 0 0 0 415437 14
2 2540.27 2405.74 2542.92 0 0 0 430203 17
2 2609.07 2807.91 2279.84 0 -1 0 253115 17
2 2359.45 2658.24 2614.93 -1 -1 0 409351 14
2 2529.42 2773.76 2368.86 0 0 0 335641 15
2 2478.98 2291.81 2193.01 0 0 0 420635 16
2 2405.31 2322.74 2253.12 0 0 0 373469 14
2 2328.99 2813.43 2535.36 0 -1 -1 426847 16
2 2260.76 2635.21 2607.46 0 -1 0 334141 17
2 2699.11 2553.38 2370.22 -1 0 0 347771 16
2 2695.49 2750.33 2241.65 -1 0 0 309751 17
2 2540.13 2324.7 2236.99 0 0 0 439695 13
2 2210.91 2823.31 2261.69 0 0 0 350269 14
2 2761.07 2719.66 2604.91 -1 -1 -1 273218 17
2 2179.52 2767.76 2713.95 0 0 -1 416989 15
2 2472.32 2641.55 2294.69 0 0 0 383173 17
2 2203.65 2521.19 2214.06 0 0 0 405405 14
2 2809.75 2505.45 2454.39 -1 0 0 418288 13
2 2833.15 2510.49 2290.01 -1 0 0 474183 16
2 2490.47 2701.35 2349.62 0 0 0 347771 16
2 2495.29 2239.82 2564.78 -1 0 -1 350288 14
2 2291.62 2255.23 2227.08 0 0 0 410404 14
2 2663.22 2463.58 2763.55 -1 0 -1 344615 16
2 2337.29 2438.23 2839.21 0 0 -1 416418 15
2 2230.74 2553.13 2380.75 0 0 0 359654 15
2 2767.79 2233.52 2631.06 -1 0 -1 390559 13
2 2299.5 2211.86 2791.27 0 1 -1 407346 12
2 2483.7 2790.2 2264.46 0 0 0 276783 16
2 2346.77 2523.24 2570.8 0 0 -1 366451 14
2 2712.87 2257.7 2363.85 -1 0 -1 411935 15
2 2846.58 2400.86 2706.84 -1 0 -1 458913 17
2 2215.86 2375.94 2679.24 0 0 -1 426136 13
2 2657.4 2593.9 2727.53 0 0 -1 324688 16
2 2160.61 2850.39 2607.34 0 0 0 406570 12
2 2585.99 2332.47 2370.24 0 0 0 392011 15
2 2741.17 2511 2641.35 -1 0 0 332414 16
2 2492.07 2609.41 2193.55 0 0 0 416706 13
2 2502.16 2546.7 2779.12 0 0 -1 384728 17
2 2577.44 2171.12 2723.79 -1 0 -1 434676 15
2 2511.71 2365.28 2352.22 0 0 0 425201 14
2 2219.58 2219.53 2805.07 0 1 -1 453491 15
2 2558.94 2425.33 2320.39 0 0 0 423744 14
2 2286.57 2476.43 2543.24 0 0 0 360468 13
2 2810.89 2438.06 2158.13 -1 0 0 349751 14
2 2292.81 2397.57 2658.21 0 0 -1 398803 15
2 2313.98 2842.67 2762.32 0 0 -1 429532 12
2 2810.12 2584.35 2482.28 -1 0 0 354157 16
2 2233.01 2658.55 2241.17 0 0 0 427981 15
2 2577.77 2480.27 2261.64 -1 0 0 395718 16
2 2254.91 2851.19 2489.98 0 -1 0 384107 14
2 2351.83 2292.32 2184.92 0 1 0 401824 14
2 2273.38 2341.85 2186.22 0 1 0 449655 17
2 2592.25 2356.65 2292.83 0 0 0 419962 16
2 2180.88 2220.04 2655.89 0 0 -1 461701 15
2 2479.33 2538.32 2154.77 0 0 0 434173 15
2 2477.82 2641.19 2733.62 0 0 -1 411370 16
2 2582.89 2748.32 2531.59 -1 -1 0 360280 15
2 2748.78 2372.78 2297.02 -1 0 0 383201 14
2 2200.59 2712.01 2616.78 0 0 -1 349467 16
2 2228.04 2588.02 2169.98 0 0 0 402058 13
2 2252.73 2274.91 2451.39 0 0 0 451320 15
2 2544.79 2585.57 2838.07 0 0 -1 380661 15
2 2261.59 2575.2 2242.73 0 0 0 452401 15
2 2332.36 2351.35 2599.2 0 0 -1 385629 15
2 2190.87 2851.47 2774.47 0 -1 -1 429214 14
2 2152.82 2605.16 2669.08 0 0 0 319331 17
2 2419.59 2515.39 2306.78 0 0 0 431210 14
2 2683.82 2213.81 2436.38 -1 0 0 376571 16
2 2851.35 2546.16 2369.87 -1 0 0 365410 15
2 2838.36 2272.73 2611.19 -1 0 -1 435134 15
2 2742.78 2628.02 2272.82 -1 0 0 319466 15
2 2228.57 2481.17 2755.19 0 0 -1 450924 15
2 2175.29 2164.09 2322.51 0 0 0 336958 15
2 2731.34 2650.39 2831.79 -1 0 -1 403441 17
2 2431.62 2715.8 2850.04 0 0 -1 387810 13
2 2546.52 2301.2 2731.28 -1 0 0 395591 13
2 2414.24 2723.61 2614.28 0 0 0 438610 17
2 2838.3 2347.69 2420.62 -1 0 -1 429044 13
2 2531.45 2501.88 2570.07 0 0 -1 432420 15
2 2507.43 2320.94 2580.86 0 0 -1 360792 16
2 2725.53 2465.16 2262.91 -1 0 0 397664 14
2 2232.31 2741.6 2255.4 0 0 0 422557 14
2 2599.33 2555.1 2288.86 0 0 0 369999 17
2 2381.37 2653.46 2159.06 0 0 0 443117 15
2 2649.48 2455.49 2232.04 -1 0 0 359079 14
2 2209.63 2299.56 2821.32 0 1 0 422035 14
2 2798.49 2457.39 2666.59 -1 0 -1 391211 17
2 2298.96 2228.45 2501.04 0 1 -1 436699 15
2 2197.75 2343.57 2318.11 0 0 0 423860 14
2 2310.6 2570 2168.53 0 0 0 451871 14
2 2808.31 2194.85 2276.9 -1 0 0 342295 16
2 2230.31 2268.22 2325.94 0 0 0 397560 14
2 2459.75 2399.86 2405.98 0 0 0 425571 12
2 2198.94 2458.22 2157.57 0 0 0 391873 15
2 2204.94 2330.76 2746.17 0 1 -1 443735 15
2 2661.66 2625.13 2389.08 -1 0 0 297083 16
2 2790.56 2332.87 2580.06 -1 0 -1 381019 14
2 2329.53 2303.63 2459.44 0 0 0 395051 14
2 2200.2 2216.67 2384.89 0 0 0 455532 17
2 2359.11 2152.28 2831.36 0 0 0 416351 15
2 2661.03 2582.81 2241.06 -1 0 0 346177 16
2 2338.6 2228.51 2428.29 0 0 0 415516 15
2 2743.93 2439.79 2483.83 -1 0 0 460579 16
2 2647.88 2315.99 2553.17 -1 0 0 413656 15
2 2761.16 2632.9 2438.49 -1 0 0 325170 14
2 2668.54 2481.91 2395.26 0 0 0 380793 15
2 2775.88 2259.22 2553.48 -1 0 0 423521 15
2 2323.43 2286.75 2650.91 0 0 0 407733 17
2 2302.73 2650.19 2676.09 0 -1 0 370096 14
2 2587.06 2739.45 2817.43 0 -1 -1 305604 16
2 2696.85 2252.41 2280.75 -1 0 0 343163 17
2 2386.17 2783.81 2158.17 0 -1 1 428341 15
2 2357.11 2355.21 2684.56 0 0 0 374804 12
2 2288.32 2810.66 2607.81 0 -1 0 402449 15
2 2676.44 2165.79 2368.8 -1 0 0 298388 17
2 2480.62 2288.34 2449.44 0 0 0 410665 14
2 2635.43 2611.9 2475.8 0 0 0 333897 17
2 2697.73 2258.48 2578.59 -1 0 0 383782 14
2 2262.44 2710.44 2488.56 0 -1 0 340736 16
2 2405.6 2291.09 2696.3 0 0 0 370981 16
2 2786.8 2841.73 2443.26 -1 -1 0 310336 17
2 2407.62 2187.08 2439.49 0 0 0 396620 15
2 2321.43 2780.25 2209.9 0 -1 1 391585 15
2 2403.05 2266.89 2458.8 0 0 0 398154 13
2 2813.87 2422.57 2443.84 -1 0 0 432513 14
2 2790.66 2280.82 2402.78 -1 0 0 450809 14
2 2402.13 2736.81 2726.79 0 -1 0 443473 14
2 2621.56 2767.04 2461.95 0 -1 0 401529 17
2 2322.81 2236.43 2716.88 0 0 0 426027 17
2 2466.91 2785.02 2625.68 0 -1 0 410050 14
2 2843.8 2833.73 2527.89 -1 -1 0 344301 14
2 2522.68 2222.93 2422.34 0 0 0 384620 16
2 2303.91 2824.03 2402.97 0 -1 0 385214 17
2 2572.05 2269.51 2574.29 0 0 0 402195 17
2 2710.57 2803.22 2475.83 -1 -1 0 347701 16
2 2445.88 2241.17 2390 0 0 0 427262 16
2 2830.89 2196.8 2748.77 -1 0 0 419722 16
2 2477.89 2355.44 2513.93 0 0 0 384927 14
2 2691.59 2370.89 2671.29 0 0 0 363593 16
2 2392.54 2171.23 2278.86 0 0 0 387367 17
2 2275.85 2201.23 2343.59 0 0 0 410742 17
2 2739.61 2271.65 2214.23 -1 0 0 307420 14
2 2570.67 2290.82 2438.93 0 0 0 417158 14
2 2251.82 2256.72 2679.53 0 0 0 426652 14
2 2192.5 2418.88 2426.7 0 0 0 450223 14
2 2471.89 2844.76 2418.14 -1 -1 0 432825 16
2 2695.76 2576.52 2828.3 0 -1 0 348691 17
2 2461.47 2753.91 2550.42 0 -1 0 403313 15
2 2217.73 2339.39 2411.15 0 0 0 472438 16
2 2155.22 2314.31 2542.06 0 0 0 425279 13
2 2412.61 2275.21 2320.51 0 0 0 424314 15
2 2815.92 2175.91 2669.09 -1 0 0 429057 15
2 2369.67 2292.96 2388.69 0 0 0 429764 13
2 2420.05 2524.43 2794.99 0 -1 0 378188 15
2 2685.04 2572.79 2550.55 0 0 0 326396 18
2 2762.26 2848.17 2520.33 -1 -1 0 331559 13
2 2286.96 2837.96 2684.64 0 0 0 410373 15
2 2819.79 2256.16 2691.86 -1 0 0 428995 14
2 2832.55 2676.44 2634.56 -1 -1 0 287721 16
2 2337.54 2686.5 2739.02 0 -1 0 402395 12
2 2149.46 2154.11 2399.38 0 0 0 331071 14
2 2210.51 2791.84 2637.7 0 -1 0 399537 14
2 2320.4 2410.87 2342.92 0 0 0 439113 14
2 2808.7 2405.87 2606.13 -1 0 0 403637 15
2 2313.5 2188.78 2272.79 0 0 0 380803 16
2 2799.09 2845.6 2338.87 -1 -1 0 333749 15
2 2520.3 2227.47 2710.06 -1 0 0 432959 17
2 2415.18 2802.23 2315.66 0 -1 0 342277 15
2 2691.6 2504.17 2482.17 0 0 0 368357 14
2 2813.71 2376.37 2512.24 -1 0 0 456081 14
2 2447.85 2801.63 2704.24 0 -1 0 455106 16
2 2691.61 2375.96 2484.44 -1 0 0 376254 14
2 2489.89 2835.2 2332.53 0 -1 0 331168 16
2 2151.47 2773.09 2791.73 0 -1 0 425373 14
2 2708.57 2708 2779.18 -1 -1 -1 307807 16
2 2617.07 2638.15 2670.47 -1 -1 0 331855 17
2 2782.06 2411.31 2230.31 -1 -1 0 410984 13
2 2463.23 2219.78 2491.1 -1 0 0 411231 15
2 2843.57 2263.7 2796 -1 0 0 447294 14
2 2691.06 2719.33 2155.44 -1 -1 1 294358 15
2 2202.58 2197.9 2559.22 0 0 0 496087 17
2 2745.63 2395.6 2553.62 -1 0 0 392036 15
2 2323.33 2774.01 2462.66 0 -1 0 380018 14
2 2636.82 2452.15 2312.72 -1 0 0 389099 15
2 2384.68 2717.8 2213.15 0 0 0 436925 15
2 2368.8 2512.31 2155.44 1 0 0 422629 14
2 2408.23 2663.44 2690.85 0 0 0 438374 16
2 2370.21 2672.55 2280.94 0 0 0 400841 14
2 2316.85 2518.19 2794 0 0 -1 445124 16
2 2344.05 2576.88 2425.35 0 0 0 373856 16
2 2172.55 2647.89 2188.63 1 0 0 381442 16
2 2243.8 2573.14 2460.23 0 0 0 373139 16
2 2610.77 2315.68 2793.85 0 0 -1 437326 16
2 2478.66 2438.29 2335.79 0 0 0 418856 13
2 2342.48 2393.78 2758.78 0 1 -1 446546 16
2 2792.99 2479.99 2742.85 0 0 -1 323230 15
2 2168.18 2719.12 2850.6 1 0 -1 391510 15
2 2501.3 2655.62 2829.44 0 0 -1 379243 13
2 2346.55 2765.38 2363.04 0 0 0 413325 16
2 2627.7 2468.26 2844.78 0 0 -1 353682 18
2 2365.08 2456.09 2526.76 0 0 0 384398 14
2 2638.21 2723.23 2394.89 0 0 0 272988 16
2 2421.84 2601.19 2450.72 0 0 0 382383 15
2 2668.83 2633.29 2305.96 0 0 0 279462 16
2 2499.31 2439.36 2609.31 0 0 0 380914 13
2 2410.57 2578.92 2180.4 1 0 0 459499 15
2 2563.37 2281.41 2306.36 0 0 0 400704 15
2 2458.63 2495.82 2505.39 0 0 0 405713 14
2 2157.73 2640.46 2314.97 0 0 0 341821 14
2 2730.58 2595.6 2198.31 0 0 0 407487 15
2 2368.9 2525.52 2730.52 0 0 -1 413013 17
2 2247.48 2189.91 2730.62 0 1 -1 470008 15
2 2381.87 2376.69 2390.29 1 0 0 422742 13
2 2347.54 2457.83 2214.43 1 0 0 439680 13
2 2698.49 2516.96 2203.76 0 0 0 421471 16
2 2283.55 2646.96 2178.79 1 0 0 439156 15
2 2499.73 2492.16 2277.86 0 0 0 421651 13
2 2451.12 2782.88 2808.03 1 0 0 423381 15
2 2840.3 2492.36 2604.36 -1 0 -1 358624 17
2 2437.36 2443.39 2265.86 0 0 0 408842 13
2 2732.59 2849.82 2254.46 0 0 1 313093 14
2 2355.68 2514.61 2364.55 0 0 0 370347 15
2 2345.51 2379.7 2192.23 0 0 0 426141 14
2 2738.45 2627.88 2356.72 0 0 0 347211 16
2 2279.25 2331.54 2704.8 0 1 -1 424318 14
2 2212.05 2376.93 2849.08 0 1 -1 387023 15
2 2400.54 2660.82 2783.97 0 0 0 452234 15
2 2722.31 2353.9 2220.8 0 0 0 333560 15
2 2717.97 2234.44 2846.95 0 0 -1 312458 16
2 2440.64 2623.91 2530.42 0 0 0 408361 14
2 2478.56 2215.51 2155.52 0 1 0 426197 16
2 2323.66 2767.53 2728.92 1 0 -1 414093 15
2 2210.76 2172.66 2199.77 0 0 0 392568 16
2 2458.73 2463.03 2834.6 0 0 -1 385071 16