LAMMPS (23 Jun 2022 - Update 1)
OMP_NUM_THREADS environment is not set. Defaulting to 1 thread. (src/comm.cpp:98)
  using 1 OpenMP thread(s) per MPI task
###

# Read restart info
read_restart ${read_res}
read_restart ./200800/equpmf71.res
Reading restart file ...
  restart file = 23 Jun 2022, LAMMPS = 23 Jun 2022
WARNING: Restart file used different # of processors: 8 vs. 1 (src/read_restart.cpp:654)
  restoring atom style atomic from restart
  orthogonal box = (2134.1279 2134.1279 2134.1279) to (2865.8721 2865.8721 2865.8721)
  1 by 1 by 1 MPI processor grid
  restoring pair style table from restart
  1000 atoms
  read_restart CPU = 0.039 seconds

# Settings
pair_style table/pgn spline 9941
pair_coeff 1 1 N20.txt DE_GNP 147.89 75.6
pair_coeff 2 2 N100.txt DE_GNP 473.9 115.92
WARNING: 3 of 9941 force values in table DE_GNP are inconsistent with -dE/dr.
WARNING:  Should only be flagged at inflection points (src/pair_table_pgn.cpp:478)
pair_coeff 1 2 mixed_potential.txt DE_GNP 391.2 95.66
WARNING: 1562 of 9941 force values in table DE_GNP are inconsistent with -dE/dr.
WARNING:  Should only be flagged at inflection points (src/pair_table_pgn.cpp:478)

# Neighbor list
neighbor 2.0 bin
neigh_modify delay 0 every 1 check yes

# Temperature
variable T equal ${Temp}
variable T equal 300

# Deformation
reset_timestep 0
variable tmp equal "lx"
variable L0 equal ${tmp}
variable L0 equal 731.744158924705
variable strain equal "(lx - v_L0)/v_L0"
variable stp equal "step"
variable tmpe equal "temp"
variable p1 equal "v_strain"
variable p2 equal "-pxx*1.01325/10000"
variable p3 equal "-pyy*1.01325/10000"
variable p4 equal "-pzz*1.01325/10000"
variable p5 equal "lx"
variable p6 equal "ly"
variable p7 equal "lz"
variable p8 equal "press"
variable p9 equal "epair"
variable p10 equal "etotal"

# Thermo
thermo_style custom step temp v_p1 v_p2 v_p3 v_p4 press lx ly lz vol density epair pe ke etotal pxx pyy pzz pxy pxz pyz spcpu
thermo ${ts_save}
thermo 100

# Dump
dump 1 all custom 1000 ./tensile/trajectory/trajectory_${usic}_${trial}_*.tensile.custom id type x y z ix iy iz
dump 1 all custom 1000 ./tensile/trajectory/trajectory_1_${trial}_*.tensile.custom id type x y z ix iy iz
dump 1 all custom 1000 ./tensile/trajectory/trajectory_1_1_*.tensile.custom id type x y z ix iy iz
dump_modify 1 sort id
dump 2 all cfg 1000 ./tensile/trajectory/ovito/dumpten.tens_*.cfg mass type xs ys zs fx fy fz
dump_modify 2 element N20 N100

fix 1 all nvt temp ${T} ${T} 100
fix 1 all nvt temp 300 ${T} 100
fix 1 all nvt temp 300 300 100
fix 2 all deform 1 x erate ${strain_rate} y erate ${strain_rate} z erate ${strain_rate} units box
fix 2 all deform 1 x erate 5e-6 y erate ${strain_rate} z erate ${strain_rate} units box
fix 2 all deform 1 x erate 5e-6 y erate 5e-6 z erate ${strain_rate} units box
fix 2 all deform 1 x erate 5e-6 y erate 5e-6 z erate 5e-6 units box
fix             def1 all print ${ts_save} "${p1} ${p2} ${p3} ${p4}" file tensile${N20}${N100}_${usic}_${trial}.txt screen no
fix             def1 all print 100 "${p1} ${p2} ${p3} ${p4}" file tensile${N20}${N100}_${usic}_${trial}.txt screen no
fix             def1 all print 100 "${p1} ${p2} ${p3} ${p4}" file tensile200${N100}_${usic}_${trial}.txt screen no
fix             def1 all print 100 "${p1} ${p2} ${p3} ${p4}" file tensile200800_${usic}_${trial}.txt screen no
fix             def1 all print 100 "${p1} ${p2} ${p3} ${p4}" file tensile200800_1_${trial}.txt screen no
fix             def1 all print 100 "${p1} ${p2} ${p3} ${p4}" file tensile200800_1_1.txt screen no

timestep       		${ts}
timestep       		1
run				${steps_tensile}
run				250000
Generated 0 of 1 mixed pair_coeff terms from geometric mixing rule
Unused restart file global fix info:
  fix style: npt, fix ID: 5
Neighbor list info ...
  update every 1 steps, delay 0 steps, check yes
  max neighbors/atom: 2000, page size: 100000
  master list distance cutoff = 117.92
  ghost atom cutoff = 117.92
  binsize = 58.96, bins = 13 13 13
  1 neighbor lists, perpetual/occasional/extra = 1 0 0
  (1) pair table/pgn, perpetual
      attributes: half, newton on
      pair build: half/bin/atomonly/newton
      stencil: half/bin/3d
      bin: standard
Per MPI rank memory allocation (min/avg/max) = 5.827 | 5.827 | 5.827 Mbytes
   Step          Temp           v_p1           v_p2           v_p3           v_p4          Press            Lx             Ly             Lz           Volume        Density         E_pair         PotEng         KinEng         TotEng          Pxx            Pyy            Pzz            Pxy            Pxz            Pyz           S/CPU     
         0   305.3598      -4.6609257e-16  0.015657731    0.0076900179   0.0035009673  -88.325408      731.74416      731.74416      731.74416      3.9181205e+08  1.6190011     -48307879      -48307879       909.30935     -48306970      -154.52979     -75.894576     -34.551861      111.16884      3.0997421      10.276287      0            
       100   406.29067      0.0005         0.023328128    0.015611612    0.011431291   -165.70781      732.11003      732.11003      732.11003      3.9240007e+08  1.616575      -48307205      -48307205       1209.8642     -48305995      -230.23072     -154.07464     -112.81807      109.44234      2.0730158      9.7844267      5092.419     
       200   488.75036      0.001          0.030579436    0.023095512    0.018988978   -239.04573      732.4759       732.4759       732.4759       3.9298867e+08  1.6141538     -48249446      -48249446       1455.4151     -48247991      -301.79557     -227.93498     -187.40665      108.129       -0.18609553     9.2151225      5523.2906    
       300   529.88323      0.0015         0.037989125    0.030436661    0.026618274   -312.67065      732.84178      732.84178      732.84178      3.9357785e+08  1.6117374     -48247733      -48247733       1577.9018     -48246155      -374.92351     -300.38649     -262.70194      107.0377       0.4862569      9.1727325      5868.1503    
       400   539.00121      0.002          0.044883957    0.037434604    0.033747939   -381.8291       733.20765      733.20765      733.20765      3.9416763e+08  1.6093258     -48212046      -48212046       1605.0536     -48210441      -442.97021     -369.45082     -333.06626      105.57455      2.2728122      9.6131559      5611.6209    
       500   529.76217      0.0025         0.051497269    0.04437106     0.040651153   -449.11418      733.57352      733.57352      733.57352      3.94758e+08    1.606919      -48153142      -48153142       1577.5413     -48151565      -508.23853     -437.90831     -401.19569      102.87593      3.7265406      8.2428936      5614.703     
       600   512.62127      0.003          0.05840082     0.051446511    0.047772828   -518.53001      733.93939      733.93939      733.93939      3.9534895e+08  1.604517      -48149667      -48149667       1526.4986     -48148141      -576.37128     -507.73759     -471.48116      100.71251      3.3215005      7.7434577      5885.1138    
       700   493.88341      0.0035         0.064847298    0.058450471    0.054921616   -586.29619      734.30526      734.30526      734.30526      3.959405e+08   1.6021199     -48114156      -48114156       1470.7005     -48112686      -639.99307     -576.8613      -542.0342       97.52583       3.5334208      7.7888441      5575.6129    
       800   476.41152      0.004          0.07159359     0.065378443    0.0618913     -654.2095       734.67114      734.67114      734.67114      3.9653263e+08  1.5997274     -48109454      -48109454       1418.6722     -48108036      -706.5738      -645.23507     -610.81964      95.179269      3.5077968      8.1691812      5893.4197    
       900   461.22852      0.0045         0.077904592    0.071898992    0.068394911   -717.81724      735.03701      735.03701      735.03701      3.9712536e+08  1.5973398     -48053095      -48053095       1373.4598     -48051721      -768.85854     -709.58788     -675.00529      93.696099      2.0727598      8.038599       5631.7576    
      1000   448.50312      0.005          0.084277178    0.078023299    0.074508409   -779.04066      735.40288      735.40288      735.40288      3.9771867e+08  1.5949569     -47981275      -47981275       1335.5657     -47979939      -831.75108     -770.03009     -735.34082      92.245932      1.3130123      8.4613207      3317.3229    
      1100   437.7107       0.0055         0.090607573    0.084471105    0.081025566   -842.51746      735.76875      735.76875      735.76875      3.9831258e+08  1.5925787     -47974840      -47974840       1303.4277     -47973537      -894.22722     -833.66498     -799.66016      90.45869       1.3568904      7.6301084      5018.9999    
      1200   428.66222      0.006          0.096633617    0.09066478     0.087291483   -903.33047      736.13462      736.13462      736.13462      3.9890707e+08  1.5902053     -47936434      -47936434       1276.4829     -47935157      -953.69965     -894.79181     -861.49996      88.31745       2.59978        7.7865828      5519.4041    
      1300   421.42794      0.0065         0.10266002     0.096752405    0.093624657   -964.01705      736.5005       736.5005       736.5005       3.9950216e+08  1.5878366     -47904899      -47904899       1254.9404     -47903644      -1013.1756     -954.87199     -924.00352      86.630969      2.294354       8.8560509      5641.7407    
      1400   415.52158      0.007          0.10872488     0.10285484     0.09988425    -1024.6368      736.86637      736.86637      736.86637      4.0009784e+08  1.5854725     -47896819      -47896819       1237.3523     -47895582      -1073.0311     -1015.0984     -985.7809       85.959956      3.2168383      9.3358766      5913.4542    
      1500   410.64454      0.0075         0.11441273     0.10850427     0.10564575    -1080.8874      737.23224      737.23224      737.23224      4.0069411e+08  1.5831132     -47859113      -47859113       1222.8293     -47857890      -1129.1659     -1070.8539     -1042.6425      84.086559      4.0816405      9.1046267      5653.7131    
      1600   406.82856      0.008          0.11991686     0.11416247     0.11135678    -1136.3964      737.59811      737.59811      737.59811      4.0129097e+08  1.5807585     -47849993      -47849993       1211.466      -47848781      -1183.4874     -1126.696      -1099.006       81.140748      4.3611998      8.7061125      5916.9444    
      1700   403.22622      0.0085         0.12523695     0.11950656     0.11679262    -1189.3614      737.96398      737.96398      737.96398      4.0188843e+08  1.5784086     -47787629      -47787629       1200.7388     -47786428      -1235.9926     -1179.438      -1152.6535      76.987939      5.1737279      8.4692404      5649.3655    
      1800   399.85607      0.009          0.13066118     0.12484485     0.12218614    -1242.5106      738.32986      738.32986      738.32986      4.0248648e+08  1.5760632     -47733888      -47733888       1190.7031     -47732698      -1289.5256     -1232.1229     -1205.8835      75.531738      5.8232064      8.2383248      5609.3791    
      1900   397.10955      0.0095         0.136154       0.13037127     0.12767479    -1296.8174      738.69573      738.69573      738.69573      4.0308512e+08  1.5737225     -47723320      -47723320       1182.5244     -47722137      -1343.7355     -1286.6644     -1260.0522      75.2097        5.8526034      7.6240567      5908.7738    
      2000   395.12874      0.01           0.14127299     0.13567462     0.13301948    -1348.6869      739.0616       739.0616       739.0616       4.0368435e+08  1.5713865     -47683036      -47683036       1176.6259     -47681860      -1394.256      -1339.0044     -1312.8002      73.909084      6.205951       7.6780737      1217.5442    
      2100   393.98023      0.0105         0.14642018     0.14081018     0.13823291    -1399.6653      739.42747      739.42747      739.42747      4.0428418e+08  1.5690551     -47656630      -47656630       1173.2059     -47655457      -1445.0548     -1389.6884     -1364.2528      73.002896      6.2040853      8.7134261      2853.5949    
      2200   393.46066      0.011          0.15138918     0.1457725      0.1434522     -1449.507       739.79334      739.79334      739.79334      4.048846e+08   1.5667282     -47644663      -47644663       1171.6587     -47643491      -1494.095      -1438.6627     -1415.7632      71.459955      6.4097373      9.5707053      5895.2743    
      2300   393.22485      0.0115         0.15590649     0.15043786     0.14826447    -1495.5467      740.15922      740.15922      740.15922      4.0548562e+08  1.564406      -47586445      -47586445       1170.9564     -47585274      -1538.6774     -1484.7062     -1463.2565      68.431447      6.8821758      10.085082      5662.9589    
      2400   392.92161      0.012          0.16060887     0.15527242     0.15307286    -1542.7392      740.52509      740.52509      740.52509      4.0608723e+08  1.5620884     -47573630      -47573630       1170.0535     -47572460      -1585.0863     -1532.4196     -1510.7117      66.798672      7.5174832      8.6911342      5939.9347    
      2500   392.30342      0.0125         0.16496209     0.15980364     0.15766144    -1587.062       740.89096      740.89096      740.89096      4.0668943e+08  1.5597753     -47509191      -47509191       1168.2126     -47508023      -1628.0493     -1577.1394     -1555.9974      66.259896      6.9336578      7.2205816      5623.6128    
      2600   391.99991      0.013          0.16941885     0.1641026      0.16236724    -1631.347       741.25683      741.25683      741.25683      4.0729223e+08  1.5574668     -47458506      -47458506       1167.3088     -47457338      -1672.0341     -1619.5667     -1602.4401      64.416048      7.260365       7.5992732      5676.501     
      2700   392.25818      0.0135         0.17398754     0.16874685     0.16712544    -1677.3085      741.62271      741.62271      741.62271      4.0789563e+08  1.5551629     -47444458      -47444458       1168.0779     -47443290      -1717.1236     -1665.4019     -1649.3999      63.108765      7.5101324      9.0420314      5946.9554    
      2800   392.71819      0.014          0.17844103     0.17325796     0.17168541    -1721.8008      741.98858      741.98858      741.98858      4.0849962e+08  1.5528635     -47420597      -47420597       1169.4477     -47419428      -1761.076      -1709.9232     -1694.4033      61.198687      7.4881182      10.579557      5675.4981    
      2900   393.2701       0.0145         0.18260558     0.17745601     0.17590332    -1763.1874      742.35445      742.35445      742.35445      4.0910421e+08  1.5505686     -47405753      -47405753       1171.0912     -47404582      -1802.1769     -1751.3546     -1736.0308      59.662198      7.5210323      10.48748       5947.9381    
      3000   394.28506      0.015          0.18640957     0.18114773     0.17976781    -1800.5596      742.72032      742.72032      742.72032      4.0970939e+08  1.5482782     -47345084      -47345084       1174.1136     -47343910      -1839.7194     -1787.7891     -1774.1704      57.881046      7.5643936      8.6211234      3865.1481    
      3100   395.30086      0.0155         0.19018641     0.18497151     0.18378071    -1838.7651      743.08619      743.08619      743.08619      4.1031517e+08  1.5459924     -47283916      -47283916       1177.1385     -47282739      -1876.9939     -1825.5269     -1813.7746      56.992715      7.028165       7.640386       5666.5089    
      3200   395.95271      0.016          0.19433952     0.18913329     0.18783641    -1879.4612      743.45207      743.45207      743.45207      4.1092155e+08  1.543711      -47268011      -47268011       1179.0796     -47266832      -1917.982      -1866.6004     -1853.8013      55.441345      6.8935817      8.235708       5960.9498    
      3300   396.72023      0.0165         0.19805797     0.19286395     0.19156721    -1916.2402      743.81794      743.81794      743.81794      4.1152852e+08  1.5414342     -47206259      -47206259       1181.3651     -47205077      -1954.6802     -1903.4192     -1890.6213      54.418262      6.9123206      8.792724       5690.049     
      3400   397.98254      0.017          0.20149123     0.19667237     0.19541977    -1952.7375      744.18381      744.18381      744.18381      4.121361e+08   1.5391618     -47173988      -47173988       1185.1241     -47172803      -1988.5639     -1941.0054     -1928.6432      53.885108      8.6120592      8.8054352      5695.741     
      3500   399.26306      0.0175         0.20501325     0.20033467     0.19931616    -1989.1902      744.54968      744.54968      744.54968      4.1274426e+08  1.5368939     -47157054      -47157054       1188.9372     -47155865      -2023.3235     -1977.1495     -1967.0975      52.488456      9.2109942      9.6328472      5965.1012    
      3600   400.79318      0.018          0.20852449     0.20362264     0.20276921    -2022.9175      744.91555      744.91555      744.91555      4.1335303e+08  1.5346304     -47116136      -47116136       1193.4936     -47114942      -2057.9767     -2009.5992     -2001.1765      50.510728      9.1902752      9.3863552      5654.8954    
      3700   402.6693       0.0185         0.21196775     0.20703802     0.20614358    -2056.5815      745.28143      745.28143      745.28143      4.139624e+08   1.5323714     -47098571      -47098571       1199.0804     -47097372      -2091.9591     -2043.3064     -2034.479       48.037656      9.2440035      9.2810346      5972.9082    
      3800   404.52589      0.019          0.21530743     0.21024211     0.20928763    -2088.4519      745.6473       745.6473       745.6473       4.1457236e+08  1.5301168     -47043714      -47043714       1204.609      -47042509      -2124.9191     -2074.9283     -2065.5083      46.770644      9.0903188      7.4813754      5703.5497    
      3900   405.67938      0.0195         0.21872343     0.21362968     0.21272091    -2122.1285      746.01317      746.01317      746.01317      4.1518292e+08  1.5278666     -47010851      -47010851       1208.0439     -47009643      -2158.6324     -2108.361      -2099.3921      45.781588      8.6541477      6.7649018      5709.7717    
      4000   406.34884      0.02           0.22202088     0.21702724     0.21614793    -2155.4274      746.37904      746.37904      746.37904      4.1579409e+08  1.5256209     -46992366      -46992366       1210.0375     -46991156      -2191.1758     -2141.8924     -2133.2142      45.73554       9.4027908      7.3523175      4065.9061    
      4100   407.29883      0.0205         0.22480679     0.21997909     0.21914058    -2184.1482      746.74491      746.74491      746.74491      4.1640585e+08  1.5233795     -46935865      -46935865       1212.8664     -46934652      -2218.6705     -2171.0248     -2162.7494      44.944971      9.0118378      8.7872635      5653.6904    
      4200   408.6609       0.021          0.22771861     0.22296639     0.22221559    -2213.6708      747.11079      747.11079      747.11079      4.1701821e+08  1.5211425     -46916818      -46916818       1216.9224     -46915601      -2247.408      -2200.5072     -2193.0974      43.168152      8.8150928      9.1916811      5981.8637    
      4300   410.06114      0.0215         0.23040966     0.22581498     0.22510795    -2241.4099      747.47666      747.47666      747.47666      4.1763117e+08  1.5189099     -46875346      -46875346       1221.0921     -46874125      -2273.9665     -2228.6205     -2221.6427      42.545186      8.7995263      9.5487827      5586.5569    
      4400   411.70346      0.022          0.23303212     0.22860103     0.2278326     -2268.166       747.84253      747.84253      747.84253      4.1824473e+08  1.5166817     -46833467      -46833467       1225.9826     -46832241      -2299.8482     -2256.1168     -2248.5329      41.329268      8.4303571      8.6944834      5710.6303    
      4500   413.21363      0.0225         0.2357398      0.23137268     0.23069144    -2295.5965      748.2084       748.2084       748.2084       4.188589e+08   1.5144578     -46813633      -46813633       1230.4796     -46812403      -2326.571      -2283.4708     -2276.7475      40.523306      9.1137555      8.3122091      5995.9343    
      4600   414.40486      0.023          0.23823735     0.23389807     0.23328646    -2320.6575      748.57427      748.57427      748.57427      4.1947366e+08  1.5122383     -46762613      -46762613       1234.0269     -46761379      -2351.2198     -2308.3944     -2302.3583      38.74532       7.9987362      7.8066339      5724.5683    
      4700   415.53922      0.0235         0.24071038     0.23633161     0.23600293    -2345.7354      748.94015      748.94015      748.94015      4.2008902e+08  1.5100231     -46725573      -46725573       1237.4048     -46724336      -2375.6267     -2332.4116     -2329.1679      37.759665      7.6390882      7.4919616      5673.7074    
      4800   416.78366      0.024          0.24319609     0.23889681     0.23874206    -2371.3627      749.30602      749.30602      749.30602      4.2070499e+08  1.5078122     -46705025      -46705025       1241.1106     -46703784      -2400.1588     -2357.7283     -2356.201       37.498694      6.9940426      7.7250165      6001.4053    
      4900   417.90834      0.0245         0.2455023      0.24135076     0.24121182    -2395.1473      749.67189      749.67189      749.67189      4.2132156e+08  1.5056057     -46662078      -46662078       1244.4597     -46660834      -2422.9193     -2381.9469     -2380.5756      36.109476      8.3682153      7.8425575      5730.6068    
      5000   418.88753      0.025          0.24781304     0.24382176     0.24348702    -2418.3627      750.03776      750.03776      750.03776      4.2193873e+08  1.5034034     -46641060      -46641060       1247.3755     -46639813      -2445.7245     -2406.3337     -2403.03        33.475702      8.7588731      7.9830056      3902.0876    
      5100   420.00637      0.0255         0.24974008     0.24597775     0.24551354    -2438.4616      750.40363      750.40363      750.40363      4.225565e+08   1.5012055     -46597379      -46597379       1250.7073     -46596129      -2464.743      -2427.6116     -2423.0302      31.705884      8.807055       8.2291726      5714.2449    
      5200   421.14232      0.026          0.25168917     0.24812891     0.24766197    -2459.0182      750.76951      750.76951      750.76951      4.2317488e+08  1.4990118     -46573320      -46573320       1254.0899     -46572066      -2483.979      -2448.842      -2444.2336      30.512338      8.3458516      7.8255535      5688.5368    
      5300   422.00529      0.0265         0.25383679     0.25014748     0.24996964    -2480.3155      751.13538      751.13538      751.13538      4.2379385e+08  1.4968224     -46551668      -46551668       1256.6597     -46550411      -2505.1743     -2468.7637     -2467.0085      29.848894      7.7896934      7.8311325      5558.0588    
      5400   422.68958      0.027          0.25571295     0.25173683     0.25195543    -2498.2489      751.50125      751.50125      751.50125      4.2441344e+08  1.4946373     -46469167      -46469167       1258.6974     -46467908      -2523.6906     -2484.4493     -2486.6068      27.950491      7.7976902      8.2484722      5735.5377    
      5500   423.74564      0.0275         0.2576405      0.25368932     0.25403153    -2517.8431      751.86712      751.86712      751.86712      4.2503362e+08  1.4924564     -46447149      -46447149       1261.8421     -46445887      -2542.714      -2503.7189     -2507.0963      27.233336      7.5601073      8.2749466      6015.7342    
      5600   424.91319      0.028          0.2593555      0.25560913     0.2557635     -2535.4984      752.233        752.233        752.233        4.2565441e+08  1.4902797     -46402466      -46402466       1265.3189     -46401201      -2559.6398     -2522.666      -2524.1895      26.04311       7.3604915      8.1036252      5741.0614    
      5700   425.73674      0.0285         0.26083145     0.25735567     0.25732986    -2551.2525      752.59887      752.59887      752.59887      4.262758e+08   1.4881073     -46329187      -46329187       1267.7713     -46327919      -2574.2063     -2539.9029     -2539.6483      24.200161      6.9544907      8.3805938      5741.6834    
      5800   426.12903      0.029          0.26253825     0.25908361     0.25906743    -2568.2681      752.96474      752.96474      752.96474      4.268978e+08   1.4859391     -46306652      -46306652       1268.9395     -46305383      -2591.051      -2556.9564     -2556.7968      22.55963       6.5196535      8.2876696      5966.2094    
      5900   426.46658      0.0295         0.26396268     0.2605023      0.26051944    -2582.3979      753.33061      753.33061      753.33061      4.275204e+08   1.4837751     -46261780      -46261780       1269.9447     -46260510      -2605.1091     -2570.9578     -2571.1269      21.55097       6.1986145      9.3578557      5743.9508    
      6000   426.99391      0.03           0.26503077     0.26154753     0.26188479    -2593.8419      753.69648      753.69648      753.69648      4.2814361e+08  1.4816153     -46193144      -46193144       1271.515      -46191872      -2615.6504     -2581.2735     -2584.602       19.868245      5.5380753      10.051336      3748.0787    
      6100   427.80455      0.0305         0.26655426     0.26296456     0.26333602    -2608.2896      754.06236      754.06236      754.06236      4.2876742e+08  1.4794597     -46170163      -46170163       1273.9289     -46168889      -2630.6861     -2595.2584     -2598.9244      17.839381      5.2889665      10.708433      6026.462     
      6200   428.4723       0.031          0.26793166     0.26447012     0.26483774    -2622.7141      754.42823      754.42823      754.42823      4.2939184e+08  1.4773083     -46117950      -46117950       1275.9174     -46116674      -2644.2799     -2610.1171     -2613.7453      15.130445      4.5180745      10.736269      5747.5948    
      6300   428.81106      0.0315         0.26920672     0.26612636     0.26637096    -2637.4012      754.7941       754.7941       754.7941       4.3001687e+08  1.4751611     -46094685      -46094685       1276.9261     -46093408      -2656.8638     -2626.4629     -2628.877       13.591258      3.987556       9.9953395      6027.8823    
      6400   429.40933      0.032          0.27022828     0.26700576     0.26762306    -2647.774       755.15997      755.15997      755.15997      4.306425e+08   1.473018      -46025317      -46025317       1278.7076     -46024039      -2666.9457     -2635.142      -2641.2342      13.244259      5.4804291      9.8979074      5715.8548    
      6500   430.12712      0.0325         0.27142959     0.26798562     0.26889886    -2659.1465      755.52584      755.52584      755.52584      4.3126873e+08  1.470879      -45987100      -45987100       1280.8451     -45985819      -2678.8018     -2644.8124     -2653.8254      14.2375        6.8204015      10.236961      5764.6845    
      6600   430.46203      0.033          0.27257076     0.26902037     0.27013377    -2670.3673      755.89172      755.89172      755.89172      4.3189558e+08  1.4687442     -45963455      -45963455       1281.8424     -45962173      -2690.0642     -2655.0246     -2666.013       13.548613      6.7949359      10.163579      6050.2912    
      6700   430.69378      0.0335         0.27329548     0.2700066      0.27093896    -2678.6448      756.25759      756.25759      756.25759      4.3252303e+08  1.4666135     -45895912      -45895912       1282.5325     -45894630      -2697.2167     -2664.758      -2673.9597      11.349069      6.0491368      11.152695      5759.4988    
      6800   431.02778      0.034          0.2741906      0.27102956     0.27197528    -2688.364       756.62346      756.62346      756.62346      4.3315109e+08  1.464487      -45872053      -45872053       1283.5271     -45870769      -2706.0508     -2674.8538     -2684.1874      10.153268      5.2230702      11.566835      6044.9365    
      6900   431.18138      0.0345         0.27491109     0.2718519      0.27286959    -2696.3815      756.98933      756.98933      756.98933      4.3377975e+08  1.4623645     -45816308      -45816308       1283.9845     -45815024      -2713.1615     -2682.9697     -2693.0134      8.8019286      4.305596       10.266381      5719.2242    
      7000   431.46082      0.035          0.27550509     0.27261686     0.27374952    -2703.7469      757.3552       757.3552       757.3552       4.3440903e+08  1.4602462     -45751529      -45751529       1284.8166     -45750244      -2719.0238     -2690.5192     -2701.6977      7.4082038      4.0195291      10.61295       3775.3066    
      7100   431.79634      0.0355         0.27639486     0.27350867     0.27465745    -2712.5947      757.72108      757.72108      757.72108      4.3503891e+08  1.4581319     -45727384      -45727384       1285.8158     -45726098      -2727.8051     -2699.3207     -2710.6582      6.5082623      4.3397666      10.754861      6021.8335    
      7200   432.00413      0.036          0.27698773     0.2742166      0.27539303    -2719.2939      758.08695      758.08695      758.08695      4.356694e+08   1.4560218     -45680696      -45680696       1286.4345     -45679410      -2733.6564     -2706.3074     -2717.9179      6.5982866      5.2462581      11.673858      5758.405     
      7300   432.01689      0.0365         0.27724464     0.2746106      0.2758903     -2723.0711      758.45282      758.45282      758.45282      4.363005e+08   1.4539157     -45605306      -45605306       1286.4725     -45604019      -2736.1919     -2710.1959     -2722.8256      6.7465432      5.1143065      12.631549      5777.4714    
      7400   431.60863      0.037          0.27779967     0.27510719     0.27665888    -2729.0591      758.81869      758.81869      758.81869      4.3693221e+08  1.4518136     -45580923      -45580923       1285.2568     -45579638      -2741.6695     -2715.0969     -2730.4108      6.7742353      3.8913613      11.974803      6053.552     
      7500   430.96465      0.0375         0.27828417     0.27549486     0.27745469    -2734.5463      759.18456      759.18456      759.18456      4.3756453e+08  1.4497156     -45538095      -45538095       1283.3391     -45536812      -2746.4512     -2718.9229     -2738.2649      6.1438751      2.0984147      9.8625384      5729.3122    
      7600   430.30742      0.038          0.27874726     0.2760752      0.2781236     -2740.1795      759.55044      759.55044      759.55044      4.3819746e+08  1.4476217     -45513559      -45513559       1281.382      -45512278      -2751.0215     -2724.6504     -2744.8665      4.6685052      1.3636681      7.9201111      5911.3443    
      7700   430.16602      0.0385         0.2787731      0.27639606     0.27838286    -2742.173       759.91631      759.91631      759.91631      4.38831e+08    1.4455317     -45444992      -45444992       1280.9609     -45443711      -2751.2766     -2727.8171     -2747.4253      2.6052373      1.3588032      7.1496588      5778.5217    
      7800   430.66524      0.039          0.27886979     0.27670436     0.27852668    -2743.9784      760.28218      760.28218      760.28218      4.3946515e+08  1.4434458     -45381857      -45381857       1282.4475     -45380574      -2752.2308     -2730.8597     -2748.8446      2.5151876      1.6717472      9.1098962      5794.1711    
      7900   430.72006      0.0395         0.27930196     0.27696988     0.27894214    -2747.6404      760.64805      760.64805      760.64805      4.400999e+08   1.4413639     -45357181      -45357181       1282.6108     -45355899      -2756.496      -2733.4802     -2752.9449      2.9219087      0.96142301     9.3358524      6082.401     
      8000   430.48811      0.04           0.27927538     0.2769575      0.27923312    -2748.4695      761.01393      761.01393      761.01393      4.4073527e+08  1.4392861     -45296094      -45296094       1281.9201     -45294812      -2756.2337     -2733.358      -2755.8166      3.6009886      1.0934371      8.7722595      3867.4305    
      8100   430.14843      0.0405         0.27930355     0.27697561     0.27961016    -2749.8621      761.3798       761.3798       761.3798       4.4137126e+08  1.4372122     -45271341      -45271341       1280.9086     -45270060      -2756.5118     -2733.5367     -2759.5377      2.694188       1.0057376      8.2149585      6018.6607    
      8200   429.64346      0.041          0.2790272      0.27684597     0.27971215    -2748.862       761.74567      761.74567      761.74567      4.4200785e+08  1.4351422     -45220096      -45220096       1279.4049     -45218816      -2753.7844     -2732.2573     -2760.5443      1.6531623      1.3507767      8.7901059      5786.1828    
      8300   429.11048      0.0415         0.2788163      0.276507       0.27956707    -2746.5758      762.11154      762.11154      762.11154      4.4264505e+08  1.4330763     -45142062      -45142062       1277.8177     -45140784      -2751.7029     -2728.9119     -2759.1124      0.37838729     1.0665523      10.023493      5793.442     
      8400   428.31466      0.042          0.2788257      0.27659704     0.27954439    -2746.8283      762.47741      762.47741      762.47741      4.4328287e+08  1.4310143     -45117250      -45117250       1275.4479     -45115974      -2751.7957     -2729.8005     -2758.8886     -0.20722333     0.58332379     9.0010175      6090.8985    
      8500   427.58232      0.0425         0.27867767     0.27616276     0.27900407    -2743.1352      762.84329      762.84329      762.84329      4.439213e+08   1.4289563     -45010290      -45010290       1273.2671     -45009017      -2750.3348     -2725.5146     -2753.5561     -1.4462854     -0.77005448     8.1643128      5807.7402    
      8600   427.32406      0.043          0.27827126     0.27583014     0.27883215    -2740.1383      763.20916      763.20916      763.20916      4.4456034e+08  1.4269022     -44941686      -44941686       1272.4981     -44940413      -2746.3238     -2722.2318     -2751.8594     -1.9039387     -0.71215832     7.6358568      5759.0208    
      8700   427.21912      0.0435         0.27809352     0.27560711     0.27889522    -2739.0274      763.57503      763.57503      763.57503      4.452e+08      1.4248521     -44916877      -44916877       1272.1856     -44915605      -2744.5696     -2720.0307     -2752.4818     -1.8911956     -0.55796873     7.1103378      6096.7885    
      8800   426.59765      0.044          0.27759943     0.27518005     0.27833087    -2734.1405      763.9409       763.9409       763.9409       4.4584027e+08  1.4228058     -44826595      -44826595       1270.335      -44825325      -2739.6934     -2715.8159     -2746.9121     -1.9609805      0.31530651     6.9947291      5829.4857    
      8900   425.93673      0.0445         0.2773102      0.27496172     0.27795579    -2731.2368      764.30677      764.30677      764.30677      4.4648115e+08  1.4207635     -44801800      -44801800       1268.3668     -44800532      -2736.8389     -2713.6612     -2743.2104     -2.8126762     -0.08328244     6.759087       6111.5023    
      9000   425.55372      0.045          0.27657832     0.27445643     0.27746425    -2725.5498      764.67265      764.67265      764.67265      4.4712264e+08  1.4187251     -44729272      -44729272       1267.2263     -44728005      -2729.6158     -2708.6744     -2738.3592     -4.7911172     -0.39518822     7.575386       3314.6225    
      9100   425.06747      0.0455         0.27559586     0.27371281     0.27695514    -2718.1966      765.03852      765.03852      765.03852      4.4776475e+08  1.4166906     -44627953      -44627953       1265.7783     -44626687      -2719.9196     -2701.3354     -2733.3348     -4.618512      -0.14879019     7.9444081      5296.6525    
      9200   424.14338      0.046          0.27508149     0.27322955     0.27666922    -2713.974       765.40439      765.40439      765.40439      4.4840748e+08  1.41466       -44603234      -44603234       1263.0265     -44601971      -2714.8432     -2696.566      -2730.5129     -5.19307       -0.0200145      7.3649301      6125.5825    
      9300   423.13049      0.0465         0.27424811     0.27259322     0.27594464    -2706.7554      765.77026      765.77026      765.77026      4.4905082e+08  1.4126333     -44534749      -44534749       1260.0103     -44533489      -2706.6184     -2690.2859     -2723.3618     -5.6798852     -1.4331118      7.415309       5856.926     
      9400   422.30663      0.047          0.27357462     0.27198228     0.27532591    -2700.4945      766.13613      766.13613      766.13613      4.4969477e+08  1.4106104     -44510089      -44510089       1257.557      -44508832      -2699.9716     -2684.2564     -2717.2555     -5.8097872     -2.0820793      6.8342558      6138.5986    
      9500   421.44477      0.0475         0.27271804     0.27112558     0.27455416    -2692.3194      766.50201      766.50201      766.50201      4.5033934e+08  1.4085914     -44434425      -44434425       1254.9905     -44433170      -2691.5178     -2675.8015     -2709.6389     -4.4668731     -2.5990872      5.9457777      5855.7225    
      9600   418.81325      0.048          0.27214277     0.27036199     0.27356786    -2684.6702      766.86788      766.86788      766.86788      4.5098453e+08  1.4065763     -44392473      -44392473       1247.1543     -44391226      -2685.8403     -2668.2654     -2699.9049     -5.3862385     -3.3900938      7.4027339      5826.307     
      9700   416.26556      0.0485         0.27150308     0.26977022     0.2727959     -2678.0794      767.23375      767.23375      767.23375      4.5163033e+08  1.404565      -44367947      -44367947       1239.5677     -44366708      -2679.527      -2662.4251     -2692.2862     -6.6461812     -3.0296939      7.6414642      6053.6752    
      9800   416.40324      0.049          0.27036032     0.26895577     0.2718754     -2668.6125      767.59962      767.59962      767.59962      4.5227674e+08  1.4025575     -44312250      -44312250       1239.9777     -44311010      -2668.2489     -2654.387      -2683.2016     -9.0206939     -2.8985226      6.3948595      5826.6699    
      9900   416.55545      0.0495         0.26911374     0.26804707     0.27103848    -2658.7689      767.96549      767.96549      767.96549      4.5292378e+08  1.4005538     -44263829      -44263829       1240.431      -44262589      -2655.9461     -2645.4189     -2674.9418     -10.302749     -3.908826       5.3098232      5839.4614    
     10000   416.17034      0.05           0.2681493      0.26723131     0.27023097    -2650.256       768.33137      768.33137      768.33137      4.5357143e+08  1.398554      -44239465      -44239465       1239.2842     -44238226      -2646.4278     -2637.368      -2666.9723     -11.686081     -4.3148554      4.3317503      3742.881     
     10100   415.38228      0.0505         0.2670895      0.2662307      0.26915792    -2639.9478      768.69724      768.69724      768.69724      4.542197e+08   1.396558      -44174416      -44174416       1236.9375     -44173179      -2635.9684     -2627.4928     -2656.3821     -11.879512     -4.0036827      4.1784425      5352.0868    
     10200   414.59379      0.051          0.26628015     0.26532481     0.26829271    -2631.4587      769.06311      769.06311      769.06311      4.5486858e+08  1.3945657     -44150191      -44150191       1234.5895     -44148956      -2627.9808     -2618.5523     -2647.8431     -11.05907      -3.9960545      5.4132991      6091.9074    
     10300   413.86927      0.0515         0.26531436     0.26436713     0.26722248    -2621.6102      769.42898      769.42898      769.42898      4.5551809e+08  1.3925773     -44104212      -44104212       1232.432      -44102979      -2618.4491     -2609.1007     -2637.2808     -11.590049     -3.5052229      6.6015579      5879.6448    
     10400   412.8734       0.052          0.26403965     0.26325102     0.26588289    -2609.3381      769.79486      769.79486      769.79486      4.5616821e+08  1.3905926     -44026889      -44026889       1229.4665     -44025659      -2605.8687     -2598.0855     -2624.0601     -13.81111      -3.0239719      6.6129655      5879.6746    
     10500   411.50973      0.0525         0.26290284     0.26221673     0.26469786    -2598.2973      770.16073      770.16073      770.16073      4.5681895e+08  1.3886117     -44002891      -44002891       1225.4057     -44001665      -2594.6493     -2587.8779     -2612.3648     -14.653163     -2.8725355      5.6410855      6159.3255    
     10600   410.37519      0.053          0.2615871      0.26090429     0.26341697    -2585.4375      770.5266       770.5266       770.5266       4.574703e+08   1.3866346     -43949544      -43949544       1222.0273     -43948322      -2581.6639     -2574.9252     -2599.7234     -15.27787      -2.1595519      3.9691044      5889.6988    
     10700   409.28854      0.0535         0.26032364     0.25977196     0.26236116    -2574.0826      770.89247      770.89247      770.89247      4.5812228e+08  1.3846612     -43925710      -43925710       1218.7914     -43924492      -2569.1946     -2563.7499     -2589.3034     -15.012065     -2.463936       3.302654       6159.5873    
     10800   408.13147      0.054          0.25887445     0.25845192     0.26124355    -2561.2959      771.25834      771.25834      771.25834      4.5877488e+08  1.3826915     -43863765      -43863765       1215.3458     -43862550      -2554.8921     -2550.7222     -2578.2734     -15.137536     -2.7581818      3.2640393      5851.6654    
     10900   407.0839       0.0545         0.25742017     0.25704899     0.26000278    -2547.8146      771.62422      771.62422      771.62422      4.5942809e+08  1.3807256     -43781925      -43781925       1212.2263     -43780713      -2540.5396     -2536.8763     -2566.028      -15.099258     -0.58437848     5.2552312      5903.0661    
     11000   406.06456      0.055          0.25622897     0.25595283     0.25873007    -2536.1029      771.99009      771.99009      771.99009      4.6008193e+08  1.3787634     -43758388      -43758388       1209.1909     -43757179      -2528.7833     -2526.058      -2553.4673     -16.559838     -0.89200222     5.9071718      3902.4815    
     11100   405.25204      0.0555         0.25471067     0.25449716     0.25689666    -2520.2878      772.35596      772.35596      772.35596      4.6073638e+08  1.376805      -43667665      -43667665       1206.7714     -43666458      -2513.7989     -2511.6916     -2535.3729     -17.419638     -3.5012598      4.8112465      5871.0436    
     11200   404.20918      0.056          0.25322091     0.25306437     0.25515127    -2504.9315      772.72183      772.72183      772.72183      4.6139146e+08  1.3748502     -43613071      -43613071       1203.6659     -43611868      -2499.096      -2497.5511     -2518.1473     -16.736339     -3.6273374      3.3422656      5910.7496    
     11300   402.89624      0.0565         0.25181766     0.25159145     0.25370204    -2490.702       773.0877       773.0877       773.0877       4.6204715e+08  1.3728991     -43589865      -43589865       1199.7562     -43588665      -2485.2471     -2483.0145     -2503.8445     -16.488709     -2.9525112      2.5565623      6194.0495    
     11400   401.7047       0.057          0.2501445      0.24991132     0.25226404    -2474.9399      773.45358      773.45358      773.45358      4.6270347e+08  1.3709518     -43518707      -43518707       1196.208      -43517511      -2468.7343     -2466.433      -2489.6525     -16.910667     -3.1363012      2.9113913      5855.8977    
     11500   400.31335      0.0575         0.24874781     0.24864972     0.25102622    -2462.1227      773.81945      773.81945      773.81945      4.6336041e+08  1.3690081     -43495732      -43495732       1192.0648     -43494540      -2454.95       -2453.982      -2477.4362     -16.814808     -3.5854784      3.1452342      6185.7345    
     11600   398.72686      0.058          0.24693661     0.24728968     0.24931407    -2446.0576      774.18532      774.18532      774.18532      4.6401797e+08  1.367068      -43412014      -43412014       1187.3405     -43410826      -2437.0749     -2440.5594     -2460.5386     -16.763833     -2.2197211      3.1853755      5921.8187    
     11700   397.67501      0.0585         0.24521094     0.24584119     0.24750719    -2429.6713      774.55119      774.55119      774.55119      4.6467615e+08  1.3651317     -43343642      -43343642       1184.2083     -43342458      -2420.0439     -2426.264      -2442.706      -17.983706     -2.9152141      2.4487445      5925.9207    
     11800   396.72909      0.059          0.24376221     0.24427997     0.24598009    -2414.7455      774.91706      774.91706      774.91706      4.6533495e+08  1.363199      -43321040      -43321040       1181.3915     -43319859      -2405.7459     -2410.8559     -2427.6347     -19.138697     -3.023724       2.4761519      6209.8452    
     11900   395.39872      0.0595         0.24209069     0.24256363     0.24438572    -2398.3552      775.28294      775.28294      775.28294      4.6599438e+08  1.3612699     -43276110      -43276110       1177.4299     -43274933      -2389.2493     -2393.9169     -2411.8996     -19.800111     -2.4668818      3.1809781      5920.8436    
     12000   394.25171      0.06           0.24040493     0.24100199     0.24285235    -2382.6278      775.64881      775.64881      775.64881      4.6665443e+08  1.3593445     -43253755      -43253755       1174.0143     -43252581      -2372.6122     -2378.5047     -2396.7664     -19.483685     -1.5303414      3.1822441      4001.2604    
     12100   393.20732      0.0605         0.23851088     0.2393076      0.24101113    -2364.7655      776.01468      776.01468      776.01468      4.673151e+08   1.3574227     -43171372      -43171372       1170.9042     -43170201      -2353.9194     -2361.7823     -2378.5949     -19.092314     -3.4845301      3.2449306      5901.7304    
     12200   392.17008      0.061          0.23697591     0.23752661     0.23910876    -2347.5986      776.38055      776.38055      776.38055      4.6797639e+08  1.3555046     -43096536      -43096536       1167.8155     -43095368      -2338.7704     -2344.2054     -2359.82       -17.949594     -4.6241804      3.2098374      5945.5563    
     12300   390.94546      0.0615         0.23547071     0.23615011     0.23746891    -2332.7238      776.74642      776.74642      776.74642      4.6863831e+08  1.35359       -43074590      -43074590       1164.1688     -43073426      -2323.9152     -2330.6204     -2343.636      -17.670155     -5.2334574      2.5497639      6231.7181    
     12400   389.5729       0.062          0.23376025     0.23456993     0.23576041    -2316.278       777.1123       777.1123       777.1123       4.6930085e+08  1.3516791     -43030951      -43030951       1160.0816     -43029791      -2307.0343     -2315.0252     -2326.7744     -18.182492     -5.6504244      2.4034938      5952.966     
     12500   388.46411      0.0625         0.23199598     0.23288099     0.23379447    -2298.4503      777.47817      777.47817      777.47817      4.6996402e+08  1.3497717     -42968878      -42968878       1156.7798     -42967722      -2289.6223     -2298.3567     -2307.372      -18.305527     -6.3680371      3.3777548      5900.7741    
     12600   387.64019      0.063          0.23042708     0.23131819     0.2322335     -2283.0126      777.84404      777.84404      777.84404      4.7062781e+08  1.3478679     -42947337      -42947337       1154.3263     -42946182      -2274.1384     -2282.9331     -2291.9665     -18.621693     -6.4610057      4.5855041      6244.6479    
     12700   386.88842      0.0635         0.22862961     0.22976459     0.23069509    -2266.9275      778.20991      778.20991      778.20991      4.7129223e+08  1.3459677     -42891800      -42891800       1152.0876     -42890648      -2256.3988     -2267.6002     -2276.7835     -18.399048     -5.9765334      4.1663033      5964.1075    
     12800   385.66822      0.064          0.22695763     0.22828696     0.22936845    -2252.2018      778.57579      778.57579      778.57579      4.7195727e+08  1.3440711     -42870513      -42870513       1148.4541     -42869365      -2239.8977     -2253.0172     -2263.6906     -18.835195     -5.7150409      3.3033162      6248.3637    
     12900   384.0248       0.0645         0.22527647     0.22651033     0.22752334    -2234.7566      778.94166      778.94166      778.94166      4.7262293e+08  1.3421781     -42812852      -42812852       1143.5603     -42811709      -2223.3059     -2235.4831     -2245.4808     -18.573852     -5.7518524      2.5936534      5968.4998    
     13000   382.46827      0.065          0.22356971     0.22475241     0.2257191     -2217.4232      779.30753      779.30753      779.30753      4.7328922e+08  1.3402886     -42782574      -42782574       1138.9252     -42781435      -2206.4615     -2218.1338     -2227.6743     -18.119831     -5.7548932      2.1526102      3945.528     
     13100   381.13255      0.0655         0.221967       0.2231698      0.22398905    -2201.2529      779.6734       779.6734       779.6734       4.7395614e+08  1.3384026     -42761691      -42761691       1134.9476     -42760556      -2190.644      -2202.5147     -2210.6001     -18.480429     -4.8170728      1.8775302      6166.5915    
     13200   379.95752      0.066          0.22014669     0.22157524     0.22236909    -2184.6896      780.03927      780.03927      780.03927      4.7462369e+08  1.3365202     -42704571      -42704571       1131.4486     -42703439      -2172.6789     -2186.7776     -2194.6123     -18.877903     -4.8513274      1.6753851      5947.1549    
     13300   379.04825      0.0665         0.21831967     0.21993494     0.2205836     -2167.4092      780.40515      780.40515      780.40515      4.7529186e+08  1.3346413     -42641504      -42641504       1128.741      -42640375      -2154.6476     -2170.5891     -2176.9909     -18.732729     -6.3901121      2.36924        5972.0692    
     13400   378.21905      0.067          0.21664157     0.2184796      0.21895925    -2151.7573      780.77102      780.77102      780.77102      4.7596065e+08  1.3327659     -42621042      -42621042       1126.2717     -42619916      -2138.0861     -2156.226      -2160.9598     -17.952266     -6.5753193      2.3658434      6263.3829    
     13500   377.12293      0.0675         0.2147643      0.21684418     0.21735655    -2134.929       781.13689      781.13689      781.13689      4.7663008e+08  1.3308941     -42562367      -42562367       1123.0077     -42561244      -2119.5588     -2140.0857     -2145.1424     -18.26811      -5.3292987      1.3025886      5974.9967    
     13600   375.70898      0.068          0.2132831      0.21527699     0.21587731    -2120.0342      781.50276      781.50276      781.50276      4.7730013e+08  1.3290257     -42542171      -42542171       1118.7972     -42541053      -2104.9405     -2124.6187     -2130.5434     -18.802504     -5.6848062      1.3734427      6257.2189    
     13700   374.42956      0.0685         0.21150119     0.21351149     0.21417121    -2102.7515      781.86863      781.86863      781.86863      4.7797081e+08  1.3271608     -42483757      -42483757       1114.9873     -42482642      -2087.3544     -2107.1946     -2113.7055     -18.866537     -6.5194398      1.8959627      5934.3099    
     13800   373.49303      0.069          0.20964895     0.21174734     0.21236209    -2084.903       782.23451      782.23451      782.23451      4.7864211e+08  1.3252995     -42426977      -42426977       1112.1985     -42425865      -2069.0743     -2089.7838     -2095.8508     -18.829622     -6.1706922      2.9679869      5968.1885    
     13900   372.39395      0.0695         0.20806534     0.21027737     0.21070457    -2069.4047      782.60038      782.60038      782.60038      4.7931405e+08  1.3234416     -42407191      -42407191       1108.9256     -42406082      -2053.4453     -2075.2763     -2079.4924     -19.283036     -5.7277953      3.3996904      6263.5724    
     14000   370.85495      0.07           0.20655802     0.20875165     0.20898253    -2053.7617      782.96625      782.96625      782.96625      4.7998661e+08  1.3215871     -42363875      -42363875       1104.3427     -42362771      -2038.5692     -2060.2186     -2062.4972     -19.745421     -6.5299806      2.342465       3922.4545    
     14100   369.61377      0.0705         0.20506406     0.2073475      0.20743905    -2039.1499      783.33212      783.33212      783.33212      4.8065981e+08  1.3197362     -42344347      -42344347       1100.6467     -42343246      -2023.8249     -2046.3607     -2047.2642     -19.587633     -6.9145226      1.8408671      6245.9039    
     14200   368.91811      0.071          0.20342478     0.20578388     0.20571951    -2022.9564      783.69799      783.69799      783.69799      4.8133363e+08  1.3178887     -42274044      -42274044       1098.5751     -42272945      -2007.6465     -2030.929      -2030.2937     -19.576913     -7.329802       2.0882483      5920.9635    
     14300   368.2836       0.0715         0.20187384     0.20433188     0.20422202    -2008.1511      784.06387      784.06387      784.06387      4.8200808e+08  1.3160446     -42232668      -42232668       1096.6857     -42231571      -1992.3399     -2016.5989     -2015.5146     -19.076991     -6.8140142      2.8262681      5989.9041    
     14400   367.33027      0.072          0.20048706     0.20288748     0.20288231    -1994.43        784.42974      784.42974      784.42974      4.8268316e+08  1.314204      -42213522      -42213522       1093.8468     -42212428      -1978.6535     -2002.3437     -2002.2928     -19.60933      -6.5267177      2.6854702      6282.0861    
     14500   366.01534      0.0725         0.19903682     0.2013616      0.20136211    -1979.6382      784.79561      784.79561      784.79561      4.8335887e+08  1.3123668     -42174135      -42174135       1089.9312     -42173045      -1964.3407     -1987.2845     -1987.2895     -20.201186     -6.8413706      2.5694583      6006.3245    
     14600   364.64743      0.073          0.19741664     0.19977116     0.19955815    -1963.1415      785.16148      785.16148      785.16148      4.8403522e+08  1.310533      -42089464      -42089464       1085.8578     -42088378      -1948.3507     -1971.588      -1969.4858     -19.650814     -6.6702615      1.6450204      6013.573     
     14700   363.2823       0.0735         0.19609772     0.19836698     0.19797104    -1948.962       785.52735      785.52735      785.52735      4.8471219e+08  1.3087027     -42070682      -42070682       1081.7927     -42069600      -1935.334      -1957.7299     -1953.8222     -18.760535     -6.6218274      1.7816145      6301.5895    
     14800   362.32317      0.074          0.19441044     0.19680924     0.19624731    -1932.6161      785.89323      785.89323      785.89323      4.8538979e+08  1.3068757     -42008230      -42008230       1078.9365     -42007151      -1918.6818     -1942.3562     -1936.8104     -18.279145     -5.7167169      2.2854172      6008.1661    
     14900   361.79958      0.0745         0.19295709     0.19546962     0.19487406    -1918.9104      786.2591       786.2591       786.2591       4.8606802e+08  1.3050522     -41989701      -41989701       1077.3774     -41988624      -1904.3384     -1929.1352     -1923.2575     -18.233781     -4.8024932      2.3123008      6251.1311    
     15000   360.89535      0.075          0.19161578     0.19423725     0.193526      -1906.0088      786.62497      786.62497      786.62497      4.8674689e+08  1.303232      -41949474      -41949474       1074.6847     -41948399      -1891.1008     -1916.9726     -1909.9531     -18.329407     -4.3182348      2.9010234      3933.1091    
     15100   359.62602      0.0755         0.1902858      0.19276254     0.19210836    -1892.1184      786.99084      786.99084      786.99084      4.8742639e+08  1.3014152     -41865718      -41865718       1070.9049     -41864647      -1877.9749     -1902.4183     -1895.9621     -18.971215     -4.8821117      4.8202403      5825.4642    
     15200   358.5158       0.076          0.18914116     0.19153657     0.19096779    -1880.5675      787.35672      787.35672      787.35672      4.8810652e+08  1.2996018     -41847543      -41847543       1067.5988     -41846475      -1866.6781     -1890.319      -1884.7055     -18.369674     -5.4902596      5.0580152      6299.9083    
     15300   357.83906      0.0765         0.18777029     0.19001209     0.18960512    -1866.5598      787.72259      787.72259      787.72259      4.8878728e+08  1.2977918     -41793093      -41793093       1065.5836     -41792027      -1853.1487     -1875.2735     -1871.2571     -16.921312     -4.7909242      5.1159746      6025.5596    
     15400   357.11723      0.077          0.18643564     0.18870644     0.18830379    -1853.5928      788.08846      788.08846      788.08846      4.8946868e+08  1.2959851     -41775108      -41775108       1063.4341     -41774044      -1839.9767     -1862.3878     -1858.4139     -16.229631     -4.2023592      4.4590359      6260.1446    
     15500   355.98253      0.0775         0.18510938     0.18747564     0.18668677    -1839.8611      788.45433      788.45433      788.45433      4.901507e+08   1.2941818     -41713592      -41713592       1060.0552     -41712532      -1826.8876     -1850.2407     -1842.4551     -16.693191     -3.2785296      3.418158       6016.7987    
     15600   354.60685      0.078          0.18401846     0.18642517     0.18522218    -1827.9984      788.8202       788.8202       788.8202       4.9083336e+08  1.2923819     -41674005      -41674005       1055.9587     -41672949      -1816.121      -1839.8734     -1828.0008     -17.052893     -4.0825615      3.1301627      6026.0817    
     15700   353.40113      0.0785         0.18302663     0.18533696     0.18400195    -1817.1413      789.18608      789.18608      789.18608      4.9151666e+08  1.2905852     -41656338      -41656338       1052.3682     -41655286      -1806.3324     -1829.1335     -1815.958      -16.965493     -5.034561       3.344049       6323.7511    
     15800   352.39656      0.079          0.18187561     0.18399472     0.18286804    -1805.2089      789.55195      789.55195      789.55195      4.9220059e+08  1.2887919     -41616265      -41616265       1049.3768     -41615216      -1794.9727     -1815.8867     -1804.7672     -17.569749     -4.8510103      4.1596641      6030.4349    
     15900   351.39409      0.0795         0.18063253     0.18243932     0.18168347    -1792.1057      789.91782      789.91782      789.91782      4.9288515e+08  1.2870019     -41538422      -41538422       1046.3916     -41537376      -1782.7044     -1800.5361     -1793.0764     -16.82573      -4.2045739      4.3845473      6030.4192    
     16000   350.21131      0.08           0.17954945     0.18124694     0.18065593    -1781.2396      790.28369      790.28369      790.28369      4.9357035e+08  1.2852152     -41521046      -41521046       1042.8695     -41520003      -1772.0153     -1788.7683     -1782.9354     -16.856825     -3.8136928      3.8224963      4116.0436    
     16100   349.29608      0.0805         0.17842549     0.18001019     0.17935095    -1769.1805      790.64956      790.64956      790.64956      4.9425618e+08  1.2834319     -41487082      -41487082       1040.1441     -41486042      -1760.9227     -1776.5625     -1770.0563     -16.070482     -3.6635544      3.7037918      6009.1842    
     16200   348.57282      0.081          0.17743058     0.17902175     0.1782117     -1758.9079      791.01544      791.01544      791.01544      4.9494265e+08  1.2816518     -41469893      -41469893       1037.9903     -41468855      -1751.1037     -1766.8073     -1758.8128     -15.024886     -4.1395656      3.8616354      6326.2051    
     16300   347.53686      0.0815         0.17655578     0.17816987     0.17704722    -1749.3967      791.38131      791.38131      791.38131      4.9562975e+08  1.279875      -41430963      -41430963       1034.9054     -41429928      -1742.4701     -1758.3999     -1747.3202     -13.730061     -4.7597077      4.5681987      6045.033     
     16400   346.44932      0.082          0.17554668     0.17706944     0.17592183    -1738.7547      791.74718      791.74718      791.74718      4.9631749e+08  1.2781015     -41360826      -41360826       1031.6669     -41359794      -1732.511      -1747.5395     -1736.2135     -13.689389     -5.0329031      6.5259383      6053.1391    
     16500   345.82932      0.0825         0.17459638     0.17604006     0.17504523    -1729.3582      792.11305      792.11305      792.11305      4.9700586e+08  1.2763313     -41343869      -41343869       1029.8206     -41342839      -1723.1323     -1737.3803     -1727.5621     -13.32487      -4.3660635      6.9773894      6352.4354    
     16600   345.62551      0.083          0.17327576     0.17486229     0.17400931    -1717.7313      792.47892      792.47892      792.47892      4.9769487e+08  1.2745643     -41275938      -41275938       1029.2137     -41274909      -1710.0988     -1725.7567     -1717.3384     -12.605951     -3.6801454      6.8665604      6006.5612    
     16700   344.985        0.0835         0.17235085     0.17380679     0.17298841    -1707.8577      792.8448       792.8448       792.8448       4.9838452e+08  1.2728006     -41222490      -41222490       1027.3064     -41221463      -1700.9707     -1715.3397     -1707.2629     -12.634569     -3.4232603      7.3272778      6068.8737    
     16800   343.80516      0.084          0.1716269      0.17302921     0.17217784    -1700.2515      793.21067      793.21067      793.21067      4.990748e+08   1.2710402     -41205779      -41205779       1023.7931     -41204755      -1693.8258     -1707.6655     -1699.2631     -12.850847     -3.6146637      7.076889       6354.6819    
     16900   343.03354      0.0845         0.17063687     0.17202014     0.17119799    -1690.4515      793.57654      793.57654      793.57654      4.9976572e+08  1.269283      -41145499      -41145499       1021.4953     -41144477      -1684.055      -1697.7068     -1689.5928     -12.701338     -3.3958673      7.1260047      6058.4867    
     17000   342.48462      0.085          0.16978343     0.17113512     0.17037956    -1682.04        793.94241      793.94241      793.94241      5.0045728e+08  1.267529      -41128937      -41128937       1019.8607     -41127917      -1675.6321     -1688.9723     -1681.5156     -13.104454     -3.6189977      6.187555       3664.9167    
     17100   341.65911      0.0855         0.16894764     0.17026993     0.16942801    -1673.3138      794.30828      794.30828      794.30828      5.0114947e+08  1.2657783     -41105158      -41105158       1017.4025     -41104141      -1667.3835     -1680.4335     -1672.1245     -12.973809     -4.0592354      6.230753       5497.547     
     17200   341.02451      0.086          0.16806956     0.16945703     0.16848377    -1664.6447      794.67416      794.67416      794.67416      5.018423e+08   1.2640308     -41074023      -41074023       1015.5128     -41073008      -1658.7176     -1672.4109     -1662.8056     -11.942366     -3.6235296      6.7980862      6069.3772    
     17300   340.61378      0.0865         0.16739857     0.16872906     0.16771668    -1657.5189      795.04003      795.04003      795.04003      5.0253578e+08  1.2622865     -41057646      -41057646       1014.2897     -41056631      -1652.0954     -1665.2263     -1655.2349     -10.465579     -3.6804203      7.4784476      6376.8348    
     17400   339.89592      0.087          0.1665317      0.16781675     0.16689202    -1648.9529      795.4059       795.4059       795.4059       5.0322989e+08  1.2605454     -40990408      -40990408       1012.152      -40989395      -1643.54       -1656.2226     -1647.0962     -8.9704955     -3.3986586      6.5840476      6089.574     
     17500   339.18078      0.0875         0.16578007     0.16707503     0.1662124     -1641.8044      795.77177      795.77177      795.77177      5.0392464e+08  1.2588075     -40974159      -40974159       1010.0225     -40973149      -1636.1221     -1648.9024     -1640.3888     -8.9786792     -2.566106       6.7523683      6380.6233    
     17600   338.76984      0.088          0.16475648     0.16625401     0.16528431    -1632.6829      796.13764      796.13764      796.13764      5.0462002e+08  1.2570729     -40921176      -40921176       1008.7987     -40920167      -1626.0201     -1640.7995     -1631.2293     -10.079164     -0.52209549     6.4725271      6078.8581    
     17700   338.46209      0.0885         0.16387368     0.16541439     0.16429491    -1623.7617      796.50352      796.50352      796.50352      5.0531605e+08  1.2553414     -40865020      -40865020       1007.8823     -40864012      -1617.3074     -1632.5131     -1621.4647     -10.649755     -1.1171428      6.2106158      6097.7268    
     17800   337.88931      0.089          0.16331632     0.1647584      0.16368249    -1617.7555      796.86939      796.86939      796.86939      5.0601272e+08  1.253613      -40848972      -40848972       1006.1767     -40847966      -1611.8068     -1626.039      -1615.4206     -10.583719     -1.5350886      6.1799957      6334.8494    
     17900   337.12701      0.0895         0.16248957     0.16395022     0.16290825    -1609.8299      797.23526      797.23526      797.23526      5.0671003e+08  1.2518879     -40774297      -40774297       1003.9067     -40773293      -1603.6473     -1618.0628     -1607.7795     -10.734124     -2.6752217      5.1696125      6106.079     
     18000   336.52296      0.09           0.16188249     0.16326042     0.16233453    -1603.6761      797.60113      797.60113      797.60113      5.0740797e+08  1.2501659     -40758336      -40758336       1002.1079     -40757334      -1597.656      -1611.255      -1602.1172     -9.7881501     -2.865091       4.9972626      2744.327     
     18100   336.44029      0.0905         0.16100114     0.16248483     0.16169857    -1596.133       797.96701      797.96701      797.96701      5.0810656e+08  1.248447      -40711354      -40711354       1001.8617     -40710352      -1588.9577     -1603.6006     -1595.8408     -8.5701355     -2.6139807      5.3911477      4195.5884    
     18200   336.44336      0.091          0.16029658     0.16173408     0.16087069    -1588.6219      798.33288      798.33288      798.33288      5.0880579e+08  1.2467314     -40651530      -40651530       1001.8709     -40650528      -1582.0042     -1596.1912     -1587.6702     -8.2044043     -2.5911191      6.8365748      6063.5743    
     18300   336.17737      0.0915         0.15972189     0.16122863     0.16014213    -1582.6717      798.69875      798.69875      798.69875      5.0950566e+08  1.2450188     -40635752      -40635752       1001.0788     -40634751      -1576.3325     -1591.2028     -1580.4799     -8.3076707     -1.9968072      6.7636288      6421.8817    
     18400   335.65224      0.092          0.15906261     0.16032754     0.15944489    -1575.2448      799.06462      799.06462      799.06462      5.1020617e+08  1.2433094     -40596363      -40596363       999.51506     -40595363      -1569.8259     -1582.3098     -1573.5987     -9.2856617     -1.9516939      6.3269189      6120.961     
     18500   334.95609      0.0925         0.1583675      0.1593848      0.15885498    -1567.9161      799.43049      799.43049      799.43049      5.1090733e+08  1.2416031     -40558241      -40558241       997.44204     -40557243      -1562.9657     -1573.0057     -1567.7768     -10.044251     -2.1713651      5.9730817      6127.344     
     18600   334.35036      0.093          0.15772937     0.15870443     0.15835793    -1561.9434      799.79637      799.79637      799.79637      5.1160912e+08  1.2399        -40542612      -40542612       995.63829     -40541616      -1556.6679     -1566.291      -1562.8712     -10.042506     -3.0004771      5.9569346      6420.5396    
     18700   334.16063      0.0935         0.15704465     0.15802913     0.15752322    -1554.7232      800.16224      800.16224      800.16224      5.1231156e+08  1.2381999     -40483390      -40483390       995.0733      -40482395      -1549.9102     -1559.6262     -1554.6333     -8.9899398     -3.3602467      5.9534909      6138.6876    
     18800   334.13237      0.094          0.1565197      0.15756435     0.1568992     -1549.4144      800.52811      800.52811      800.52811      5.1301464e+08  1.236503      -40467857      -40467857       994.98913     -40466862      -1544.7293     -1555.0393     -1548.4747     -8.4894338     -3.0662809      6.9835812      6341.2627    
     18900   333.69809      0.0945         0.15592609     0.1568532      0.15627664    -1543.074       800.89398      800.89398      800.89398      5.1371836e+08  1.2348091     -40415668      -40415668       993.69594     -40414674      -1538.8709     -1548.0207     -1542.3305     -7.848788      -3.1052948      7.4304032      6130.9601    
     19000   333.49054      0.095          0.15544833     0.15637827     0.1558355     -1538.4887      801.25985      801.25985      801.25985      5.1442273e+08  1.2331184     -40392807      -40392807       993.07787     -40391814      -1534.1557     -1543.3335     -1537.9768     -7.7305303     -2.5233274      7.3018196      3642.9754    
     19100   333.25649      0.0955         0.15504617     0.15592497     0.15548769    -1534.5303      801.62573      801.62573      801.62573      5.1512774e+08  1.2314307     -40377391      -40377391       992.38091     -40376399      -1530.1868     -1538.8598     -1534.5442     -7.7651797     -1.9990356      6.8432994      5493.1892    
     19200   332.99698      0.096          0.1543685      0.15524112     0.15508406    -1528.7233      801.9916       801.9916       801.9916       5.158334e+08   1.2297462     -40340184      -40340184       991.60816     -40339192      -1523.4986     -1532.1107     -1530.5607     -8.7239442     -1.7882021      6.5062017      6127.0466    
     19300   332.99082      0.0965         0.15366223     0.15461046     0.15450645    -1522.425       802.35747      802.35747      802.35747      5.1653969e+08  1.2280646     -40324851      -40324851       991.5898      -40323859      -1516.5283     -1525.8866     -1524.8601     -9.1491037     -2.421082       6.5058628      6443.0104    
     19400   332.91438      0.097          0.15281552     0.15384976     0.15363914    -1514.2838      802.72334      802.72334      802.72334      5.1724664e+08  1.2263862     -40243979      -40243979       991.36219     -40242988      -1508.1719     -1518.379      -1516.3004     -9.3015551     -3.0285479      7.3112125      6096.5959    
     19500   332.5838       0.0975         0.15245606     0.15331914     0.15312547    -1509.6658      803.08921      803.08921      803.08921      5.1795422e+08  1.2247108     -40219640      -40219640       990.37778     -40218650      -1504.6243     -1513.1423     -1511.2309     -8.8895088     -3.0652879      6.3510687      6149.6617    
     19600   332.11369      0.098          0.15220178     0.15291789     0.15267889    -1506.0402      803.45509      803.45509      803.45509      5.1866246e+08  1.2230385     -40204434      -40204434       988.97786     -40203445      -1502.1148     -1509.1822     -1506.8235     -8.4712021     -2.8873679      6.0909996      6451.3353    
     19700   331.60775      0.0985         0.15172027     0.15231984     0.15206448    -1500.4674      803.82096      803.82096      803.82096      5.1937134e+08  1.2213692     -40152747      -40152747       987.47124     -40151759      -1497.3626     -1503.28       -1500.7597     -8.0081314     -2.9936244      6.2840589      6152.859     
     19800   331.51068      0.099          0.1509218      0.15156269     0.15136617    -1493.0526      804.18683      804.18683      804.18683      5.2008086e+08  1.2197029     -40079138      -40079138       987.1822      -40078151      -1489.4824     -1495.8075     -1493.8679     -8.4566362     -2.6611596      6.9253909      6155.6103    
     19900   331.67842      0.0995         0.15032005     0.15104745     0.15086084    -1487.7156      804.5527       804.5527       804.5527       5.2079103e+08  1.2180397     -40064075      -40064075       987.68169     -40063088      -1483.5436     -1490.7225     -1488.8807     -8.2833266     -2.5569845      7.438924       6456.8392    
     20000   331.73443      0.1            0.14970774     0.15055344     0.15030691    -1482.2538      804.91857      804.91857      804.91857      5.2150184e+08  1.2163795     -40019955      -40019955       987.84848     -40018967      -1477.5006     -1485.8469     -1483.4139     -7.5311319     -2.9870872      7.1833763      4180.1075    
     20100   331.47383      0.1005         0.14932811     0.15021016     0.1499634     -1478.7455      805.28445      805.28445      805.28445      5.2221331e+08  1.2147223     -40004961      -40004961       987.07245     -40003974      -1473.7538     -1482.4591     -1480.0236     -7.4615642     -3.2007305      6.9892256      6464.0034    
     20200   331.13651      0.101          0.14894231     0.14964946     0.14955784    -1474.2976      805.65032      805.65032      805.65032      5.2292542e+08  1.2130681     -39974811      -39974811       986.06798     -39973825      -1469.9463     -1476.9253     -1476.0211     -7.2893714     -3.116342       6.477874       6156.4637    
     20300   330.95115      0.1015         0.14850175     0.14904523     0.14909122    -1469.3255      806.01619      806.01619      806.01619      5.2363817e+08  1.2114169     -39950464      -39950464       985.51602     -39949478      -1465.5983     -1470.9621     -1471.4159     -7.3806542     -2.4634152      6.5713671      6162.8321    
     20400   330.63968      0.102          0.14800702     0.14847394     0.14862551    -1464.2864      806.38206      806.38206      806.38206      5.2435157e+08  1.2097687     -39935563      -39935563       984.5885      -39934579      -1460.7157     -1465.3239     -1466.8197     -7.289497      -2.3038876      6.6063396      6475.7902    
     20500   330.31283      0.1025         0.14729153     0.14787642     0.14779585    -1457.2376      806.74794      806.74794      806.74794      5.2506563e+08  1.2081235     -39869454      -39869454       983.6152      -39868470      -1453.6543     -1459.4268     -1458.6316     -7.0463873     -2.6484487      6.8844248      6178.7952    
     20600   330.18183      0.103          0.1468948      0.14750041     0.14729943    -1453.0624      807.11381      807.11381      807.11381      5.2578033e+08  1.2064813     -39854651      -39854651       983.22512     -39853668      -1449.739      -1455.7159     -1453.7323     -6.6587988     -3.1995912      6.7966255      6417.5778    
     20700   330.1307       0.1035         0.14640977     0.14717959     0.14686351    -1448.9773      807.47968      807.47968      807.47968      5.2649567e+08  1.2048421     -39825184      -39825184       983.07286     -39824201      -1444.9521     -1452.5496     -1449.4302     -6.375186      -3.3131759      7.082601       6179.4561    
     20800   330.12485      0.104          0.1458983      0.14676604     0.14635794    -1444.271       807.84555      807.84555      807.84555      5.2721167e+08  1.2032058     -39780892      -39780892       983.05542     -39779909      -1439.9043     -1448.4682     -1444.4406     -6.1573315     -3.270781       7.4413568      6189.7494    
     20900   330.00511      0.1045         0.14555824     0.14644231     0.14602215    -1440.9826      808.21142      808.21142      808.21142      5.2792831e+08  1.2015725     -39766160      -39766160       982.69886     -39765177      -1436.5481     -1445.2733     -1441.1265     -6.3472959     -2.6669492      7.4174768      6486.7969    
     21000   329.84171      0.105          0.14507598     0.14594013     0.14553906    -1436.1549      808.5773       808.5773       808.5773       5.2864561e+08  1.1999421     -39720517      -39720517       982.21229     -39719535      -1431.7886     -1440.3171     -1436.3589     -6.1873184     -2.0709407      6.7599477      4083.8149    
     21100   329.74267      0.1055         0.14449472     0.14536874     0.14499907    -1430.5865      808.94317      808.94317      808.94317      5.2936355e+08  1.1983147     -39676603      -39676603       981.91737     -39675621      -1426.052      -1434.6779     -1431.0295     -5.742307      -2.3975931      7.3264222      6119.8031    
     21200   329.74903      0.106          0.14398989     0.14488495     0.14451785    -1425.7511      809.30904      809.30904      809.30904      5.3008214e+08  1.1966903     -39661992      -39661992       981.93631     -39661010      -1421.0697     -1429.9032     -1426.2803     -5.682802      -2.2954393      6.8481725      6491.7242    
     21300   329.91968      0.1065         0.14336315     0.14438999     0.14397126    -1420.2629      809.67491      809.67491      809.67491      5.3080139e+08  1.1950687     -39618041      -39618041       982.44448     -39617059      -1414.8843     -1425.0184     -1420.8859     -6.3594213     -2.4200328      6.170147       6191.2466    
     21400   329.9001       0.107          0.14298596     0.14399065     0.14358444    -1416.4357      810.04078      810.04078      810.04078      5.3152128e+08  1.1934501     -39603508      -39603508       982.38615     -39602526      -1411.1617     -1421.0773     -1417.0682     -6.6198864     -2.7403886      5.9479194      6501.7802    
     21500   329.79706      0.1075         0.14254745     0.14350623     0.14320563    -1412.1533      810.40666      810.40666      810.40666      5.3224182e+08  1.1918344     -39574448      -39574448       982.07934     -39573466      -1406.8339     -1416.2964     -1413.3296     -6.8833934     -2.6048159      6.9308053      6200.428     
     21600   329.90832      0.108          0.14205131     0.14296678     0.14282782    -1407.5036      810.77253      810.77253      810.77253      5.3296302e+08  1.1902217     -39538141      -39538141       982.41064     -39537159      -1401.9374     -1410.9724     -1409.601      -6.8789903     -2.725304       7.5456831      6195.712     
     21700   329.84293      0.1085         0.14172903     0.14262816     0.14250237    -1404.2588      811.1384       811.1384       811.1384       5.3368486e+08  1.1886118     -39523685      -39523685       982.21593     -39522703      -1398.7567     -1407.6305     -1406.3891     -6.6158601     -2.7305762      7.6237927      6506.1508    
     21800   329.51836      0.109          0.14150865     0.14220457     0.1421443     -1400.9623      811.50427      811.50427      811.50427      5.3440736e+08  1.1870049     -39494698      -39494698       981.2494      -39493717      -1396.5818     -1403.45       -1402.8551     -5.8563568     -2.5939452      7.2900215      6148.924     
     21900   329.56693      0.1095         0.14129205     0.14186413     0.14175644    -1397.8538      811.87014      811.87014      811.87014      5.3513051e+08  1.1854008     -39480286      -39480286       981.39403     -39479305      -1394.4441     -1400.0901     -1399.0273     -5.5553301     -2.2431567      6.6520566      6499.0805    
[...]
    244700   310.18427      1.2235         7.7342267e-05  7.1310636e-05  6.6196055e-05 -0.70679812     1627.0331      1627.0331      1627.0331      4.307142e+09   0.14727727    -203774.43     -203774.43      923.67579     -202850.76     -0.76330883    -0.70378126    -0.65330427    -0.139425      -0.11775037     0.065750272    25749.55     
    244800   310.21121      1.224          7.7700133e-05  7.1021006e-05  6.6279978e-05 -0.70729868     1627.399       1627.399       1627.399       4.3100483e+09  0.14717796    -203808.53     -203808.53      923.75602     -202884.77     -0.76684069    -0.70092283    -0.65413253    -0.13990152    -0.11865358     0.064196759    25782.685    
    244900   310.38453      1.2245         7.8367413e-05  7.0985972e-05  6.6524476e-05 -0.71018294     1627.7649      1627.7649      1627.7649      4.312956e+09   0.14707874    -203842.86     -203842.86      924.27212     -202918.59     -0.77342623    -0.70057707    -0.65654553    -0.1406297     -0.1189446      0.061647153    27923.297    
    245000   310.63987      1.225          7.8949674e-05  7.1095035e-05  6.6804514e-05 -0.71337848     1628.1308      1628.1308      1628.1308      4.3158649e+09  0.14697961    -203877.55     -203877.55      925.03249     -202952.52     -0.7791727     -0.70165344    -0.65930929    -0.14068685    -0.11861016     0.059267349    9032.4503    
    245100   310.84821      1.2255         7.9178918e-05  7.1104613e-05  6.6978503e-05 -0.71473652     1628.4966      1628.4966      1628.4966      4.3187751e+09  0.14688057    -203912.57     -203912.57      925.65288     -202986.92     -0.78143516    -0.70174797    -0.66102643    -0.14061346    -0.11756794     0.056767182    25086.977    
    245200   310.89701      1.226          7.9088255e-05  7.1006314e-05  6.6995629e-05 -0.71417123     1628.8625      1628.8625      1628.8625      4.3216866e+09  0.14678161    -203947.69     -203947.69      925.7982      -203021.89     -0.78054039    -0.70077783    -0.66119545    -0.14075852    -0.116655       0.054299639    27915.751    
    245300   310.82358      1.2265         7.890719e-05   7.1117727e-05  6.6937118e-05 -0.7137496      1629.2284      1629.2284      1629.2284      4.3245995e+09  0.14668275    -203982.58     -203982.58      925.57954     -203057        -0.77875342    -0.7018774     -0.66061799    -0.13923136    -0.11733241     0.053558707    25736.336    
    245400   310.74162      1.227          7.8823568e-05  7.1276747e-05  6.6795723e-05 -0.71353249     1629.5942      1629.5942      1629.5942      4.3275136e+09  0.14658397    -204017.13     -204017.13      925.33549     -203091.79     -0.77792814    -0.7034468     -0.65922253    -0.13710556    -0.11891531     0.053432072    27659.786    
    245500   310.60632      1.2275         7.8833388e-05  7.0899781e-05  6.6475157e-05 -0.71127009     1629.9601      1629.9601      1629.9601      4.3304291e+09  0.14648528    -204051.5      -204051.5       924.93258     -203126.57     -0.77802505    -0.69972643    -0.65605879    -0.13784775    -0.11930358     0.050636025    25755.831    
    245600   310.38966      1.228          7.9115043e-05  7.0456213e-05  6.6134832e-05 -0.70961786     1630.326       1630.326       1630.326       4.3333459e+09  0.14638668    -204085.76     -204085.76      924.28741     -203161.48     -0.78080476    -0.69534876    -0.65270004    -0.13917787    -0.11945314     0.04741867     24791.971    
    245700   310.30623      1.2285         7.9791733e-05  7.0663947e-05  6.597643e-05  -0.71200628     1630.6919      1630.6919      1630.6919      4.3362639e+09  0.14628817    -204119.88     -204119.88      924.03895     -203195.84     -0.78748318    -0.69739893    -0.65113674    -0.13745064    -0.1208502      0.047457432    27864.203    
    245800   310.40801      1.229          8.0402783e-05  7.0720661e-05  6.5860268e-05 -0.71382091     1631.0577      1631.0577      1631.0577      4.3391833e+09  0.14618975    -204153.87     -204153.87      924.34205     -203229.53     -0.79351377    -0.69795865    -0.64999031    -0.13639696    -0.1207902      0.04701036     25730.595    
    245900   310.42524      1.2295         8.05171e-05    7.0099506e-05  6.565847e-05  -0.71148968     1631.4236      1631.4236      1631.4236      4.342104e+09   0.14609142    -204187.75     -204187.75      924.39334     -203263.35     -0.79464199    -0.69182834    -0.64799872    -0.13766026    -0.11756438     0.044017374    25756.401    
    246000   310.29642      1.23           8.0309323e-05  6.9723983e-05  6.5612656e-05 -0.70942006     1631.7895      1631.7895      1631.7895      4.345026e+09   0.14599317    -204221.49     -204221.49      924.00976     -203297.48     -0.7925914     -0.68812221    -0.64754657    -0.13609847    -0.11373274     0.043251126    6799.9877    
    246100   310.65847      1.2305         8.2859655e-05  6.9815617e-05  7.2501092e-05 -0.74077264     1632.1553      1632.1553      1632.1553      4.3479493e+09  0.14589501    -211534.61     -211534.61      925.08786     -210609.52     -0.81776122    -0.68902656    -0.71553015    -0.12987759    -0.15314738     0.048883187    23338.699    
    246200   311.25882      1.231          8.2632461e-05  6.9658943e-05  7.2421253e-05 -0.73924716     1632.5212      1632.5212      1632.5212      4.350874e+09   0.14579694    -211569.84     -211569.84      926.87562     -210642.96     -0.81551898    -0.68748031    -0.71474219    -0.12935494    -0.14769797     0.049046738    25584.909    
    246300   311.44475      1.2315         8.2847646e-05  6.9396565e-05  7.2667942e-05 -0.73990346     1632.8871      1632.8871      1632.8871      4.3537999e+09  0.14569896    -211605        -211605         927.42929     -210677.57     -0.81764269    -0.68489085    -0.71717683    -0.13237379    -0.14462909     0.047352459    25087.971    
    246400   311.42509      1.232          8.3316743e-05  6.9396609e-05  7.318477e-05  -0.74314704     1633.253       1633.253       1633.253       4.3567272e+09  0.14560107    -211640.51     -211640.51      927.37073     -210713.14     -0.82227232    -0.68489128    -0.72227752    -0.13585226    -0.14451278     0.045143862    25814.579    
    246500   311.35186      1.2325         8.3654717e-05  6.953487e-05   7.3724586e-05 -0.74648959     1633.6188      1633.6188      1633.6188      4.3596557e+09  0.14550326    -211675.92     -211675.92      927.15266     -210748.77     -0.82560786    -0.68625581    -0.7276051     -0.13859319    -0.14616933     0.04220435     27801.231    
    246600   311.24184      1.233          8.3654155e-05  6.9615672e-05  7.4153575e-05 -0.74816482     1633.9847      1633.9847      1633.9847      4.3625856e+09  0.14540554    -211710.85     -211710.85      926.82504     -210784.03     -0.82560232    -0.68705327    -0.73183888    -0.14025984    -0.14825599     0.038709435    25824.759    
    246700   311.08288      1.2335         8.3588464e-05  6.9569166e-05  7.438304e-05  -0.74855061     1634.3506      1634.3506      1634.3506      4.3655168e+09  0.14530791    -211745.76     -211745.76      926.3517      -210819.41     -0.824954      -0.68659429    -0.73410353    -0.14200822    -0.1500367      0.035011736    27694.54     
    246800   310.89571      1.234          8.3757883e-05  6.9444355e-05  7.4290288e-05 -0.74839222     1634.7165      1634.7165      1634.7165      4.3684493e+09  0.14521037    -211780.7      -211780.7       925.79434     -210854.91     -0.82662604    -0.6853625     -0.73318813    -0.14415156    -0.15051167     0.032003121    25699.297    
    246900   310.74771      1.2345         8.4276408e-05  6.9362824e-05  7.391151e-05  -0.74858374     1635.0823      1635.0823      1635.0823      4.3713831e+09  0.14511291    -211815.41     -211815.41      925.35361     -210890.06     -0.83174348    -0.68455785    -0.72944988    -0.14617555    -0.14908682     0.02998281     25835.554    
    247000   310.65577      1.235          8.4815953e-05  6.909257e-05   7.3391641e-05 -0.7477594      1635.4482      1635.4482      1635.4482      4.3743182e+09  0.14501554    -211849.85     -211849.85      925.07982     -210924.77     -0.83706837    -0.68189065    -0.72431918    -0.14836069    -0.14556539     0.027348857    8101.9589    
    247100   310.53025      1.2355         8.4992604e-05  6.8440742e-05  7.2948178e-05 -0.74473731     1635.8141      1635.8141      1635.8141      4.3772547e+09  0.14491826    -211884.03     -211884.03      924.70606     -210959.32     -0.83881178    -0.67545761    -0.71994255    -0.15058799    -0.1405465      0.02296984     25038.465    
    247200   310.37518      1.236          8.4775913e-05  6.788219e-05   7.2879864e-05 -0.74196222     1636.1799      1636.1799      1636.1799      4.3801924e+09  0.14482107    -211918.01     -211918.01      924.24428     -210993.77     -0.83667321    -0.66994513    -0.71926833    -0.14984091    -0.13592533     0.019444256    25676.116    
    247300   310.32006      1.2365         8.4392554e-05  6.7625954e-05  7.3117671e-05 -0.74064045     1636.5458      1636.5458      1636.5458      4.3831315e+09  0.14472396    -211951.84     -211951.84      924.08016     -211027.76     -0.83288975    -0.66741628    -0.72161531    -0.14626716    -0.13304328     0.018238767    27811.345    
    247400   310.33777      1.237          8.390738e-05   6.7090619e-05  7.3300146e-05 -0.73788353     1636.9117      1636.9117      1636.9117      4.3860719e+09  0.14462693    -211985.35     -211985.35      924.1329      -211061.22     -0.82810146    -0.66213293    -0.72341619    -0.14411459    -0.13099269     0.017013989    25708.725    
    247500   310.28261      1.2375         8.3520462e-05  6.6178515e-05  7.3118674e-05 -0.73301308     1637.2776      1637.2776      1637.2776      4.3890136e+09  0.14453       -212018.43     -212018.43      923.96864     -211094.46     -0.82428287    -0.65313116    -0.72162521    -0.14449886    -0.12977059     0.015190916    27768.853    
    247600   310.14823      1.238          8.3412665e-05  6.5388155e-05  7.2484291e-05 -0.72797142     1637.6434      1637.6434      1637.6434      4.3919566e+09  0.14443315    -212051.04     -212051.04      923.56847     -211127.47     -0.823219      -0.64533091    -0.71536434    -0.14516586    -0.12951887     0.013899018    25784.839    
    247700   310.00662      1.2385         8.3475151e-05  6.4851728e-05  7.1520491e-05 -0.72324162     1638.0093      1638.0093      1638.0093      4.3949009e+09  0.14433639    -212083.27     -212083.27      923.14676     -211160.12     -0.82383569    -0.6400368     -0.70585237    -0.14557611    -0.12899512     0.012372336    24879.032    
    247800   309.89787      1.239          8.3580726e-05  6.4477239e-05  7.0682396e-05 -0.71959983     1638.3752      1638.3752      1638.3752      4.3978466e+09  0.14423971    -212115.22     -212115.22      922.82294     -211192.4      -0.82487763    -0.63634087    -0.69758101    -0.14676501    -0.12843681     0.0093709982   27765.468    
    247900   309.85805      1.2395         8.3696022e-05  6.4155167e-05  7.0394445e-05 -0.71797231     1638.741       1638.741       1638.741       4.4007935e+09  0.14414313    -212146.96     -212146.96      922.70435     -211224.25     -0.82601551    -0.63316227    -0.69473916    -0.14940458    -0.12830948     0.0048250236   25762.234    
    248000   309.89389      1.24           8.3780134e-05  6.3786379e-05  7.0657811e-05 -0.71790221     1639.1069      1639.1069      1639.1069      4.4037418e+09  0.14404662    -212178.63     -212178.63      922.81109     -211255.82     -0.82684563    -0.62952261    -0.69733837    -0.15363318    -0.1278993     -0.00073441675  9117.1798    
    248100   309.98081      1.2405         8.3882808e-05  6.3434926e-05  7.1112395e-05 -0.71857925     1639.4728      1639.4728      1639.4728      4.4066914e+09  0.14395021    -212210.22     -212210.22      923.06991     -211287.15     -0.82785895    -0.62605404    -0.70182477    -0.15873943    -0.12660955    -0.0061199842   25131.109    
    248200   310.07084      1.241          8.3950425e-05  6.3219952e-05  7.1184801e-05 -0.71833269     1639.8387      1639.8387      1639.8387      4.4096423e+09  0.14385388    -212241.45     -212241.45      923.33803     -211318.11     -0.82852628    -0.62393241    -0.70253936    -0.1641675     -0.12288305    -0.010861756    25747.972    
    248300   310.09237      1.2415         8.3975336e-05  6.3105817e-05  7.0766413e-05 -0.71666277     1640.2045      1640.2045      1640.2045      4.4125945e+09  0.14375763    -212272.22     -212272.22      923.40212     -211348.82     -0.82877213    -0.62280599    -0.6984102     -0.17023689    -0.11801707    -0.015563891    27851.29     
    248400   310.07854      1.242          8.4184936e-05  6.3007408e-05  7.07811e-05   -0.71707688     1640.5704      1640.5704      1640.5704      4.4155481e+09  0.14366147    -212302.88     -212302.88      923.36094     -211379.52     -0.83084072    -0.62183477    -0.69855514    -0.17656234    -0.11773413    -0.020518056    25758.823    
    248500   310.12817      1.2425         8.4423827e-05  6.2826039e-05  7.1329514e-05 -0.71907025     1640.9363      1640.9363      1640.9363      4.4185029e+09  0.1435654     -212333.74     -212333.74      923.50873     -211410.23     -0.83319839    -0.6200448     -0.70396757    -0.18188716    -0.12106447    -0.025587059    25765.081    
    248600   310.16096      1.243          8.4279977e-05  6.2415833e-05  7.1423361e-05 -0.71755628     1641.3021      1641.3021      1641.3021      4.4214591e+09  0.14346941    -212364.94     -212364.94      923.60637     -211441.34     -0.8317787     -0.61599638    -0.70489376    -0.18537075    -0.12040325    -0.030208124    27700.148    
    248700   310.07431      1.2435         8.4103261e-05  6.1764188e-05  7.1077339e-05 -0.71369286     1641.668       1641.668       1641.668       4.4244166e+09  0.14337351    -212396.26     -212396.26      923.34835     -211472.91     -0.83003465    -0.60956514    -0.70147879    -0.18769665    -0.11613147    -0.03332211     25757.363    
    248800   309.95405      1.244          8.4415347e-05  6.095298e-05   7.0814104e-05 -0.71118491     1642.0339      1642.0339      1642.0339      4.4273754e+09  0.14327769    -212427.31     -212427.31      922.99025     -211504.32     -0.8331147     -0.60155915    -0.69888087    -0.19011428    -0.11424365    -0.03415836     27801.502    
    248900   309.9128       1.2445         8.4938274e-05  6.0106591e-05  7.0531621e-05 -0.7091915      1642.3998      1642.3998      1642.3998      4.4303356e+09  0.14318196    -212458.12     -212458.12      922.86741     -211535.25     -0.83827559    -0.59320593    -0.69609298    -0.19272491    -0.11534416    -0.033628778    25826.953    
    249000   309.91489      1.245          8.5123044e-05  5.9322392e-05  6.9994863e-05 -0.70545373     1642.7656      1642.7656      1642.7656      4.433297e+09   0.14308631    -212488.89     -212488.89      922.87361     -211566.02     -0.84009912    -0.58546649    -0.69079559    -0.19434772    -0.11692161    -0.033098224    8643.8888    
    249100   309.86872      1.2455         8.4846004e-05  5.8639818e-05  6.927168e-05  -0.69991776     1643.1315      1643.1315      1643.1315      4.4362598e+09  0.14299075    -212519.46     -212519.46      922.73614     -211596.72     -0.83736496    -0.57873       -0.68365832    -0.19485408    -0.11707822    -0.033769889    27501.646    
    249200   309.76851      1.246          8.4738246e-05  5.801853e-05   6.8594447e-05 -0.69529146     1643.4974      1643.4974      1643.4974      4.4392239e+09  0.14289528    -212549.74     -212549.74      922.43773     -211627.3      -0.83630147    -0.57259837    -0.67697455    -0.19680773    -0.11560154    -0.035951383    25241.007    
    249300   309.75675      1.2465         8.5487359e-05  5.7413263e-05  6.8450172e-05 -0.69529005     1643.8633      1643.8633      1643.8633      4.4421893e+09  0.14279989    -212580.05     -212580.05      922.40271     -211657.65     -0.84369463    -0.56662485    -0.67555067    -0.20234548    -0.11488372    -0.039348709    25708.17     
    249400   309.95459      1.247          8.660805e-05   5.6818153e-05  6.8714606e-05 -0.697889       1644.2291      1644.2291      1644.2291      4.445156e+09   0.14270458    -212610.71     -212610.71      922.99184     -211687.72     -0.854755      -0.56075158    -0.67816043    -0.20962284    -0.11372398    -0.043003928    27851.406    
    249500   310.2055       1.2475         8.6930641e-05  5.6257516e-05  6.8560777e-05 -0.69659983     1644.595       1644.595       1644.595       4.4481241e+09  0.14260936    -212641.83     -212641.83      923.73902     -211718.09     -0.85793872    -0.55521852    -0.67664226    -0.21562966    -0.10879063    -0.046542575    25697.27     
    249600   310.26447      1.248          8.6390706e-05  5.5763774e-05  6.8047894e-05 -0.69151204     1644.9609      1644.9609      1644.9609      4.4510935e+09  0.14251422    -212673.28     -212673.28      923.91461     -211749.37     -0.85260997    -0.55034566    -0.6715805     -0.21974835    -0.10330556    -0.049855414    27830.369    
    249700   310.1621       1.2485         8.6026418e-05  5.5439313e-05  6.7689217e-05 -0.68806628     1645.3267      1645.3267      1645.3267      4.4540642e+09  0.14241917    -212704.85     -212704.85      923.60977     -211781.24     -0.84901474    -0.54714347    -0.66804063    -0.22474648    -0.10248735    -0.053390281    25667.74     
    249800   310.09843      1.249          8.6352412e-05  5.5319868e-05  6.7383548e-05 -0.6877402      1645.6926      1645.6926      1645.6926      4.4570362e+09  0.14232421    -212736.55     -212736.55      923.42017     -211813.13     -0.85223205    -0.54596465    -0.66502392    -0.23197947    -0.10502576    -0.057399581    25869.54     
    249900   310.16322      1.2495         8.6974142e-05  5.5338097e-05  6.7107503e-05 -0.68893739     1646.0585      1646.0585      1646.0585      4.4600095e+09  0.14222932    -212768.69     -212768.69      923.61309     -211845.08     -0.85836804    -0.54614456    -0.66229956    -0.23933378    -0.10770679    -0.061687946    26661.995    
    250000   310.33554      1.25           8.7559122e-05  5.5445523e-05  6.7216024e-05 -0.69157223     1646.4244      1646.4244      1646.4244      4.4629842e+09  0.14213452    -212801.44     -212801.44      924.12625     -211877.31     -0.86414135    -0.54720477    -0.66337058    -0.24464479    -0.10957294    -0.065802207    8687.8135    
Loop time of 22.991 on 1 procs for 250000 steps with 1000 atoms

Performance: 939.498 ns/day, 0.026 hours/ns, 10873.823 timesteps/s
90.3% CPU use with 1 MPI tasks x 1 OpenMP threads

MPI task timing breakdown:
Section |  min time  |  avg time  |  max time  |%varavg| %total
---------------------------------------------------------------
Pair    | 10.483     | 10.483     | 10.483     |   0.0 | 45.59
Neigh   | 0.65715    | 0.65715    | 0.65715    |   0.0 |  2.86
Comm    | 1.0466     | 1.0466     | 1.0466     |   0.0 |  4.55
Output  | 3.402      | 3.402      | 3.402      |   0.0 | 14.80
Modify  | 6.4516     | 6.4516     | 6.4516     |   0.0 | 28.06
Other   |            | 0.9511     |            |       |  4.14

Nlocal:           1000 ave        1000 max        1000 min
Histogram: 1 0 0 0 0 0 0 0 0 0
Nghost:            574 ave         574 max         574 min
Histogram: 1 0 0 0 0 0 0 0 0 0
Neighs:             46 ave          46 max          46 min
Histogram: 1 0 0 0 0 0 0 0 0 0

Total # of neighbors = 46
Ave neighs/atom = 0.046
Neighbor list builds = 1542
Dangerous builds = 0

# restart file
write_restart ./tensile/restart/restart_${usic}_${trial}.tensile.restart
write_restart ./tensile/restart/restart_1_${trial}.tensile.restart
write_restart ./tensile/restart/restart_1_1.tensile.restart
System init for write_restart ...
Generated 0 of 1 mixed pair_coeff terms from geometric mixing rule
Total wall time: 0:00:23
