LAMMPS (23 Jun 2022 - Update 1)
OMP_NUM_THREADS environment is not set. Defaulting to 1 thread. (src/comm.cpp:98)
  using 1 OpenMP thread(s) per MPI task
###

# Read restart info
read_restart ${read_res}
read_restart ./800200/equpmf71.res
Reading restart file ...
  restart file = 23 Jun 2022, LAMMPS = 23 Jun 2022
WARNING: Restart file used different # of processors: 4 vs. 1 (src/read_restart.cpp:654)
  restoring atom style atomic from restart
  orthogonal box = (2217.0249 2217.0249 2217.0249) to (2782.9751 2782.9751 2782.9751)
  1 by 1 by 1 MPI processor grid
  restoring pair style table from restart
  1000 atoms
  read_restart CPU = 0.041 seconds

# Settings
pair_style table/pgn spline 9941
pair_coeff 1 1 N20.txt DE_GNP 147.89 75.6
pair_coeff 2 2 N100.txt DE_GNP 473.9 115.92
WARNING: 3 of 9941 force values in table DE_GNP are inconsistent with -dE/dr.
WARNING:  Should only be flagged at inflection points (src/pair_table_pgn.cpp:478)
pair_coeff 1 2 mixed_potential.txt DE_GNP 391.2 95.66
WARNING: 1562 of 9941 force values in table DE_GNP are inconsistent with -dE/dr.
WARNING:  Should only be flagged at inflection points (src/pair_table_pgn.cpp:478)

# Neighbor list
neighbor 2.0 bin
neigh_modify delay 0 every 1 check yes

# Temperature
variable T equal ${Temp}
variable T equal 300

# Deformation
reset_timestep 0
variable tmp equal "lx"
variable L0 equal ${tmp}
variable L0 equal 565.950272299433
variable strain equal "(lx - v_L0)/v_L0"
variable stp equal "step"
variable tmpe equal "temp"
variable p1 equal "v_strain"
variable p2 equal "-pxx*1.01325/10000"
variable p3 equal "-pyy*1.01325/10000"
variable p4 equal "-pzz*1.01325/10000"
variable p5 equal "lx"
variable p6 equal "ly"
variable p7 equal "lz"
variable p8 equal "press"
variable p9 equal "epair"
variable p10 equal "etotal"

# Thermo
thermo_style custom step temp v_p1 v_p2 v_p3 v_p4 press lx ly lz vol density epair pe ke etotal pxx pyy pzz pxy pxz pyz spcpu
thermo ${ts_save}
thermo 100

# Dump
dump 1 all custom 1000 ./tensile/trajectory/trajectory_${usic}_${trial}_*.tensile.custom id type x y z ix iy iz
dump 1 all custom 1000 ./tensile/trajectory/trajectory_1_${trial}_*.tensile.custom id type x y z ix iy iz
dump 1 all custom 1000 ./tensile/trajectory/trajectory_1_1_*.tensile.custom id type x y z ix iy iz
dump_modify 1 sort id
dump 2 all cfg 1000 ./tensile/trajectory/ovito/dumpten.tens_*.cfg mass type xs ys zs fx fy fz
dump_modify 2 element N20 N100

fix 1 all nvt temp ${T} ${T} 100
fix 1 all nvt temp 300 ${T} 100
fix 1 all nvt temp 300 300 100
fix 2 all deform 1 x erate ${strain_rate} y erate ${strain_rate} z erate ${strain_rate} units box
fix 2 all deform 1 x erate 5e-6 y erate ${strain_rate} z erate ${strain_rate} units box
fix 2 all deform 1 x erate 5e-6 y erate 5e-6 z erate ${strain_rate} units box
fix 2 all deform 1 x erate 5e-6 y erate 5e-6 z erate 5e-6 units box
fix             def1 all print ${ts_save} "${p1} ${p2} ${p3} ${p4}" file tensile${N20}${N100}_${usic}_${trial}.txt screen no
fix             def1 all print 100 "${p1} ${p2} ${p3} ${p4}" file tensile${N20}${N100}_${usic}_${trial}.txt screen no
fix             def1 all print 100 "${p1} ${p2} ${p3} ${p4}" file tensile800${N100}_${usic}_${trial}.txt screen no
fix             def1 all print 100 "${p1} ${p2} ${p3} ${p4}" file tensile800200_${usic}_${trial}.txt screen no
fix             def1 all print 100 "${p1} ${p2} ${p3} ${p4}" file tensile800200_1_${trial}.txt screen no
fix             def1 all print 100 "${p1} ${p2} ${p3} ${p4}" file tensile800200_1_1.txt screen no

timestep       		${ts}
timestep       		1
run				${steps_tensile}
run				250000
Generated 0 of 1 mixed pair_coeff terms from geometric mixing rule
Unused restart file global fix info:
  fix style: npt, fix ID: 5
Neighbor list info ...
  update every 1 steps, delay 0 steps, check yes
  max neighbors/atom: 2000, page size: 100000
  master list distance cutoff = 117.92
  ghost atom cutoff = 117.92
  binsize = 58.96, bins = 10 10 10
  1 neighbor lists, perpetual/occasional/extra = 1 0 0
  (1) pair table/pgn, perpetual
      attributes: half, newton on
      pair build: half/bin/atomonly/newton
      stencil: half/bin/3d
      bin: standard
Per MPI rank memory allocation (min/avg/max) = 5.817 | 5.817 | 5.817 Mbytes
   Step          Temp           v_p1           v_p2           v_p3           v_p4          Press            Lx             Ly             Lz           Volume        Density         E_pair         PotEng         KinEng         TotEng          Pxx            Pyy            Pzz            Pxy            Pxz            Pyz           S/CPU     
         0   304.93081      0              0.027709993    0.016889028    0.035091841   -262.16255      565.95027      565.95027      565.95027      1.8127371e+08  2.3990252     -13435697      -13435697       908.03189     -13434789      -273.47636     -166.68175     -346.32954     -56.854407      14.863841     -73.993322      0            
       100   335.07908      0.0005         0.038662306    0.028474411    0.046237901   -372.97349      566.23325      566.23325      566.23325      1.8154576e+08  2.3954303     -13434553      -13434553       997.8083      -13433555      -381.5673      -281.02058     -456.3326      -56.366042      14.32913      -75.013651      5697.8804    
       200   400.82481      0.001          0.047189896    0.036861102    0.054738103   -456.58064      566.51622      566.51622      566.51622      1.8181807e+08  2.3918425     -13433206      -13433206       1193.5878     -13432012      -465.72806     -363.79079     -540.22307     -54.924777      13.046791     -76.016152      5679.6467    
       300   463.12389      0.0015         0.053496209    0.042938515    0.061362067   -519.11108      566.7992       566.7992       566.7992       1.8209066e+08  2.3882619     -13417610      -13417610       1379.1039     -13416231      -527.96653     -423.77019     -605.59652     -51.775672      13.507875     -74.40951       5417.6681    
       400   499.6275       0.002          0.060322813    0.049854539    0.068053055   -586.33245      567.08217      567.08217      567.08217      1.8236353e+08  2.3846885     -13415999      -13415999       1487.8054     -13414511      -595.33988     -492.02605     -671.63144     -52.452355      13.256488     -72.55942       5716.7018    
       500   509.1908       0.0025         0.067634698    0.057538231    0.0747999     -657.85946      567.36515      567.36515      567.36515      1.8263666e+08  2.3811221     -13400154      -13400154       1516.2832     -13398638      -667.50257     -567.85819     -738.21762     -52.57738       12.296152     -73.223823      5426.584     
       600   501.9442       0.003          0.075436791    0.065821509    0.082374954   -735.69621      567.64812      567.64812      567.64812      1.8291007e+08  2.3775629     -13398004      -13398004       1494.7041     -13396509      -744.50324     -649.60779     -812.97759     -50.120295      13.030258     -73.835047      5727.8325    
       700   487.53802      0.0035         0.082997398    0.073858399    0.089903215   -811.77403      567.9311       567.9311       567.9311       1.8318375e+08  2.3740108     -13389382      -13389382       1451.805      -13387931      -819.12063     -728.92573     -887.27574     -46.097764      15.000773     -73.582325      5432.3248    
       800   471.30853      0.004          0.090904613    0.081872802    0.097641409   -889.60877      568.21407      568.21407      568.21407      1.8345771e+08  2.3704657     -13386568      -13386568       1403.4763     -13385165      -897.15878     -808.02173     -963.64579     -44.032028      15.172092     -72.316105      5687.4921    
       900   455.07539      0.0045         0.098442146    0.089617682    0.10531697    -965.13462      568.49705      568.49705      568.49705      1.8373193e+08  2.3669277     -13370679      -13370679       1355.1368     -13369324      -971.54845     -884.45775     -1039.3976     -44.103291      13.541621     -70.541822      5445.177     
      1000   439.98449      0.005          0.10620405     0.097679287    0.11300562    -1042.4836      568.78002      568.78002      568.78002      1.8400643e+08  2.3633967     -13367196      -13367196       1310.1987     -13365885      -1048.1524     -964.01961     -1115.2788     -42.619444      11.646528     -69.088935      3540.294     
      1100   426.59161      0.0055         0.11382704     0.10532916     0.12000112    -1115.7408      569.063        569.063        569.063        1.8428121e+08  2.3598728     -13364612      -13364612       1270.317      -13363342      -1123.3855     -1039.5179     -1184.319      -41.614422      12.60746      -68.014524      5041.4813    
      1200   415.30727      0.006          0.12070088     0.11233488     0.12646466    -1182.6644      569.34597      569.34597      569.34597      1.8455625e+08  2.3563558     -13360500      -13360500       1236.7141     -13359264      -1191.2251     -1108.6591     -1248.1092     -42.458295      15.766377     -66.737226      5747.572     
      1300   406.16278      0.0065         0.12657811     0.11838962     0.13247625    -1241.6942      569.62895      569.62895      569.62895      1.8483157e+08  2.3528459     -13345524      -13345524       1209.4834     -13344314      -1249.2288     -1168.4147     -1307.4389     -43.137732      16.389009     -63.963285      5415.0395    
      1400   398.57018      0.007          0.13239399     0.12448512     0.13875927    -1301.5491      569.91192      569.91192      569.91192      1.8510717e+08  2.3493429     -13340889      -13340889       1186.8739     -13339702      -1306.6271     -1228.5726     -1369.4475     -41.775324      14.745625     -63.548085      5755.2648    
      1500   392.3628       0.0075         0.13842142     0.13060558     0.14427331    -1359.6523      570.1949       570.1949       570.1949       1.8538303e+08  2.3458468     -13314628      -13314628       1168.3894     -13313460      -1366.1132     -1288.9769     -1423.8668     -38.696283      13.463478     -65.265837      5457.9162    
      1600   387.40887      0.008          0.14470821     0.13746511     0.15003512    -1421.8552      570.47787      570.47787      570.47787      1.8565917e+08  2.3423577     -13309477      -13309477       1153.6375     -13308324      -1428.159      -1356.6752     -1480.7315     -34.056737      13.764132     -65.121272      5766.2296    
      1700   383.01402      0.0085         0.1507059      0.14416436     0.15589882    -1482.915       570.76085      570.76085      570.76085      1.8593559e+08  2.3388755     -13296609      -13296609       1140.5503     -13295468      -1487.3516     -1422.7916     -1538.6018     -32.348624      12.970194     -63.619606      5466.7423    
      1800   379.07856      0.009          0.15675402     0.15029136     0.16209305    -1543.3454      571.04382      571.04382      571.04382      1.8621228e+08  2.3354002     -13290926      -13290926       1128.8312     -13289797      -1547.0419     -1483.2604     -1599.734      -33.223633      13.591836     -61.738521      5711.2193    
      1900   376.27969      0.0095         0.16255861     0.15551503     0.16755418    -1597.5913      571.3268       571.3268       571.3268       1.8648924e+08  2.3319318     -13269776      -13269776       1120.4967     -13268655      -1604.3288     -1534.814      -1653.6312     -33.309563      15.201965     -60.810815      5468.286     
      2000   374.47048      0.01           0.16830895     0.16100305     0.17290031    -1652.1501      571.60978      571.60978      571.60978      1.8676648e+08  2.3284702     -13263622      -13263622       1115.1092     -13262507      -1661.0802     -1588.9766     -1706.3934     -31.588568      16.326569     -59.134678      2287.8282    
      2100   373.74503      0.0105         0.17354947     0.16655222     0.1782689     -1705.3067      571.89275      571.89275      571.89275      1.87044e+08    2.3250155     -13253562      -13253562       1112.9489     -13252449      -1712.8001     -1643.7426     -1759.3773     -30.269896      17.047017     -55.384893      3827.6822    
      2200   373.6114       0.011          0.17894008     0.17220314     0.1834751     -1758.7575      572.17573      572.17573      572.17573      1.8732178e+08  2.3215677     -13246953      -13246953       1112.5509     -13245841      -1766.0013     -1699.5129     -1810.7584     -30.825517      15.128135     -52.581817      5729.0644    
      2300   373.92498      0.0115         0.18412078     0.17753342     0.18830086    -1809.2115      572.4587       572.4587       572.4587       1.8759985e+08  2.3181266     -13240136      -13240136       1113.4848     -13239023      -1817.1308     -1752.1186     -1858.385      -30.942565      14.033008     -52.275539      5776.7592    
      2400   375.09452      0.012          0.18865647     0.18256731     0.19274731    -1855.3206      572.74168      572.74168      572.74168      1.8787819e+08  2.3146923     -13221752      -13221752       1116.9674     -13220635      -1861.8946     -1801.7992     -1902.268      -28.778367      16.354143     -54.725593      5479.4989    
      2500   376.76644      0.0125         0.19340693     0.18778908     0.1977064     -1904.4409      573.02465      573.02465      573.02465      1.881568e+08   2.3112649     -13214556      -13214556       1121.9461     -13213434      -1908.778      -1853.3341     -1951.2105     -26.317701      19.103948     -55.347383      5775.3907    
      2600   377.83275      0.013          0.19780201     0.19228808     0.2027208     -1950.1962      573.30763      573.30763      573.30763      1.8843569e+08  2.3078442     -13185458      -13185458       1125.1214     -13184332      -1952.1541     -1897.7358     -2000.6988     -24.476893      20.738663     -54.423733      5490.3389    
      2700   378.84082      0.0135         0.20251332     0.19699208     0.2071498     -1995.7404      573.5906       573.5906       573.5906       1.8871485e+08  2.3044302     -13177864      -13177864       1128.1233     -13176735      -1998.651      -1944.1607     -2044.4096     -25.239135      20.35906      -52.843881      5792.9631    
      2800   380.25017      0.014          0.20670086     0.20127578     0.21070094    -2035.291       573.87358      573.87358      573.87358      1.8899429e+08  2.3010229     -13165254      -13165254       1132.3201     -13164121      -2039.9788     -1986.4375     -2079.4566     -26.660147      19.17096      -48.927793      5449.3778    
      2900   382.21357      0.0145         0.21100307     0.20547866     0.2144259     -2075.5247      574.15655      574.15655      574.15655      1.8927401e+08  2.2976224     -13157319      -13157319       1138.1667     -13156181      -2082.4384     -2027.9167     -2116.2191     -25.382605      17.967754     -45.982581      5795.6997    
      3000   384.70993      0.015          0.21517613     0.20959291     0.21849481    -2116.1736      574.43953      574.43953      574.43953      1.89554e+08    2.2942286     -13145402      -13145402       1145.6005     -13144257      -2123.6233     -2068.5212     -2156.3762     -20.792186      17.862864     -45.94732       1484.1196    
      3100   387.16422      0.0155         0.21940656     0.21394487     0.22306327    -2159.4365      574.7225       574.7225       574.7225       1.8983426e+08  2.2908414     -13137136      -13137136       1152.9089     -13135983      -2165.3744     -2111.4717     -2201.4634     -17.80937       19.591345     -46.058017      2772.2969    
      3200   388.97844      0.016          0.223265       0.21798326     0.22689676    -2198.0263      575.00548      575.00548      575.00548      1.9011481e+08  2.287461      -13116253      -13116253       1158.3114     -13115095      -2203.4543     -2151.3275     -2239.297      -16.56451       21.816932     -43.045892      5378.2097    
      3300   390.77823      0.0165         0.22689527     0.22206031     0.2303038     -2234.5896      575.28845      575.28845      575.28845      1.9039563e+08  2.2840871     -13107661      -13107661       1163.6708     -13106497      -2239.2822     -2191.5648     -2272.9218     -15.78544       23.429749     -40.10375       5814.2412    
      3400   392.80949      0.017          0.2300137      0.22550501     0.2330651     -2265.2646      575.57143      575.57143      575.57143      1.9067672e+08  2.2807199     -13080418      -13080418       1169.7196     -13079249      -2270.0588     -2225.5614     -2300.1737     -15.388419      24.873714     -38.388344      5509.9977    
      3500   394.92635      0.0175         0.23338737     0.22883931     0.23616914    -2297.5436      575.8544       575.8544       575.8544       1.9095809e+08  2.2773593     -13071556      -13071556       1176.0232     -13070380      -2303.3542     -2258.4684     -2330.8082     -15.749263      24.906698     -37.36739       5773.7314    
      3600   397.21806      0.018          0.23671284     0.231964       0.23929642    -2329.0509      576.13738      576.13738      576.13738      1.9123974e+08  2.2740053     -13055212      -13055212       1182.8476     -13054029      -2336.1741     -2289.3066     -2361.6721     -17.76526       22.107314     -35.413515      5509.2193    
      3700   399.89061      0.0185         0.23996755     0.23544707     0.24240059    -2361.4284      576.42035      576.42035      576.42035      1.9152167e+08  2.2706579     -13046090      -13046090       1190.806      -13044899      -2368.2956     -2323.6819     -2392.3078     -16.700928      19.033529     -37.361406      5820.0659    
      3800   403.23512      0.019          0.24287918     0.2384814      0.24546724    -2391.0777      576.70333      576.70333      576.70333      1.9180387e+08  2.2673171     -13026769      -13026769       1200.7653     -13025569      -2397.0312     -2353.6285     -2422.5733     -12.984618      19.209221     -38.130777      5520.4723    
      3900   406.1081       0.0195         0.24641554     0.2417852      0.24894622    -2425.025       576.9863       576.9863       576.9863       1.9208635e+08  2.2639828     -13017403      -13017403       1209.3206     -13016194      -2431.9323     -2386.2344     -2456.9082     -12.040883      23.292277     -33.749899      5828.694     
      4000   407.5962       0.02           0.24995787     0.24514287     0.25256022    -2459.6133      577.26928      577.26928      577.26928      1.9236911e+08  2.260655      -13005031      -13005031       1213.7519     -13003817      -2466.8924     -2419.372      -2492.5755     -13.746654      25.902797     -29.503369      3327.3968    
      4100   408.90477      0.0205         0.25275335     0.2481692      0.2554345     -2488.2212      577.55225      577.55225      577.55225      1.9265214e+08  2.2573338     -12995369      -12995369       1217.6486     -12994151      -2494.4816     -2449.2396     -2520.9425     -14.432271      25.032808     -27.390959      5205.3235    
      4200   411.32706      0.021          0.25492081     0.25094963     0.25711924    -2510.0409      577.83523      577.83523      577.83523      1.9293546e+08  2.2540191     -12968550      -12968550       1224.8617     -12967325      -2515.8728     -2476.6803     -2537.5696     -12.657687      22.604076     -26.702597      5384.871     
      4300   413.85248      0.0215         0.25766782     0.25401223     0.25943864    -2536.7833      578.1182       578.1182       578.1182       1.9321905e+08  2.2507108     -12958695      -12958695       1232.382      -12957462      -2542.9837     -2506.9058     -2560.4603     -9.8712836      23.732553     -28.142138      5820.6506    
      4400   415.92697      0.022          0.26013324     0.25656389     0.26188515    -2561.3365      578.40118      578.40118      578.40118      1.9350291e+08  2.2474091     -12931183      -12931183       1238.5595     -12929944      -2567.3155     -2532.0887     -2584.6055     -9.5106009      27.97445      -28.40947       5521.57      
      4500   417.28667      0.0225         0.26252268     0.25933847     0.26481533    -2587.9644      578.68415      578.68415      578.68415      1.9378706e+08  2.2441137     -12921104      -12921104       1242.6085     -12919862      -2590.8974     -2559.4717     -2613.5241     -9.9323272      29.638954     -25.173601      5832.0814    
      4600   418.46149      0.023          0.26481734     0.2620059      0.26718638    -2612.0886      578.96713      578.96713      578.96713      1.9407148e+08  2.2408249     -12910917      -12910917       1246.1069     -12909671      -2613.5439     -2585.7972     -2636.9246     -10.591406      28.630484     -20.77982       5768.0888    
      4700   420.58845      0.0235         0.26718932     0.26403949     0.26845439    -2630.7532      579.2501       579.2501       579.2501       1.9435618e+08  2.2375424     -12876322      -12876322       1252.4406     -12875069      -2636.9536     -2605.8672     -2649.4388     -10.8275        26.559647     -20.101007      5512.8931    
      4800   423.41324      0.024          0.26967482     0.26614567     0.27030773    -2651.9557      579.53308      579.53308      579.53308      1.9464116e+08  2.2342663     -12865977      -12865977       1260.8523     -12864716      -2661.4835     -2626.6536     -2667.7299     -9.6944173      28.115733     -22.955461      5832.7795    
      4900   425.64386      0.0245         0.27174785     0.26820197     0.27273598    -2673.5284      579.81605      579.81605      579.81605      1.9492642e+08  2.2309967     -12853067      -12853067       1267.4947     -12851800      -2681.9428     -2646.9476     -2691.6948     -8.4423312      30.953118     -22.994156      5523.0338    
      5000   426.77185      0.025          0.27340106     0.27028517     0.27503075    -2693.3695      580.09903      580.09903      580.09903      1.9521196e+08  2.2277334     -12842524      -12842524       1270.8537     -12841253      -2698.2587     -2667.5073     -2714.3424     -7.7811258      30.314721     -18.322274      3795.1237    
      5100   427.6292       0.0255         0.27467481     0.27207507     0.27659871    -2708.6062      580.382        580.382        580.382        1.9549777e+08  2.2244765     -12830451      -12830451       1273.4067     -12829178      -2710.8296     -2685.1722     -2729.817      -6.7486524      28.731575     -14.508225      5465.8019    
      5200   429.03954      0.026          0.27618033     0.27369714     0.27773942    -2722.6479      580.66498      580.66498      580.66498      1.9578387e+08  2.2212259     -12819771      -12819771       1277.6065     -12818493      -2725.6879     -2701.1807     -2741.075      -5.6424247      28.169588     -13.200934      5848.0722    
      5300   430.5823       0.0265         0.27804754     0.27531025     0.27868693    -2737.2143      580.94795      580.94795      580.94795      1.9607024e+08  2.2179817     -12793481      -12793481       1282.2006     -12792198      -2744.1158     -2717.1009     -2750.4261     -6.4242895      27.376528     -11.998643      5032.6384    
      5400   431.51324      0.027          0.28010933     0.27739031     0.28042414    -2756.5549      581.23093      581.23093      581.23093      1.9635689e+08  2.2147437     -12782668      -12782668       1284.9727     -12781383      -2764.4641     -2737.6295     -2767.5711     -6.0686054      27.05912      -12.911172      5837.7382    
      5500   432.22709      0.0275         0.28172193     0.27910471     0.2821695     -2773.2417      581.5139       581.5139       581.5139       1.9664382e+08  2.2115121     -12768823      -12768823       1287.0985     -12767536      -2780.3792     -2754.5493     -2784.7965     -7.1541836      27.227828     -12.772494      5534.6815    
      5600   433.41351      0.028          0.28310542     0.28071777     0.2837443     -2788.2803      581.79688      581.79688      581.79688      1.9693104e+08  2.2082868     -12757859      -12757859       1290.6314     -12756569      -2794.0333     -2770.469      -2800.3385     -6.4684527      30.068678     -11.311055      5846.4287    
      5700   435.29845      0.0285         0.28377303     0.28193271     0.28487064    -2798.1787      582.07986      582.07986      582.07986      1.9721853e+08  2.2050677     -12726487      -12726487       1296.2444     -12725191      -2800.622      -2782.4595     -2811.4546     -2.8321146      34.742193     -11.28788       5498.7459    
      5800   437.25811      0.029          0.2848583      0.28341445     0.28591938    -2810.0736      582.36283      582.36283      582.36283      1.975063e+08   2.2018549     -12715416      -12715416       1302.08       -12714114      -2811.3328     -2797.0832     -2821.8049     -1.110288       35.523826     -11.080068      5860.7622    
      5900   438.67076      0.0295         0.28544501     0.28448807     0.28690574    -2818.7806      582.64581      582.64581      582.64581      1.9779435e+08  2.1986483     -12679816      -12679816       1306.2866     -12678510      -2817.1232     -2807.6789     -2831.5395     -2.1934823      31.160842     -9.1190034      5422.0191    
      6000   439.46572      0.03           0.28676138     0.28553656     0.28818755    -2830.7772      582.92878      582.92878      582.92878      1.9808268e+08  2.1954479     -12668648      -12668648       1308.6539     -12667339      -2830.1147     -2818.0268     -2844.19       -5.154686       26.878385     -7.6415417      3533.8184    
      6100   440.35475      0.0305         0.28784076     0.28642243     0.28907971    -2840.1773      583.21176      583.21176      583.21176      1.9837129e+08  2.1922538     -12648027      -12648027       1311.3012     -12646716      -2840.7675     -2826.7696     -2852.9949     -4.7895338      25.878086     -6.1746837      5401.4515    
      6200   441.563        0.031          0.2886157      0.28756342     0.28978384    -2848.7967      583.49473      583.49473      583.49473      1.9866018e+08  2.1890658     -12636772      -12636772       1314.8992     -12635457      -2848.4155     -2838.0303     -2859.9442     -2.1418841      27.367592     -4.009833       5811.8146    
      6300   442.49513      0.0315         0.28925198     0.28850264     0.29037872    -2855.9367      583.77771      583.77771      583.77771      1.9894935e+08  2.185884      -12618611      -12618611       1317.6749     -12617293      -2854.6951     -2847.2997     -2865.8152      0.73455907     29.380832     -1.0607586      5556.0954    
      6400   442.62052      0.032          0.2903503      0.28967237     0.29129269    -2866.4047      584.06068      584.06068      584.06068      1.992388e+08   2.1827084     -12607274      -12607274       1318.0483     -12605956      -2865.5346     -2858.844      -2874.8353      2.1580798      30.268087     -1.620888       5859.5747    
      6500   442.23807      0.0325         0.29133054     0.29036237     0.29186032    -2873.7667      584.34366      584.34366      584.34366      1.9952853e+08  2.1795389     -12592689      -12592689       1316.9095     -12591372      -2875.2089     -2865.6538     -2880.4374      1.5714628      31.163686     -4.4089193      5556.0815    
      6600   442.42753      0.033          0.29190931     0.2906948      0.29222194    -2877.954       584.62663      584.62663      584.62663      1.9981854e+08  2.1763756     -12581268      -12581268       1317.4736     -12579951      -2880.9209     -2868.9347     -2884.0064      1.7382329      32.260222     -5.4144836      5867.3436    
      6700   443.1576       0.0335         0.29224164     0.29123019     0.29309142    -2883.6689      584.90961      584.90961      584.90961      2.0010883e+08  2.1732184     -12569830      -12569830       1319.6477     -12568510      -2884.2008     -2874.2185     -2892.5874      2.8832198      31.962951     -4.4172525      5810.4493    
      6800   443.59768      0.034          0.29266433     0.29200038     0.29409356    -2890.8899      585.19258      585.19258      585.19258      2.0039941e+08  2.1700673     -12554680      -12554680       1320.9581     -12553359      -2888.3724     -2881.8197     -2902.4778      4.303686       31.24757      -0.5811574      5563.3863    
      6900   444.29204      0.0345         0.29294203     0.29277721     0.29472539    -2896.4377      585.47556      585.47556      585.47556      2.0069026e+08  2.1669222     -12543159      -12543159       1323.0258     -12541836      -2891.113      -2889.4865     -2908.7135      3.1892501      30.298488      4.5726675      5876.4015    
      7000   445.04092      0.035          0.29241267     0.29280883     0.29441589    -2893.782       585.75853      585.75853      585.75853      2.009814e+08   2.1637833     -12511144      -12511144       1325.2559     -12509818      -2885.8886     -2889.7985     -2905.659      -1.2492782      27.055575      6.5927363      3288.6972    
      7100   445.52468      0.0355         0.2925494      0.2928943      0.29380729    -2892.5109      586.04151      586.04151      586.04151      2.0127282e+08  2.1606504     -12499607      -12499607       1326.6964     -12498280      -2887.2381     -2890.642      -2899.6525     -1.9552404      25.409279      5.7188973      5303.602     
      7200   445.68919      0.036          0.29270156     0.29287767     0.29293349    -2890.0822      586.32448      586.32448      586.32448      2.0156452e+08  2.1575236     -12480924      -12480924       1327.1863     -12479597      -2888.7398     -2890.4779     -2891.0288      1.5027776      25.488127      1.8793707      5523.7901    
      7300   445.52914      0.0365         0.293002       0.29339173     0.29313905    -2893.4379      586.60746      586.60746      586.60746      2.018565e+08   2.1544027     -12469397      -12469397       1326.7097     -12468070      -2891.7049     -2895.5512     -2893.0575      4.5029081      26.940591      1.256861       5892.3655    
      7400   445.35737      0.037          0.29300353     0.29375659     0.29392285    -2897.2217      586.89043      586.89043      586.89043      2.0214876e+08  2.1512879     -12447768      -12447768       1326.1982     -12446442      -2891.72       -2899.1522     -2900.793       5.3060732      26.917451      0.17976569     5577.9734    
      7500   445.52052      0.0375         0.29288316     0.29374263     0.29469656    -2899.3251      587.17341      587.17341      587.17341      2.0244131e+08  2.1481792     -12436185      -12436185       1326.684      -12434858      -2890.5321     -2899.0143     -2908.4289      3.4656682      24.868661      0.36499048     5895.7234    
      7600   445.91418      0.038          0.29220868     0.29293853     0.29428048    -2893.0921      587.45638      587.45638      587.45638      2.0273414e+08  2.1450763     -12399637      -12399637       1327.8563     -12398309      -2883.8754     -2891.0785     -2904.3225      0.74266241     19.697009      3.8125146      5592.1371    
      7700   446.71322      0.0385         0.29200654     0.29263625     0.29352285    -2888.9404      587.73936      587.73936      587.73936      2.0302725e+08  2.1419795     -12388072      -12388072       1330.2357     -12386742      -2881.8805     -2888.0953     -2896.8453      1.3738448      18.560545      7.0244835      5913.9928    
      7800   446.98701      0.039          0.2921569      0.29294741     0.2928702     -2888.3116      588.02233      588.02233      588.02233      2.0332064e+08  2.1388886     -12371195      -12371195       1331.051      -12369864      -2883.3644     -2891.1662     -2890.4041      3.1938737      20.325165      7.7460571      5543.3181    
      7900   446.67622      0.0395         0.2922504      0.29320771     0.29247619    -2888.1793      588.30531      588.30531      588.30531      2.0361431e+08  2.1358037     -12359626      -12359626       1330.1255     -12358296      -2884.2872     -2893.7351     -2886.5156      5.9613639      22.945038      5.9176001      5905.2985    
      8000   446.20735      0.04           0.29169658     0.29275997     0.29181672    -2882.715       588.58828      588.58828      588.58828      2.0390827e+08  2.1327247     -12343216      -12343216       1328.7293     -12341888      -2878.8215     -2889.3163     -2880.0071      6.1801659      22.675705      5.9139475      3715.7195    
      8100   445.38182      0.0405         0.29100121     0.29191333     0.29128686    -2875.899       588.87126      588.87126      588.87126      2.0420251e+08  2.1296516     -12331649      -12331649       1326.271      -12330322      -2871.9586     -2880.9606     -2874.7778      4.2782032      21.013099      6.7409546      5887.1149    
      8200   444.58584      0.041          0.28999364     0.29065918     0.29044669    -2865.6946      589.15423      589.15423      589.15423      2.0449703e+08  2.1265844     -12311819      -12311819       1323.9007     -12310495      -2862.0147     -2868.583      -2866.486       1.7562984      19.921717      6.2440079      5598.8007    
      8300   444.23697      0.0415         0.28911819     0.28985229     0.28983916    -2858.1615      589.43721      589.43721      589.43721      2.0479184e+08  2.1235231     -12300317      -12300317       1322.8619     -12298995      -2853.3747     -2860.6197     -2860.4901      1.3488437      17.966805      4.7561438      5851.7795    
      8400   439.12979      0.042          0.28776452     0.28938638     0.28960045    -2851.3902      589.72018      589.72018      589.72018      2.0508693e+08  2.1204677     -12333486      -12333486       1307.6535     -12332179      -2840.015      -2856.0215     -2858.1342     -12.114707      22.938782      10.069851      5613.4139    
      8500   432.71257      0.0425         0.28750453     0.28966465     0.2895707     -2851.3525      590.00316      590.00316      590.00316      2.053823e+08   2.1174181     -12321961      -12321961       1288.5441     -12320673      -2837.4491     -2858.7679     -2857.8406     -9.4035511      25.356511      11.594924      5863.7858    
      8600   435.04836      0.043          0.28735249     0.28945108     0.28932903    -2849.3547      590.28613      590.28613      590.28613      2.0567795e+08  2.1143744     -12309097      -12309097       1295.4997     -12307801      -2835.9486     -2856.6601     -2855.4556     -7.6231432      25.421587      13.914811      5592.3276    
      8700   438.53458      0.0435         0.28677033     0.28833281     0.28846925    -2840.9323      590.56911      590.56911      590.56911      2.0597389e+08  2.1113365     -12297610      -12297610       1305.8811     -12296304      -2830.2031     -2845.6236     -2846.9701     -8.5034919      22.649288      15.79047       5856.7044    
      8800   441.21897      0.044          0.28561288     0.28647227     0.2870296     -2826.2678      590.85208      590.85208      590.85208      2.0627012e+08  2.1083044     -12272216      -12272216       1313.8747     -12270902      -2818.78       -2827.2614     -2832.7619     -8.130749       19.713154      16.696052      5598.1315    
      8900   441.82258      0.0445         0.28445935     0.2852731      0.28582438    -2814.5631      591.13506      591.13506      591.13506      2.0656662e+08  2.1052781     -12260820      -12260820       1315.6722     -12259504      -2807.3955     -2815.4266     -2820.8673     -6.4568646      18.411457      16.701692      5812.4274    
      9000   441.08495      0.045          0.28277971     0.28456778     0.28455366    -2802.5369      591.41803      591.41803      591.41803      2.0686342e+08  2.1022577     -12249457      -12249457       1313.4757     -12248143      -2790.8188     -2808.4656     -2808.3263     -5.8193864      20.383949      15.532469      2913.0665    
      9100   440.12657      0.0455         0.28108232     0.28368277     0.28302653    -2789.0176      591.70101      591.70101      591.70101      2.0716049e+08  2.0992429     -12232439      -12232439       1310.6218     -12231129      -2774.0668     -2799.7312     -2793.2547     -8.0211632      22.026127      13.920691      4183.4482    
      9200   439.26265      0.046          0.28033734     0.2826838      0.28206589    -2780.1202      591.98398      591.98398      591.98398      2.0745785e+08  2.096234      -12221170      -12221170       1308.0492     -12219862      -2766.7145     -2789.8722     -2783.7739     -10.76756       22.431639      13.222206      5883.4023    
      9300   438.26764      0.0465         0.27975134     0.28182681     0.28128096    -2772.7909      592.26696      592.26696      592.26696      2.0775549e+08  2.0932308     -12208908      -12208908       1305.0862     -12207603      -2760.931      -2781.4143     -2776.0272     -10.753394      22.613733      14.642821      5611.7582    
      9400   437.49483      0.047          0.27880227     0.28094475     0.28017718    -2763.1358      592.54994      592.54994      592.54994      2.0805342e+08  2.0902333     -12197682      -12197682       1302.7849     -12196379      -2751.5645     -2772.7091     -2765.1338     -6.7724578      22.410106      15.524066      5931.2991    
      9500   437.26224      0.0475         0.27736987     0.27964726     0.27875004    -2749.4602      592.83291      592.83291      592.83291      2.0835164e+08  2.0872416     -12169006      -12169006       1302.0923     -12167704      -2737.4278     -2759.9039     -2751.049      -2.3428         21.810129      16.390819      5669.6156    
      9600   436.95666      0.048          0.27623352     0.27827896     0.27796913    -2738.6516      593.11589      593.11589      593.11589      2.0865013e+08  2.0842555     -12157861      -12157861       1301.1823     -12156560      -2726.2128     -2746.3998     -2743.3421     -1.3372884      19.390715      17.081634      5940.7964    
      9700   436.10885      0.0485         0.2747491      0.27695639     0.27722011    -2726.9532      593.39886      593.39886      593.39886      2.0894892e+08  2.0812752     -12144761      -12144761       1298.6577     -12143463      -2711.5628     -2733.347      -2735.9498     -2.4724704      18.327229      16.458299      5666.0013    
      9800   435.41081      0.049          0.27338251     0.27535451     0.27584567    -2712.6661      593.68184      593.68184      593.68184      2.0924798e+08  2.0783005     -12133694      -12133694       1296.579      -12132397      -2698.0756     -2717.5377     -2722.3851     -6.8487946      18.827463      14.083358      5944.8186    
      9900   434.687        0.0495         0.27208003     0.27336147     0.27370467    -2694.7814      593.96481      593.96481      593.96481      2.0954734e+08  2.0753315     -12100988      -12100988       1294.4237     -12099694      -2685.2211     -2697.868      -2701.2551     -9.3758448      17.629489      12.374898      5634.9609    
     10000   433.50059      0.05           0.27080018     0.27200757     0.27234936    -2681.6584      594.24779      594.24779      594.24779      2.0984698e+08  2.0723682     -12090039      -12090039       1290.8907     -12088748      -2672.59       -2684.506      -2687.8792     -6.4625979      17.129961      12.987604      3882.9564    
     10100   431.7857       0.0505         0.26889392     0.27091031     0.2704082     -2665.3917      594.53076      594.53076      594.53076      2.101469e+08   2.0694105     -12061590      -12061590       1285.7841     -12060304      -2653.7767     -2673.6769     -2668.7215      0.35557594     17.706391      15.441128      5646.1346    
     10200   430.19917      0.051          0.26696865     0.26970856     0.26849138    -2648.7987      594.81374      594.81374      594.81374      2.1044711e+08  2.0664584     -12050738      -12050738       1281.0597     -12049457      -2634.7757     -2661.8165     -2649.8039      3.376617       18.743682      17.003397      5959.2422    
     10300   428.9949       0.0515         0.2652105      0.26800982     0.26632555    -2630.3014      595.09671      595.09671      595.09671      2.1074761e+08  2.0635119     -12030158      -12030158       1277.4736     -12028881      -2617.4241     -2645.0513     -2628.4289      0.71652266     18.172328      18.294519      5686.7699    
     10400   427.84727      0.052          0.26393566     0.26635358     0.26447783    -2614.5804      595.37969      595.37969      595.37969      2.1104839e+08  2.0605711     -12019431      -12019431       1274.0561     -12018157      -2604.8424     -2628.7055     -2610.1933     -2.4803582      16.965314      19.432461      5899.9309    
     10500   426.674        0.0525         0.2621458      0.26482186     0.26276413    -2598.0156      595.66266      595.66266      595.66266      2.1134946e+08  2.0576358     -11997036      -11997036       1270.5623     -11995765      -2587.1779     -2613.5885     -2593.2803     -2.5154994      15.471783      19.710048      5687.1017    
     10600   425.7098       0.053          0.26034092     0.26349205     0.26149856    -2583.5399      595.94564      595.94564      595.94564      2.1165081e+08  2.0547061     -11986427      -11986427       1267.6911     -11985159      -2569.3651     -2600.4643     -2580.7901     -2.3326401      14.041455      18.788536      5970.4462    
     10700   424.73028      0.0535         0.25848884     0.26182967     0.26042987    -2568.4625      596.22861      596.22861      596.22861      2.1195245e+08  2.0517819     -11965404      -11965404       1264.7742     -11964140      -2551.0865     -2584.0579     -2570.2429     -2.8674791      15.482938      16.62208       5681.068     
     10800   423.23217      0.054          0.25711067     0.26024628     0.25971052    -2556.3532      596.51159      596.51159      596.51159      2.1225438e+08  2.0488633     -11954887      -11954887       1260.3131     -11953626      -2537.485      -2568.4311     -2563.1435     -2.3868536      17.097961      12.264752      5967.8911    
     10900   421.91404      0.0545         0.25554071     0.25843412     0.25834297    -2540.728       596.79456      596.79456      596.79456      2.1255659e+08  2.0459502     -11932826      -11932826       1256.388      -11931570      -2521.9907     -2550.5464     -2549.6468     -1.7258802      18.623212      12.457722      5703.5591    
     11000   421.59632      0.055          0.25404569     0.25666148     0.25663739    -2524.3673      597.07754      597.07754      597.07754      2.1285909e+08  2.0430427     -11922408      -11922408       1255.4419     -11921153      -2507.236      -2533.0518     -2532.8141     -0.07141097     19.019756      15.973664      3437.9498    
     11100   421.24444      0.0555         0.25221328     0.254947       0.25462569    -2506.081       597.36051      597.36051      597.36051      2.1316188e+08  2.0401406     -11902528      -11902528       1254.394      -11901274      -2489.1516     -2516.1312     -2512.9601      1.5584943      18.795561      18.061455      5222.678     
     11200   419.55813      0.056          0.2504885      0.25374219     0.25255637    -2489.6359      597.64349      597.64349      597.64349      2.1346495e+08  2.0372441     -11892249      -11892249       1249.3725     -11891000      -2472.1293     -2504.2407     -2492.5376      2.8276377      15.740458      19.250423      5974.7618    
     11300   417.29247      0.0565         0.24866035     0.25195722     0.25036255    -2470.5325      597.92646      597.92646      597.92646      2.1376831e+08  2.034353      -11882029      -11882029       1242.6257     -11880786      -2454.0868     -2486.6245     -2470.8862      1.6460403      12.517034      19.244582      5976.9058    
     11400   415.09043      0.057          0.24670939     0.24964218     0.24832973    -2449.811       598.20944      598.20944      598.20944      2.1407196e+08  2.0314674     -11870185      -11870185       1236.0684     -11868949      -2434.8323     -2463.7768     -2450.8239     -1.1281366      11.577408      17.06229       5691.8442    
     11500   412.72331      0.0575         0.2451059      0.2476261      0.24703256    -2433.6362      598.49241      598.49241      598.49241      2.1437589e+08  2.0285872     -11860092      -11860092       1229.0195     -11858863      -2419.0071     -2443.8796     -2438.0218     -2.0615326      13.067165      15.211507      5931.3181    
     11600   410.69356      0.058          0.24352179     0.24579112     0.24584489    -2418.4811      598.77539      598.77539      598.77539      2.1468012e+08  2.0257125     -11847687      -11847687       1222.9753     -11846464      -2403.3732     -2425.7697     -2426.3005     -0.040071758    16.042293      15.083499      5711.75      
     11700   409.70768      0.0585         0.24178929     0.24412285     0.24434253    -2402.3511      599.05836      599.05836      599.05836      2.1498463e+08  2.0228432     -11837705      -11837705       1220.0395     -11836485      -2386.2748     -2409.3052     -2411.4733      1.8963592      16.855074      14.526921      5999.3681    
     11800   409.30032      0.059          0.2397028      0.24273696     0.24231652    -2384.2628      599.34134      599.34134      599.34134      2.1528943e+08  2.0199794     -11824423      -11824423       1218.8265     -11823205      -2365.6827     -2395.6275     -2391.4782      2.3949168      15.23965       14.252479      5715.9711    
     11900   408.67058      0.0595         0.23804975     0.24164804     0.24050736    -2369.2907      599.62431      599.62431      599.62431      2.1559451e+08  2.0171209     -11814568      -11814568       1216.9512     -11813351      -2349.3683     -2384.8807     -2373.6231      2.3105684      13.345998      16.236073      5995.5989    
     12000   407.38295      0.06           0.23669754     0.2401812      0.23875743    -2354.26        599.90729      599.90729      599.90729      2.1589989e+08  2.0142678     -11794199      -11794199       1213.1169     -11792986      -2336.0231     -2370.4042     -2356.3526      0.84922961     12.249674      17.793596      3309.8975    
     12100   405.40838      0.0605         0.23545207     0.23872595     0.23692078    -2339.3332      600.19026      600.19026      600.19026      2.1620555e+08  2.0114201     -11784448      -11784448       1207.2369     -11783241      -2323.7312     -2356.042      -2338.2263     -2.4079123      10.134477      14.812955      5812.4081    
     12200   403.44622      0.061          0.23351524     0.23668717     0.23485862    -2319.4704      600.47324      600.47324      600.47324      2.165115e+08   2.0085778     -11762570      -11762570       1201.394      -11761368      -2304.6162     -2335.9207     -2317.8744     -3.7000645      8.0349633      10.795312      5712.0606    
     12300   402.415        0.0615         0.23129071     0.23404101     0.23306936    -2297.5609      600.75621      600.75621      600.75621      2.1681774e+08  2.0057408     -11752962      -11752962       1198.3232     -11751764      -2282.6619     -2309.8052     -2300.2158     -1.281721       9.1289955      9.973886       6011.2367    
     12400   401.55441      0.062          0.22869017     0.23147765     0.23133519    -2274.868       601.03919      601.03919      601.03919      2.1712427e+08  2.0029092     -11724439      -11724439       1195.7605     -11723243      -2256.9965     -2284.5068     -2283.1008      2.1569793      9.9997054      11.553075      5729.2778    
     12500   399.88738      0.0625         0.22675109     0.22978258     0.23011936    -2258.9128      601.32216      601.32216      601.32216      2.1743109e+08  2.0000829     -11714980      -11714980       1190.7963     -11713789      -2237.8593     -2267.7777     -2271.1015      2.9915264      11.200321      14.780907      6020.8288    
     12600   397.45873      0.063          0.22511928     0.22823453     0.22875053    -2243.9488      601.60514      601.60514      601.60514      2.1773819e+08  1.9972619     -11697956      -11697956       1183.5642     -11696772      -2221.7545     -2252.4997     -2257.5922      3.5714324      11.302428      13.943115      5681.5996    
     12700   395.16937      0.0635         0.22377131     0.22691028     0.22693293    -2229.1784      601.88811      601.88811      601.88811      2.1804559e+08  1.9944462     -11688598      -11688598       1176.7469     -11687421      -2208.4511     -2239.4304     -2239.6538      2.3335298      9.7700182      11.167736      6019.0618    
     12800   393.63708      0.064          0.22229356     0.22521193     0.22449195    -2210.6997      602.17109      602.17109      602.17109      2.1835327e+08  1.9916358     -11657210      -11657210       1172.184      -11656038      -2193.8669     -2222.6689     -2215.5633     -0.46999242     6.954486       8.8783474      5740.0879    
     12900   392.44459      0.0645         0.22108003     0.22372989     0.22283687    -2196.3872      602.45406      602.45406      602.45406      2.1866125e+08  1.9888307     -11647980      -11647980       1168.633      -11646811      -2181.8902     -2208.0423     -2199.2289     -0.42268822     4.5652703      8.9425127      6021.559     
     13000   391.40802      0.065          0.21946864     0.22180332     0.22125652    -2179.5492      602.73704      602.73704      602.73704      2.1896951e+08  1.9860309     -11627707      -11627707       1165.5463     -11626542      -2165.9871     -2189.0286     -2183.6321     -0.88925361     4.8145754      5.9457134      2799.6437    
     13100   390.89614      0.0655         0.21761804     0.21998622     0.21985456    -2162.8714      603.02002      603.02002      603.02002      2.1927806e+08  1.9832362     -11618588      -11618588       1164.0219     -11617424      -2147.7231     -2171.0952     -2169.7958     -2.4157609      5.5297807      3.8221564      4776.4486    
     13200   390.22384      0.066          0.21567532     0.21836089     0.21835157    -2146.1889      603.30299      603.30299      603.30299      2.195869e+08   1.9804469     -11597274      -11597274       1162.02       -11596112      -2128.5499     -2155.0544     -2154.9625     -3.8197994      7.0554686      2.7133761      5738.3405    
     13300   388.32399      0.0665         0.21408579     0.21720467     0.21689574    -2132.3668      603.58597      603.58597      603.58597      2.1989604e+08  1.9776628     -11588269      -11588269       1156.3625     -11587113      -2112.8624     -2143.6434     -2140.5945     -4.6724578      7.4534249      2.5082892      6038.4202    
     13400   385.66902      0.067          0.21234601     0.21579818     0.21495082    -2115.6181      603.86894      603.86894      603.86894      2.2020546e+08  1.9748838     -11577482      -11577482       1148.4565     -11576334      -2095.6922     -2129.7625     -2121.3997     -3.260489       6.8705663      3.2251707      5753.4821    
     13500   383.52194      0.0675         0.21080977     0.2140012      0.21299509    -2098.2188      604.15192      604.15192      604.15192      2.2051517e+08  1.9721101     -11568595      -11568595       1142.0629     -11567453      -2080.5306     -2112.0277     -2102.0981     -0.56142292     7.1110746      5.3972724      6039.7794    
     13600   382.4557       0.068          0.20952994     0.21153086     0.2113719     -2080.5418      604.43489      604.43489      604.43489      2.2082517e+08  1.9693416     -11540537      -11540537       1138.8878     -11539398      -2067.8998     -2087.6473     -2086.0785      2.0420606      7.7023274      6.777307       5757.6477    
     13700   382.14188      0.0685         0.20862974     0.20982726     0.21038245    -2068.721       604.71787      604.71787      604.71787      2.2113547e+08  1.9665783     -11531774      -11531774       1137.9533     -11530636      -2059.0154     -2070.8341     -2076.3134      1.6567167      6.7916977      5.7995727      5992.2304    
     13800   381.60825      0.069          0.20748741     0.20865004     0.2094641     -2058.0691      605.00084      605.00084      605.00084      2.2144605e+08  1.9638201     -11523045      -11523045       1136.3642     -11521908      -2047.7415     -2059.2158     -2067.2499      1.9104423      4.685437       3.8437419      6032.6307    
     13900   380.07631      0.0695         0.20568196     0.20756582     0.20809513    -2044.0592      605.28382      605.28382      605.28382      2.2175692e+08  1.9610671     -11511016      -11511016       1131.8023     -11509884      -2029.9231     -2048.5154     -2053.7393      2.5281669      2.2041394      2.665754       5751.8946    
     14000   378.09078      0.07           0.20373723     0.20615585     0.20635903    -2027.3118      605.56679      605.56679      605.56679      2.2206809e+08  1.9583192     -11502374      -11502374       1125.8898     -11501248      -2010.7301     -2034.6001     -2036.6053      1.6128855      1.517635       1.8586407      3483.2467    
     14100   376.35157      0.0705         0.20209407     0.20413187     0.20418289    -2008.0889      605.84977      605.84977      605.84977      2.2237954e+08  1.9555765     -11482863      -11482863       1120.7107     -11481742      -1994.5134     -2014.625      -2015.1284     -0.5960907      0.31438671    -0.65230582     5731.3438    
     14200   374.45004      0.071          0.20126693     0.20257674     0.20243061    -1994.4873      606.13274      606.13274      606.13274      2.2269129e+08  1.9528388     -11474354      -11474354       1115.0483     -11473239      -1986.3502     -1999.277      -1997.8348     -2.4449701      0.080038742   -2.280885       6005.3553    
     14300   372.39788      0.0715         0.20022947     0.20133804     0.20102167    -1982.3642      606.41572      606.41572      606.41572      2.2300333e+08  1.9501063     -11459066      -11459066       1108.9373     -11457957      -1976.1112     -1987.0519     -1983.9296     -3.1784007      1.6693433     -2.6376694      5782.5763    
     14400   370.99361      0.072          0.19878525     0.20034933     0.19998294    -1970.9434      606.69869      606.69869      606.69869      2.2331566e+08  1.9473789     -11450636      -11450636       1104.7556     -11449531      -1961.8578     -1977.2942     -1973.6782     -2.2588808      3.71848        0.43847012     6072.8902    
     14500   370.58169      0.0725         0.19676906     0.19923278     0.19892478    -1957.1564      606.98167      606.98167      606.98167      2.2362828e+08  1.9446566     -11439453      -11439453       1103.529      -11438350      -1941.9596     -1966.2747     -1963.2349     -2.7851133      5.8709628      2.5537907      5789.1071    
     14600   370.00537      0.073          0.19528291     0.19814968     0.19816997    -1946.2211      607.26464      607.26464      607.26464      2.2394119e+08  1.9419393     -11431122      -11431122       1101.8128     -11430020      -1927.2925     -1955.5853     -1955.7856     -3.2873896      5.5738089      0.50371946     6073.9393    
     14700   368.58335      0.0735         0.19443732     0.19655255     0.19700667    -1934.3582      607.54762      607.54762      607.54762      2.242544e+08   1.9392271     -11413423      -11413423       1097.5783     -11412326      -1918.9472     -1939.8228     -1944.3047     -1.7548841      4.1076288     -4.2908827      5792.1011    
     14800   367.21151      0.074          0.19381388     0.19510456     0.19542121    -1922.328       607.83059      607.83059      607.83059      2.2456789e+08  1.9365199     -11405160      -11405160       1093.4932     -11404067      -1912.7943     -1925.5323     -1928.6574     -0.33666538     2.447059      -6.1521726      6036.9168    
     14900   366.30056      0.0745         0.19246556     0.19337783     0.19370357    -1906.5613      608.11357      608.11357      608.11357      2.2488168e+08  1.9338178     -11379008      -11379008       1090.7805     -11377917      -1899.4874     -1908.4908     -1911.7056     -0.584211       0.4202835     -5.6321828      5800.3893    
     15000   365.43507      0.075          0.19103235     0.19189267     0.19259583    -1893.3164      608.39654      608.39654      608.39654      2.2519576e+08  1.9311207     -11370855      -11370855       1088.2032     -11369767      -1885.3427     -1893.8334     -1900.773      -0.93768825    -0.066563521   -3.2973814      3391.948     
     15100   364.23815      0.0755         0.1896171      0.19050094     0.19138285    -1880.0918      608.67952      608.67952      608.67952      2.2551013e+08  1.9284286     -11345809      -11345809       1084.639      -11344725      -1871.3753     -1880.0981     -1888.8019     -1.6454186      0.71507394    -0.88868037     5034.9897    
     15200   362.63909      0.076          0.18872039     0.18976514     0.1904932     -1871.7945      608.96249      608.96249      608.96249      2.258248e+08   1.9257415     -11337741      -11337741       1079.8773     -11336661      -1862.5255     -1872.8364     -1880.0217     -1.3601505      0.23731901    -0.47943094     6093.2816    
     15300   361.31448      0.0765         0.18754785     0.1890596      0.18945874    -1862.213       609.24547      609.24547      609.24547      2.2613976e+08  1.9230595     -11326504      -11326504       1075.9328     -11325428      -1850.9534     -1865.8732     -1869.8124      0.0086021648   0.55476548    -2.6498485      5754.2015    
     15400   360.87672      0.077          0.18650925     0.18828606     0.18857191    -1853.3341      609.52844      609.52844      609.52844      2.2645501e+08  1.9203823     -11318493      -11318493       1074.6293     -11317419      -1840.7032     -1858.2389     -1861.0601      0.75597929     2.5313359     -4.8101896      5950.889     
     15500   360.62501      0.0775         0.18579965     0.18742016     0.18789568    -1845.9264      609.81142      609.81142      609.81142      2.2677055e+08  1.9177102     -11308382      -11308382       1073.8797     -11307308      -1833.6999     -1849.6931     -1854.3862     -0.86493761     3.9908918     -5.5500101      5798.4225    
     15600   359.68003      0.078          0.18518067     0.18673862     0.18689632    -1838.3604      610.09439      610.09439      610.09439      2.2708639e+08  1.915043      -11300416      -11300416       1071.0657     -11299345      -1827.5911     -1842.9669     -1844.5232     -2.8923315      4.757228      -6.8482778      6110.0157    
     15700   358.33765      0.0785         0.1839669      0.18527182     0.18521594    -1824.014       610.37737      610.37737      610.37737      2.2740252e+08  1.9123808     -11279876      -11279876       1067.0683     -11278809      -1815.6121     -1828.4907     -1827.9392     -4.1702946      4.4703937     -7.0152564      5822.8896    
     15800   357.1984       0.079          0.18257784     0.18373876     0.18390434    -1810.0862      610.66034      610.66034      610.66034      2.2771894e+08  1.9097234     -11272010      -11272010       1063.6758     -11270946      -1801.9031     -1813.3606     -1814.9947     -4.4674218      2.7701617     -5.4849475      6109.9567    
     15900   355.94067      0.0795         0.1813586      0.18214322     0.18305958    -1798.0472      610.94332      610.94332      610.94332      2.2803566e+08  1.9070711     -11251919      -11251919       1059.9305     -11250859      -1789.8702     -1797.6138     -1806.6576     -3.5377682      1.9043983     -4.5261568      5769.411     
     16000   354.51383      0.08           0.18039779     0.18118322     0.18249041    -1789.8558      611.22629      611.22629      611.22629      2.2835267e+08  1.9044236     -11244130      -11244130       1055.6817     -11243074      -1780.3878     -1788.1393     -1801.0403     -1.8968239      2.7417641     -3.1243924      3684.6999    
     16100   353.63405      0.0805         0.17963597     0.18028181     0.18171642    -1781.838       611.50927      611.50927      611.50927      2.2866997e+08  1.901781      -11236362      -11236362       1053.0618     -11235309      -1772.8692     -1779.2432     -1793.4016      0.6894221      4.7972996     -1.9292991      6104.3085    
     16200   353.06002      0.081          0.17900528     0.1793764      0.18072718    -1773.5303      611.79224      611.79224      611.79224      2.2898757e+08  1.8991433     -11224945      -11224945       1051.3524     -11223894      -1766.6447     -1770.3074     -1783.6386      2.9851535      6.0833843     -2.5391128      5806.9598    
     16300   352.51932      0.0815         0.17838826     0.17863725     0.17986394    -1766.229       612.07522      612.07522      612.07522      2.2930546e+08  1.8965105     -11217225      -11217225       1049.7423     -11216175      -1760.5552     -1763.0126     -1775.1191      3.1958077      4.5664777     -2.9025116      6115.2333    
     16400   352.05547      0.082          0.17732684     0.17771081     0.17908737    -1757.1347      612.35819      612.35819      612.35819      2.2962364e+08  1.8938825     -11201251      -11201251       1048.3611     -11200203      -1750.0799     -1753.8693     -1767.4549      2.5257685      1.7957231     -4.7187173      5781.4553    
     16500   351.47692      0.0825         0.1764029      0.17674305     0.17855827    -1749.1709      612.64117      612.64117      612.64117      2.2994212e+08  1.8912594     -11193594      -11193594       1046.6383     -11192547      -1740.9613     -1744.3183     -1762.2331     -0.050049754    0.38408854    -6.5970718      6112.617     
     16600   350.59026      0.083          0.17542861     0.17593155     0.17771441    -1740.52        612.92414      612.92414      612.92414      2.302609e+08   1.8886411     -11181615      -11181615       1043.9979     -11180571      -1731.3458     -1736.3094     -1753.9048     -2.4352606      0.25145016    -6.8464962      5827.8981    
     16700   349.58621      0.0835         0.17461231     0.17544915     0.17656379    -1732.4624      613.20712      613.20712      613.20712      2.3057996e+08  1.8860277     -11174010      -11174010       1041.008      -11172969      -1723.2895     -1731.5485     -1742.5492     -2.8727988      1.026475      -5.8791678      6111.2539    
     16800   348.92517      0.084          0.17360876     0.17474715     0.17533172    -1722.7983      613.4901       613.4901       613.4901       2.3089933e+08  1.8834191     -11164600      -11164600       1039.0396     -11163561      -1713.3852     -1724.6203     -1730.3895     -1.8353932      3.799454      -4.3587076      5833.7683    
     16900   348.64692      0.0845         0.17284554     0.17385308     0.17452104    -1714.6794      613.77307      613.77307      613.77307      2.3121898e+08  1.8808153     -11157060      -11157060       1038.211      -11156022      -1705.8528     -1715.7965     -1722.3888      0.80570197     7.0435807     -3.211624       6118.0482    
     17000   348.00311      0.085          0.17217265     0.17291803     0.17397448    -1707.5916      614.05605      614.05605      614.05605      2.3153894e+08  1.8782163     -11147799      -11147799       1036.2938     -11146762      -1699.212      -1706.5683     -1716.9946      4.6756438      7.7138452     -3.5146911      2492.8953    
     17100   346.81332      0.0855         0.17157301     0.17225276     0.17340204    -1701.5472      614.33902      614.33902      614.33902      2.3185918e+08  1.8756221     -11140300      -11140300       1032.7509     -11139268      -1693.2939     -1700.0026     -1711.3451      4.9885154      6.3251367     -4.6710333      4182.6416    
     17200   345.8104       0.086          0.17094628     0.17165957     0.17265318    -1695.0704      614.622        614.622        614.622        2.3217973e+08  1.8730326     -11132188      -11132188       1029.7643     -11131159      -1687.1086     -1694.1483     -1703.9544      1.6015269      4.7508673     -5.1717842      5830.0227    
     17300   345.13749      0.0865         0.17042128     0.17097355     0.17196311    -1688.8163      614.90497      614.90497      614.90497      2.3250056e+08  1.8704479     -11124722      -11124722       1027.7605     -11123694      -1681.9272     -1687.3778     -1697.1439     -1.9221254      3.4526403     -5.3796574      6135.9951    
     17400   344.68811      0.087          0.16974864     0.17013534     0.17117689    -1681.2595      615.18795      615.18795      615.18795      2.328217e+08   1.867868      -11111955      -11111955       1026.4223     -11110929      -1675.2888     -1679.1052     -1689.3845     -3.6807278      2.3634859     -5.2653754      5796.335     
     17500   344.16661      0.0875         0.16891839     0.16942903     0.17043443    -1673.7621      615.47092      615.47092      615.47092      2.3314313e+08  1.8652928     -11104539      -11104539       1024.8694     -11103514      -1667.0949     -1672.1345     -1682.057      -2.3991909      3.7452788     -4.2326726      6138.9389    
     17600   343.49337      0.088          0.16777716     0.16869056     0.16935531    -1664.0284      615.7539       615.7539       615.7539       2.3346485e+08  1.8627224     -11086592      -11086592       1022.8646     -11085569      -1655.8318     -1664.8463     -1671.4069      0.93960226     6.1852687     -3.5388642      5850.8574    
     17700   342.98458      0.0885         0.16708765     0.16784516     0.16831132    -1655.5444      616.03687      616.03687      616.03687      2.3378687e+08  1.8601566     -11079244      -11079244       1021.3495     -11078222      -1649.0269     -1656.5029     -1661.1036      2.7363857      6.1350576     -3.0331177      6144.337     
     17800   342.58023      0.089          0.16661328     0.16687046     0.16714379    -1646.9365      616.31985      616.31985      616.31985      2.3410919e+08  1.8575956     -11064763      -11064763       1020.1454     -11063743      -1644.3452     -1646.8834     -1649.5809      2.1749368      5.6428798     -2.5923356      5852.1455    
     17900   342.14355      0.0895         0.16605561     0.16614999     0.16680275    -1641.6098      616.60282      616.60282      616.60282      2.344318e+08   1.8550393     -11057469      -11057469       1018.8451     -11056450      -1638.8414     -1639.7729     -1646.2152     -0.057852287    5.7515251     -3.0256327      6141.2492    
     18000   342.01294      0.09           0.16514189     0.16564451     0.16678042    -1636.8676      616.8858       616.8858       616.8858       2.3475471e+08  1.8524876     -11043318      -11043318       1018.4561     -11042300      -1629.8238     -1634.7843     -1645.9948     -1.4909762      7.1509701     -4.3728965      3695.3132    
     18100   341.86334      0.0905         0.1646443      0.165508       0.16671241    -1634.5578      617.16877      617.16877      617.16877      2.3507791e+08  1.8499407     -11036040      -11036040       1018.0106     -11035022      -1624.9129     -1633.437      -1645.3236     -1.5978271      9.11472       -4.4456095      6148.9773    
     18200   341.50579      0.091          0.16430618     0.16501918     0.16593607    -1629.2834      617.45175      617.45175      617.45175      2.3540142e+08  1.8473984     -11025093      -11025093       1016.9459     -11024076      -1621.5759     -1628.6127     -1637.6617     -0.11113891     9.7975099     -2.994868       5856.0675    
     18300   340.91309      0.0915         0.16386595     0.16444623     0.1649184     -1622.6025      617.73472      617.73472      617.73472      2.3572521e+08  1.8448608     -11017840      -11017840       1015.181      -11016825      -1617.2312     -1622.9581     -1627.6181      1.9169543      8.1176567     -1.4918572      6165.3855    
     18400   340.41806      0.092          0.16311885     0.16359634     0.16373809    -1613.4658      618.0177       618.0177       618.0177       2.3604931e+08  1.8423278     -11010621      -11010621       1013.7068     -11009607      -1609.8579     -1614.5703     -1615.9693      3.1080959      5.9831998     -1.373548       6163.8411    
     18500   339.87996      0.0925         0.16196016     0.16253549     0.16276013    -1602.9469      618.30067      618.30067      618.30067      2.363737e+08   1.8397994     -10987744      -10987744       1012.1045     -10986732      -1598.4225     -1604.1006     -1606.3175      3.30902        5.105247      -1.6383625      5865.0129    
     18600   338.91065      0.093          0.16095698     0.16199234     0.16219141    -1595.9889      618.58365      618.58365      618.58365      2.3669839e+08  1.8372757     -10980598      -10980598       1009.218      -10979589      -1588.5219     -1598.7401     -1600.7048      3.9575385      6.6475443     -2.2954762      6109.5413    
     18700   337.99582      0.0935         0.16037798     0.16145144     0.1617901     -1590.9845      618.86662      618.86662      618.86662      2.3702338e+08  1.8347566     -10971141      -10971141       1006.4938     -10970135      -1582.8076     -1593.4018     -1596.7442      2.6855601      7.631562      -2.6348177      5877.2494    
     18800   337.83245      0.094          0.16036872     0.16076421     0.16128185    -1587.0212      619.1496       619.1496       619.1496       2.3734866e+08  1.8322421     -10964012      -10964012       1006.0074     -10963006      -1582.7162     -1586.6194     -1591.7281     -0.19626622     6.4663318     -2.5349876      6170.5416    
     18900   338.10815      0.0945         0.16012359     0.16001651     0.16075942    -1582.0364      619.43257      619.43257      619.43257      2.3767424e+08  1.8297321     -10955879      -10955879       1006.8283     -10954872      -1580.2969     -1579.2402     -1586.5722     -3.6031588      5.28661       -1.5501483      5876.9848    
     19000   338.07171      0.095          0.15964347     0.15951841     0.16045136    -1577.8049      619.71555      619.71555      619.71555      2.3800012e+08  1.8272268     -10948776      -10948776       1006.7198     -10947769      -1575.5586     -1574.3243     -1583.5318     -5.1588645      5.4902472     -0.17576551     3759.1005    
     19100   337.90437      0.0955         0.15869341     0.15901507     0.15984962    -1571.044       619.99852      619.99852      619.99852      2.383263e+08   1.824726      -10927263      -10927263       1006.2215     -10926257      -1566.1822     -1569.3567     -1577.5931     -3.5130717      6.056023       1.8092116      5295.002     
     19200   338.09437      0.096          0.15794747     0.15864692     0.15922684    -1565.3301      620.2815       620.2815       620.2815       2.3865277e+08  1.8222298     -10920214      -10920214       1006.7873     -10919207      -1558.8203     -1565.7233     -1571.4467     -0.24696019     7.0495265      1.6920088      6180.3593    
     19300   338.14656      0.0965         0.15720532     0.15802335     0.15851379    -1558.4915      620.56447      620.56447      620.56447      2.3897954e+08  1.8197382     -10909365      -10909365       1006.9427     -10908358      -1551.4959     -1559.5692     -1564.4095      3.2993094      7.3588752      0.32557975     5883.6446    
     19400   337.69833      0.097          0.15673653     0.15722568     0.15790858    -1552.3342      620.84745      620.84745      620.84745      2.3930661e+08  1.8172511     -10902356      -10902356       1005.608      -10901350      -1546.8693     -1551.6968     -1558.4365      4.7568566      8.3672551     -0.51613277     6180.3628    
     19500   336.65281      0.0975         0.15606735     0.15631198     0.15730253    -1545.1332      621.13042      621.13042      621.13042      2.3963398e+08  1.8147685     -10889706      -10889706       1002.4946     -10888703      -1540.265      -1542.6793     -1552.4552      3.7639935      8.2512341     -2.4113764      5886.8931    
     19600   335.64677      0.098          0.1554388      0.15575236     0.15680662    -1539.593       621.4134       621.4134       621.4134       2.3996165e+08  1.8122904     -10882733      -10882733       999.49877     -10881733      -1534.0617     -1537.1563     -1547.561       0.72634767     7.6083286     -3.0176984      6185.4575    
     19700   335.04885      0.0985         0.15457823     0.15524787     0.15607098    -1532.6822      621.69637      621.69637      621.69637      2.4028962e+08  1.8098169     -10862991      -10862991       997.71825     -10861994      -1525.5685     -1532.1774     -1540.3008     -0.83590001     7.6966116     -3.0211265      5821.5652    
     19800   334.82962      0.099          0.15417149     0.15499043     0.15545104    -1528.4578      621.97935      621.97935      621.97935      2.4061788e+08  1.8073478     -10856058      -10856058       997.06542     -10855061      -1521.5543     -1529.6367     -1534.1825     -1.1285185      7.350853      -2.0077522      6195.5412    
     19900   334.81466      0.0995         0.15361898     0.1546514      0.15450055    -1522.398       622.26232      622.26232      622.26232      2.4094644e+08  1.8048832     -10826762      -10826762       997.02089     -10825765      -1516.1015     -1526.2907     -1524.8019     -1.4877564      7.0726809     -0.69331177     5900.9075    
     20000   334.73928      0.1            0.15347685     0.15425277     0.15392288    -1518.7187      622.5453       622.5453       622.5453       2.4127531e+08  1.8024232     -10819860      -10819860       996.79643     -10818863      -1514.6988     -1522.3565     -1519.1007     -1.1604075      5.2897357      0.20229618     3563.062     
     20100   334.95084      0.1005         0.15260875     0.15335643     0.153221      -1510.6051      622.82827      622.82827      622.82827      2.4160447e+08  1.7999675     -10792739      -10792739       997.4264      -10791741      -1506.1312     -1513.5102     -1512.1737     -1.012033       3.8612502      0.19640178     5890.5252    
     20200   335.15984      0.101          0.15210182     0.15280443     0.152854      -1505.9142      623.11125      623.11125      623.11125      2.4193393e+08  1.7975164     -10785889      -10785889       998.04877     -10784891      -1501.1283     -1508.0625     -1508.5517     -0.77291462     3.6266729      0.24734077     6149.1883    
     20300   335.01055      0.1015         0.1516612      0.15220542     0.15275568    -1502.1706      623.39422      623.39422      623.39422      2.4226369e+08  1.7950697     -10776529      -10776529       997.6042      -10775531      -1496.7797     -1502.1507     -1507.5813     -1.3220175      4.9948855     -0.34777836     5904.0078    
     20400   334.85531      0.102          0.15118657     0.15159101     0.15263517    -1498.1915      623.6772       623.6772       623.6772       2.4259375e+08  1.7926274     -10769696      -10769696       997.14192     -10768699      -1492.0954     -1496.0869     -1506.3921     -1.3281858      7.0721594     -1.2593781      6212.8055    
     20500   334.37088      0.1025         0.15069281     0.15093858     0.15209928    -1492.6579      623.96018      623.96018      623.96018      2.4292411e+08  1.7901896     -10750620      -10750620       995.69938     -10749624      -1487.2224     -1489.648      -1501.1032      0.063314146    9.1601969     -2.2978126      5908.6359    
     20600   333.6305       0.103          0.1500439      0.15050816     0.15149694    -1487.1256      624.24315      624.24315      624.24315      2.4325477e+08  1.7877561     -10743818      -10743818       993.49465     -10742824      -1480.8181     -1485.4        -1495.1585      1.9630831      8.9747131     -2.2138371      6212.1289    
     20700   333.47225      0.1035         0.1490341      0.1499404      0.15065724    -1479.1734      624.52613      624.52613      624.52613      2.4358572e+08  1.7853271     -10737042      -10737042       993.02341     -10736049      -1470.8523     -1479.7967     -1486.8713      2.350116       9.0291612     -1.8773307      6214.6182    
     20800   333.58594      0.104          0.14832171     0.14924726     0.14976127    -1471.6021      624.8091       624.8091       624.8091       2.4391698e+08  1.7829025     -10721003      -10721003       993.36198     -10720010      -1463.8214     -1472.956      -1478.0288      0.23422887     9.1691581     -2.114162       5868.4757    
     20900   333.31845      0.1045         0.148103       0.14892068     0.14923082    -1468.0632      625.09208      625.09208      625.09208      2.4424854e+08  1.7804823     -10714278      -10714278       992.56544     -10713286      -1461.663      -1469.7329     -1472.7937     -2.4012296      8.7686407     -1.9073004      6204.7946    
     21000   333.07297      0.105          0.14760213     0.14858781     0.14869803    -1463.5676      625.37505      625.37505      625.37505      2.445804e+08   1.7780664     -10701712      -10701712       991.83444     -10700720      -1456.7198     -1466.4477     -1467.5354     -3.6602288      7.7042969     -2.4428698      2451.6178    
     21100   333.38472      0.1055         0.14736987     0.14823417     0.148309      -1460.3604      625.65803      625.65803      625.65803      2.4491256e+08  1.7756549     -10695013      -10695013       992.76277     -10694021      -1454.4276     -1462.9575     -1463.6961     -2.2462187      7.3764565     -1.5260372      4126.5615    
     21200   333.48926      0.106          0.14722011     0.14761743     0.14813719    -1457.2736      625.941        625.941        625.941        2.4524502e+08  1.7732478     -10686827      -10686827       993.07407     -10685834      -1452.9495     -1456.8707     -1462.0004     -1.5080675      6.9774198     -0.3638113      5780.3178    
     21300   332.82153      0.1065         0.14689801     0.14708092     0.14796855    -1453.8942      626.22398      626.22398      626.22398      2.4557778e+08  1.770845      -10680138      -10680138       991.08568     -10679147      -1449.7707     -1451.5758     -1460.3361     -1.4324628      6.4583346     -0.96214765     6151.1332    
     21400   332.0171       0.107          0.14628886     0.14637586     0.14727365    -1447.2847      626.50695      626.50695      626.50695      2.4591085e+08  1.7684466     -10669107      -10669107       988.69024     -10668118      -1443.7588     -1444.6174     -1453.4779     -1.1178071      7.0574756     -1.3949605      5918.7459    
     21500   331.91816      0.1075         0.14564651     0.14568242     0.14655143    -1440.5144      626.78993      626.78993      626.78993      2.4624421e+08  1.7660525     -10662456      -10662456       988.3956      -10661468      -1437.4193     -1437.7737     -1446.3502     -0.0051129178   8.7529348     -0.56457711     6216.5688    
     21600   332.3449       0.108          0.14511261     0.14524158     0.14585084    -1435.003       627.0729       627.0729       627.0729       2.4657787e+08  1.7636627     -10651871      -10651871       989.66636     -10650882      -1432.1501     -1433.423      -1439.4359      1.8030589      10.172337     -0.82530843     5913.2179    
     21700   332.44655      0.1085         0.14466742     0.14515464     0.14556788    -1432.3215      627.35588      627.35588      627.35588      2.4691184e+08  1.7612772     -10645263      -10645263       989.96904     -10644273      -1427.7565     -1432.5649     -1436.6433      2.6406564      9.9524475     -2.1646902      6233.693     
     21800   332.3165       0.109          0.14404956     0.14490279     0.14520683    -1428.2727      627.63885      627.63885      627.63885      2.472461e+08   1.7588961     -10637359      -10637359       989.58181     -10636370      -1421.6586     -1430.0794     -1433.08        1.0216348      8.2889        -2.6729562      5928.8923    
     21900   332.49738      0.1095         0.14362412     0.14440053     0.14475094    -1423.721       627.92183      627.92183      627.92183      2.4758067e+08  1.7565192     -10630776      -10630776       990.12041     -10629786      -1417.4599     -1425.1224     -1428.5807     -1.7566342      7.8371153     -1.2902068      6171.889     
[...]
    244700   312.99131      1.2235         0.00024951782  0.00024158999  0.00033485145 -2.7171947      1258.3904      1258.3904      1258.3904      1.9927197e+09  0.2182345     -138731.89     -138731.89      932.03469     -137799.86     -2.4625494     -2.3843078     -3.3047269     -0.26164203    -0.45990906    -0.48969281     23734.421    
    244800   312.54041      1.224          0.0002460678   0.00024038436  0.000332349   -2.6936464      1258.6734      1258.6734      1258.6734      1.9940643e+09  0.21808734    -138758.63     -138758.63      930.69197     -137827.93     -2.4285004     -2.3724091     -3.2800296     -0.26644305    -0.44877178    -0.49156323     25848.389    
    244900   312.21576      1.2245         0.00024461115  0.00024119867  0.00033129605 -2.6880693      1258.9564      1258.9564      1258.9564      1.9954096e+09  0.21794032    -138784.6      -138784.6       929.72522     -137854.88     -2.4141243     -2.3804458     -3.2696378     -0.27796443    -0.44021656    -0.49438003     23729.291    
    245000   312.32426      1.225          0.00024574241  0.00024395034  0.00033225743 -2.7040059      1259.2394      1259.2394      1259.2394      1.9967554e+09  0.21779343    -138810.4      -138810.4       930.04831     -137880.35     -2.425289      -2.4076027     -3.2791259     -0.28219033    -0.42995361    -0.49548635     6955.1114    
    245100   312.83396      1.2255         0.0002476802   0.00024696305  0.00033455356 -2.7278454      1259.5223      1259.5223      1259.5223      1.9981018e+09  0.21764667    -138837.16     -138837.16      931.56611     -137905.6      -2.4444135     -2.4373358     -3.3017869     -0.28487795    -0.4221683     -0.49192173     20833.433    
    245200   313.49447      1.226          0.0002494033   0.00024846587  0.00033723658 -2.7472843      1259.8053      1259.8053      1259.8053      1.9994489e+09  0.21750004    -138865.66     -138865.66      933.53299     -137932.13     -2.4614192     -2.4521675     -3.3282663     -0.29769585    -0.42685892    -0.4847469      22384.39     
    245300   314.04755      1.2265         0.00025024574  0.00024765354  0.00033861779 -2.7519272      1260.0883      1260.0883      1260.0883      2.0007965e+09  0.21735354    -138895.25     -138895.25      935.17996     -137960.07     -2.4697334     -2.4441504     -3.3418977     -0.31862261    -0.44088683    -0.47891633     22483.364    
    245400   314.17772      1.227          0.00024870787  0.00024488352  0.00033717693 -2.7330153      1260.3713      1260.3713      1260.3713      2.0021447e+09  0.21720717    -138924.26     -138924.26      935.5676      -137988.69     -2.4545558     -2.4168125     -3.3276776     -0.33426094    -0.44926352    -0.4752207      25763.999    
    245500   313.69239      1.2275         0.00024557915  0.00024152601  0.00033356017 -2.699779       1260.6542      1260.6542      1260.6542      2.0034936e+09  0.21706094    -138951.87     -138951.87      934.12237     -138017.75     -2.4236778     -2.3836764     -3.2919829     -0.33977638    -0.44794299    -0.47173199     23753.697    
    245600   312.95722      1.228          0.00024521885  0.0002388853   0.00033045047 -2.6796763      1260.9372      1260.9372      1260.9372      2.004843e+09   0.21691483    -138979.14     -138979.14      931.93316     -138047.21     -2.4201219     -2.3576146     -3.2612926     -0.34935054    -0.44820137    -0.46925581     25895.378    
    245700   312.65217      1.2285         0.00024864169  0.00023756303  0.00032992313 -2.6848519      1261.2202      1261.2202      1261.2202      2.0061931e+09  0.21676886    -139007.04     -139007.04      931.02477     -138076.02     -2.4539027     -2.3445648     -3.2560881     -0.36480214    -0.45006881    -0.46670268     23751.22     
    245800   312.89712      1.229          0.00025033713  0.00023732477  0.0003312531  -2.6940209      1261.5032      1261.5032      1261.5032      2.0075438e+09  0.21662302    -139035.45     -139035.45      931.7542      -138103.7      -2.4706354     -2.3422134     -3.2692139     -0.36454575    -0.4373189     -0.45982651     25865.05     
    245900   313.17271      1.2295         0.00024770386  0.00023745383  0.00033238964 -2.6895216      1261.7861      1261.7861      1261.7861      2.0088951e+09  0.21647731    -139063.95     -139063.95      932.57485     -138131.38     -2.4446471     -2.343487      -3.2804307     -0.34689252    -0.41423368    -0.4508479      23778.21     
    246000   313.20667      1.23           0.00024528433  0.00023750237  0.00033195691 -2.6802981      1262.0691      1262.0691      1262.0691      2.0102469e+09  0.21633173    -139092.42     -139092.42      932.67599     -138159.75     -2.4207681     -2.3439662     -3.2761599     -0.33760523    -0.40752331    -0.44726983     1911.1502    
    246100   313.18843      1.2305         0.00024583591  0.00023708595  0.00033070777 -2.6766334      1262.3521      1262.3521      1262.3521      2.0115994e+09  0.21618628    -139120.93     -139120.93      932.62167     -138188.31     -2.4262118     -2.3398564     -3.2638319     -0.34252315    -0.42052699    -0.44837587     7832.1894    
    246200   313.21845      1.231          0.00024712338  0.0002357529   0.00033004262 -2.6742953      1262.6351      1262.6351      1262.6351      2.0129525e+09  0.21604096    -139149.49     -139149.49      932.71107     -138216.78     -2.4389182     -2.3267003     -3.2572674     -0.34521352    -0.43321147    -0.44723765     12759.418    
    246300   313.26119      1.2315         0.0002480422   0.00023433032  0.00033026015 -2.6733536      1262.918       1262.918       1262.918       2.0143062e+09  0.21589577    -139178.27     -139178.27      932.83832     -138245.43     -2.4479861     -2.3126604     -3.2594143     -0.33808799    -0.43656669    -0.44479146     16460.721    
    246400   313.34214      1.232          0.00024879571  0.00023386057  0.00033053673 -2.675197       1263.201       1263.201       1263.201       2.0156605e+09  0.21575071    -139207.52     -139207.52      933.07939     -138274.44     -2.4554228     -2.3080244     -3.2621438     -0.32911365    -0.43893339    -0.44645819     19787.741    
    246500   313.46211      1.2325         0.00024880156  0.00023445667  0.0003306158  -2.6774374      1263.484       1263.484       1263.484       2.0170154e+09  0.21560579    -139237.12     -139237.12      933.43665     -138303.69     -2.4554805     -2.3139075     -3.2629243     -0.32718456    -0.44797074    -0.45375131     22825.323    
    246600   313.58291      1.233          0.0002477248   0.00023560905  0.00033145819 -2.6804574      1263.767       1263.767       1263.767       2.018371e+09   0.21546099    -139266.88     -139266.88      933.79635     -138333.08     -2.4448537     -2.3252806     -3.271238      -0.33226233    -0.46091616    -0.46188572     25857.773    
    246700   313.71239      1.2335         0.00024559508  0.00023687255  0.00033397326 -2.6858817      1264.0499      1264.0499      1264.0499      2.0197271e+09  0.21531632    -139296.86     -139296.86      934.18192     -138362.68     -2.423835      -2.3377503     -3.2960598     -0.33740137    -0.47079251    -0.46546435     25750.896    
    246800   313.81117      1.234          0.00024303059  0.00023769464  0.00033652448 -2.6885425      1264.3329      1264.3329      1264.3329      2.0210838e+09  0.21517178    -139327.03     -139327.03      934.47608     -138392.55     -2.3985254     -2.3458638     -3.3212384     -0.33106248    -0.47507402    -0.46545605     23744.926    
    246900   313.75224      1.2345         0.00024127212  0.00023769226  0.00033619545 -2.6816673      1264.6159      1264.6159      1264.6159      2.0224412e+09  0.21502737    -139357.17     -139357.17      934.30059     -138422.87     -2.3811707     -2.3458402     -3.3179911     -0.3177227     -0.47968658    -0.46961966     25827.78     
    247000   313.45628      1.235          0.00024032855  0.00023697421  0.00033326272 -2.6665531      1264.8989      1264.8989      1264.8989      2.0237991e+09  0.21488309    -139386.98     -139386.98      933.41929     -138453.56     -2.3718584     -2.3387536     -3.2890473     -0.31117006    -0.48395773    -0.47944391     2004.2677    
    247100   313.075        1.2355         0.00023919247  0.00023648607  0.00033167466 -2.6559855      1265.1818      1265.1818      1265.1818      2.0251577e+09  0.21473893    -139416.2      -139416.2       932.28388     -138483.91     -2.3606462     -2.3339361     -3.2733744     -0.31156687    -0.47533178    -0.48696263     8640.3069    
    247200   312.90997      1.236          0.00023843927  0.00023665449  0.00033323035 -2.6591796      1265.4648      1265.4648      1265.4648      2.0265168e+09  0.21459491    -139445.08     -139445.08      931.79247     -138513.29     -2.3532126     -2.3355982     -3.2887279     -0.31281234    -0.45574158    -0.48651976     10845.74     
    247300   313.06993      1.2365         0.0002393643   0.00023747518  0.00033460462 -2.6694436      1265.7478      1265.7478      1265.7478      2.0278766e+09  0.21445102    -139474.17     -139474.17      932.26881     -138541.9      -2.362342      -2.3436978     -3.3022909     -0.3120061     -0.44441808    -0.48267672     16761.79     
    247400   313.3303       1.237          0.00024128517  0.00023829859  0.00033323729 -2.6739733      1266.0308      1266.0308      1266.0308      2.029237e+09   0.21430725    -139503.75     -139503.75      933.04414     -138570.7      -2.3812994     -2.3518243     -3.2887963     -0.30882252    -0.44896186    -0.47825385     17113.916    
    247500   313.45224      1.2375         0.00024252829  0.00023816771  0.0003320582  -2.6737535      1266.3137      1266.3137      1266.3137      2.030598e+09   0.21416361    -139533.71     -139533.71      933.40726     -138600.3      -2.3935682     -2.3505325     -3.2771597     -0.3077906     -0.45519569    -0.46952145     25740.774    
    247600   313.48547      1.238          0.00024235791  0.0002372933   0.00033367116 -2.6756226      1266.5967      1266.5967      1266.5967      2.0319596e+09  0.2140201     -139563.72     -139563.72      933.50621     -138630.22     -2.3918866     -2.3419028     -3.2930784     -0.30755625    -0.44893774    -0.45587816     23661.515    
    247700   313.49367      1.2385         0.00024082805  0.00023655504  0.00033606307 -2.6760298      1266.8797      1266.8797      1266.8797      2.0333218e+09  0.21387672    -139593.34     -139593.34      933.53063     -138659.81     -2.376788      -2.3346167     -3.3166846     -0.30154725    -0.43348605    -0.44350591     25734.925    
    247800   313.43201      1.239          0.00023995868  0.00023658012  0.00033704386 -2.6764789      1267.1627      1267.1627      1267.1627      2.0346846e+09  0.21373347    -139622.59     -139622.59      933.34701     -138689.24     -2.3682081     -2.3348643     -3.3263643     -0.28852134    -0.41985546    -0.43867196     23653.585    
    247900   313.40063      1.2395         0.00024178067  0.00023697213  0.00033709844 -2.6839419      1267.4456      1267.4456      1267.4456      2.036048e+09   0.21359034    -139652.19     -139652.19      933.25357     -138718.94     -2.3861897     -2.3387331     -3.3269029     -0.27380032    -0.41230768    -0.4421265      25925.817    
    248000   313.4504       1.24           0.00024444477  0.00023633825  0.00033664767 -2.6891379      1267.7286      1267.7286      1267.7286      2.0374121e+09  0.21344735    -139682.14     -139682.14      933.40178     -138748.73     -2.4124823     -2.3324772     -3.3224542     -0.26365614    -0.40459758    -0.45017791     3254.3312    
    248100   313.41781      1.2405         0.00024571224  0.0002348474   0.00033579708 -2.6856048      1268.0116      1268.0116      1268.0116      2.0387767e+09  0.21330448    -139711.5      -139711.5       933.30472     -138778.2      -2.4249912     -2.3177636     -3.3140595     -0.25984305    -0.39230434    -0.45858938     13627.604    
    248200   313.27699      1.241          0.00024569409  0.00023423427  0.00033548744 -2.6825094      1268.2946      1268.2946      1268.2946      2.040142e+09   0.21316173    -139740.31     -139740.31      932.88539     -138807.42     -2.4248122     -2.3117125     -3.3110036     -0.26367426    -0.37993769    -0.46310191     14842.091    
    248300   313.20292      1.2415         0.00024526491  0.00023546429  0.00033590894 -2.6865306      1268.5775      1268.5775      1268.5775      2.0415078e+09  0.21301912    -139769.17     -139769.17      932.66481     -138836.5      -2.4205765     -2.3238519     -3.3151635     -0.27163621    -0.37571956    -0.46285187     18043.702    
    248400   313.2639       1.242          0.00024473424  0.00023799603  0.00033603577 -2.6935309      1268.8605      1268.8605      1268.8605      2.0428743e+09  0.21287663    -139798.15     -139798.15      932.84639     -138865.31     -2.4153392     -2.3488382     -3.3164152     -0.27503629    -0.38290999    -0.4574262      22559.828    
    248500   313.39492      1.2425         0.00024416028  0.00024073252  0.00033569334 -2.6995185      1269.1435      1269.1435      1269.1435      2.0442414e+09  0.21273427    -139827.37     -139827.37      933.23657     -138894.13     -2.4096747     -2.3758452     -3.3130356     -0.27197891    -0.39686318    -0.44652805     25741.868    
    248600   313.52939      1.243          0.00024375603  0.00024211738  0.00033474503 -2.6996248      1269.4265      1269.4265      1269.4265      2.0456091e+09  0.21259204    -139857.03     -139857.03      933.63699     -138923.39     -2.4056849     -2.3895127     -3.3036766     -0.26475236    -0.4090435     -0.43566873     23532.092    
    248700   313.52937      1.2435         0.00024310011  0.0002410722   0.00033198699 -2.6849553      1269.7094      1269.7094      1269.7094      2.0469774e+09  0.21244993    -139886.59     -139886.59      933.63692     -138952.96     -2.3992116     -2.3791976     -3.2764568     -0.25502196    -0.41540174    -0.43384645     25916.599    
    248800   313.19083      1.244          0.00024089311  0.00023858857  0.00032771549 -2.6554722      1269.9924      1269.9924      1269.9924      2.0483463e+09  0.21230795    -139915.15     -139915.15      932.6288      -138982.52     -2.3774302     -2.3546861     -3.2343004     -0.24869174    -0.41666703    -0.4401413      25719.682    
    248900   312.51446      1.2445         0.00023663445  0.00023647177  0.00032416053 -2.6228037      1270.2754      1270.2754      1270.2754      2.0497158e+09  0.2121661     -139942.58     -139942.58      930.6147      -139011.96     -2.3354005     -2.3337949     -3.1992157     -0.25159092    -0.4153207     -0.44669671     23764.756    
    249000   311.84897      1.245          0.00023222183  0.00023613931  0.00032350052 -2.6050223      1270.5584      1270.5584      1270.5584      2.0510859e+09  0.21202437    -139969.09     -139969.09      928.63299     -139040.46     -2.2918513     -2.3305138     -3.1927019     -0.26131459    -0.42013479    -0.44673091     1744.0796    
    249100   311.62663      1.2455         0.0002296195   0.00023804253  0.00032561921 -2.6096924      1270.8413      1270.8413      1270.8413      2.0524567e+09  0.21188277    -139995.03     -139995.03      927.97089     -139067.06     -2.2661683     -2.3492971     -3.2136118     -0.27187212    -0.43800803    -0.43712842     8196.9457    
    249200   311.94743      1.246          0.00022898942  0.00024050482  0.00032802979 -2.6236501      1271.1243      1271.1243      1271.1243      2.053828e+09   0.21174129    -140021.05     -140021.05      928.92618     -139092.12     -2.2599498     -2.373598      -3.2374023     -0.27509648    -0.46264       -0.42381541     11702.988    
    249300   312.4642       1.2465         0.00022919406  0.00024096229  0.00032808215 -2.6260005      1271.4073      1271.4073      1271.4073      2.0552e+09     0.21159994    -140047.54     -140047.54      930.46504     -139117.08     -2.2619695     -2.3781129     -3.2379191     -0.26564596    -0.48186192    -0.41555659     15409.009    
    249400   312.70125      1.247          0.00022879069  0.00023906931  0.00032533939 -2.6094231      1271.6903      1271.6903      1271.6903      2.0565726e+09  0.21145872    -140074.3      -140074.3       931.17092     -139143.12     -2.2579886     -2.3594307     -3.2108502     -0.24839002    -0.48697219    -0.41616063     20882.821    
    249500   312.49362      1.2475         0.00022732281  0.00023628437  0.00032198501 -2.5843974      1271.9732      1271.9732      1271.9732      2.0579457e+09  0.21131762    -140100.89     -140100.89      930.55265     -139170.34     -2.2435017     -2.3319455     -3.177745      -0.23398022    -0.47534217    -0.42307457     23758.46     
    249600   312.07004      1.248          0.00022576442  0.00023404691  0.00032073199 -2.5677879      1272.2562      1272.2562      1272.2562      2.0593195e+09  0.21117665    -140126.94     -140126.94      929.29129     -139197.65     -2.2281216     -2.3098634     -3.1653786     -0.22843459    -0.45601292    -0.43104392     25782.406    
    249700   311.81743      1.2485         0.00022525024  0.00023371239  0.00032197932 -2.5690993      1272.5392      1272.5392      1272.5392      2.0606939e+09  0.2110358     -140152.24     -140152.24      928.53907     -139223.7      -2.2230471     -2.306562      -3.1776888     -0.22499612    -0.44001301    -0.43604353     23731.059    
    249800   311.95438      1.249          0.00022628622  0.00023533796  0.00032410433 -2.5848458      1272.8222      1272.8222      1272.8222      2.062069e+09   0.21089508    -140177.09     -140177.09      928.94687     -139248.14     -2.2332713     -2.3226051     -3.198661      -0.21710156    -0.43439949    -0.43844308     25686.913    
    249900   312.40068      1.2495         0.00022810478  0.00023729416  0.00032578282 -2.6027856      1273.1051      1273.1051      1273.1051      2.0634446e+09  0.21075448    -140202.25     -140202.25      930.27589     -139271.97     -2.2512192     -2.3419112     -3.2152264     -0.2065049     -0.4390661     -0.43733798     23716.954    
    250000   312.90183      1.25           0.00022890158  0.00023803099  0.00032654403 -2.610335       1273.3881      1273.3881      1273.3881      2.0648208e+09  0.21061401    -140228.36     -140228.36      931.76823     -139296.59     -2.2590829     -2.3491832     -3.222739      -0.19865027    -0.4456531     -0.43151636     4492.6215    
Loop time of 25.0438 on 1 procs for 250000 steps with 1000 atoms

Performance: 862.490 ns/day, 0.028 hours/ns, 9982.522 timesteps/s
89.8% CPU use with 1 MPI tasks x 1 OpenMP threads

MPI task timing breakdown:
Section |  min time  |  avg time  |  max time  |%varavg| %total
---------------------------------------------------------------
Pair    | 11.901     | 11.901     | 11.901     |   0.0 | 47.52
Neigh   | 0.67013    | 0.67013    | 0.67013    |   0.0 |  2.68
Comm    | 1.1518     | 1.1518     | 1.1518     |   0.0 |  4.60
Output  | 3.753      | 3.753      | 3.753      |   0.0 | 14.99
Modify  | 6.5933     | 6.5933     | 6.5933     |   0.0 | 26.33
Other   |            | 0.9747     |            |       |  3.89

Nlocal:           1000 ave        1000 max        1000 min
Histogram: 1 0 0 0 0 0 0 0 0 0
Nghost:            631 ave         631 max         631 min
Histogram: 1 0 0 0 0 0 0 0 0 0
Neighs:            130 ave         130 max         130 min
Histogram: 1 0 0 0 0 0 0 0 0 0

Total # of neighbors = 130
Ave neighs/atom = 0.13
Neighbor list builds = 1193
Dangerous builds = 0

# restart file
write_restart ./tensile/restart/restart_${usic}_${trial}.tensile.restart
write_restart ./tensile/restart/restart_1_${trial}.tensile.restart
write_restart ./tensile/restart/restart_1_1.tensile.restart
System init for write_restart ...
Generated 0 of 1 mixed pair_coeff terms from geometric mixing rule
Total wall time: 0:00:25
