LAMMPS (23 Jun 2022 - Update 1)
OMP_NUM_THREADS environment is not set. Defaulting to 1 thread. (src/comm.cpp:98)
  using 1 OpenMP thread(s) per MPI task
###

# Read restart info
read_restart ${read_res}
read_restart ./600400/equpmf71.res
Reading restart file ...
  restart file = 23 Jun 2022, LAMMPS = 23 Jun 2022
WARNING: Restart file used different # of processors: 4 vs. 1 (src/read_restart.cpp:654)
  restoring atom style atomic from restart
  orthogonal box = (2187.7309 2187.7309 2187.7309) to (2812.2691 2812.2691 2812.2691)
  1 by 1 by 1 MPI processor grid
  restoring pair style table from restart
  1000 atoms
  read_restart CPU = 0.039 seconds

# Settings
pair_style table/pgn spline 9941
pair_coeff 1 1 N20.txt DE_GNP 147.89 75.6
pair_coeff 2 2 N100.txt DE_GNP 473.9 115.92
WARNING: 3 of 9941 force values in table DE_GNP are inconsistent with -dE/dr.
WARNING:  Should only be flagged at inflection points (src/pair_table_pgn.cpp:478)
pair_coeff 1 2 mixed_potential.txt DE_GNP 391.2 95.66
WARNING: 1562 of 9941 force values in table DE_GNP are inconsistent with -dE/dr.
WARNING:  Should only be flagged at inflection points (src/pair_table_pgn.cpp:478)

# Neighbor list
neighbor 2.0 bin
neigh_modify delay 0 every 1 check yes

# Temperature
variable T equal ${Temp}
variable T equal 300

# Deformation
reset_timestep 0
variable tmp equal "lx"
variable L0 equal ${tmp}
variable L0 equal 624.538218478014
variable strain equal "(lx - v_L0)/v_L0"
variable stp equal "step"
variable tmpe equal "temp"
variable p1 equal "v_strain"
variable p2 equal "-pxx*1.01325/10000"
variable p3 equal "-pyy*1.01325/10000"
variable p4 equal "-pzz*1.01325/10000"
variable p5 equal "lx"
variable p6 equal "ly"
variable p7 equal "lz"
variable p8 equal "press"
variable p9 equal "epair"
variable p10 equal "etotal"

# Thermo
thermo_style custom step temp v_p1 v_p2 v_p3 v_p4 press lx ly lz vol density epair pe ke etotal pxx pyy pzz pxy pxz pyz spcpu
thermo ${ts_save}
thermo 100

# Dump
dump 1 all custom 1000 ./tensile/trajectory/trajectory_${usic}_${trial}_*.tensile.custom id type x y z ix iy iz
dump 1 all custom 1000 ./tensile/trajectory/trajectory_1_${trial}_*.tensile.custom id type x y z ix iy iz
dump 1 all custom 1000 ./tensile/trajectory/trajectory_1_1_*.tensile.custom id type x y z ix iy iz
dump_modify 1 sort id
dump 2 all cfg 1000 ./tensile/trajectory/ovito/dumpten.tens_*.cfg mass type xs ys zs fx fy fz
dump_modify 2 element N20 N100

fix 1 all nvt temp ${T} ${T} 100
fix 1 all nvt temp 300 ${T} 100
fix 1 all nvt temp 300 300 100
fix 2 all deform 1 x erate ${strain_rate} y erate ${strain_rate} z erate ${strain_rate} units box
fix 2 all deform 1 x erate 5e-6 y erate ${strain_rate} z erate ${strain_rate} units box
fix 2 all deform 1 x erate 5e-6 y erate 5e-6 z erate ${strain_rate} units box
fix 2 all deform 1 x erate 5e-6 y erate 5e-6 z erate 5e-6 units box
fix             def1 all print ${ts_save} "${p1} ${p2} ${p3} ${p4}" file tensile${N20}${N100}_${usic}_${trial}.txt screen no
fix             def1 all print 100 "${p1} ${p2} ${p3} ${p4}" file tensile${N20}${N100}_${usic}_${trial}.txt screen no
fix             def1 all print 100 "${p1} ${p2} ${p3} ${p4}" file tensile600${N100}_${usic}_${trial}.txt screen no
fix             def1 all print 100 "${p1} ${p2} ${p3} ${p4}" file tensile600400_${usic}_${trial}.txt screen no
fix             def1 all print 100 "${p1} ${p2} ${p3} ${p4}" file tensile600400_1_${trial}.txt screen no
fix             def1 all print 100 "${p1} ${p2} ${p3} ${p4}" file tensile600400_1_1.txt screen no

timestep       		${ts}
timestep       		1
run				${steps_tensile}
run				250000
Generated 0 of 1 mixed pair_coeff terms from geometric mixing rule
Unused restart file global fix info:
  fix style: npt, fix ID: 5
Neighbor list info ...
  update every 1 steps, delay 0 steps, check yes
  max neighbors/atom: 2000, page size: 100000
  master list distance cutoff = 117.92
  ghost atom cutoff = 117.92
  binsize = 58.96, bins = 11 11 11
  1 neighbor lists, perpetual/occasional/extra = 1 0 0
  (1) pair table/pgn, perpetual
      attributes: half, newton on
      pair build: half/bin/atomonly/newton
      stencil: half/bin/3d
      bin: standard
Per MPI rank memory allocation (min/avg/max) = 5.813 | 5.813 | 5.813 Mbytes
   Step          Temp           v_p1           v_p2           v_p3           v_p4          Press            Lx             Ly             Lz           Volume        Density         E_pair         PotEng         KinEng         TotEng          Pxx            Pyy            Pzz            Pxy            Pxz            Pyz           S/CPU     
         0   303.62958     -3.6406687e-16  0.023103138    0.021437869    0.036132153   -265.39406      624.53822      624.53822      624.53822      2.4359987e+08  2.0581627     -24978325      -24978325       904.15704     -24977421      -228.01025     -211.57531     -356.59662     -108.44376      69.534158     -19.972724      0            
       100   340.26265      0.0005         0.033349629    0.0312596      0.045731186   -362.99174      624.85049      624.85049      624.85049      2.4396546e+08  2.0550785     -24976811      -24976811       1013.2441     -24975798      -329.13524     -308.50827     -451.33171     -107.27574      68.402515     -18.54798       5755.9589    
       200   422.57841      0.001          0.041748865    0.039598015    0.053953439   -445.10344      625.16276      625.16276      625.16276      2.4433141e+08  2.0520005     -24954897      -24954897       1258.3663     -24953638      -412.02926     -390.80202     -532.47905     -104.4911       67.290627     -17.699065      5473.742     
       300   500.52511      0.0015         0.049316526    0.047197101    0.061301791   -519.17236      625.47503      625.47503      625.47503      2.4469772e+08  2.0489287     -24952908      -24952908       1490.4783     -24951417      -486.71627     -465.79917     -605.00164     -101.80291      66.975787     -16.294002      5783.782     
       400   545.20198      0.002          0.05631178     0.05450671     0.067932217   -588.0441       625.78729      625.78729      625.78729      2.450644e+08   2.045863      -24915073      -24915073       1623.5184     -24913449      -555.75406     -537.9394      -670.43886     -98.906895      63.43053      -18.255365      5520.8774    
       500   556.27094      0.0025         0.063964905    0.06236495     0.074951553   -662.16435      626.09956      626.09956      626.09956      2.4543144e+08  2.0428033     -24912486      -24912486       1656.4799     -24910829      -631.28453     -615.4942      -739.71432     -97.706488      59.866344     -19.882059      5785.7617    
       600   545.81374      0.003          0.071046916    0.068911729    0.082012149   -730.22714      626.41183      626.41183      626.41183      2.4579886e+08  2.0397498     -24876148      -24876148       1625.3401     -24874523      -701.17854     -680.10589     -809.39698     -96.112759      57.50337      -22.181316      5526.3873    
       700   525.86755      0.0035         0.078663944    0.076635093    0.090110114   -807.33334      626.7241       626.7241       626.7241       2.4616664e+08  2.0367024     -24872768      -24872768       1565.9438     -24871202      -776.35277     -756.32956     -889.31768     -94.257967      56.561994     -21.690655      5789.5153    
       800   504.90677      0.004          0.086148205    0.083979104    0.098034291   -882.18308      627.03637      627.03637      627.03637      2.4653478e+08  2.033661      -24833323      -24833323       1503.5261     -24831819      -850.21668     -828.80932     -967.52323     -91.178936      56.477973     -21.958192      5489.1792    
       900   485.47657      0.0045         0.094194764    0.091611641    0.10578623    -959.26518      627.34864      627.34864      627.34864      2.4690329e+08  2.0306257     -24829061      -24829061       1445.6663     -24827615      -929.63004     -904.1366      -1044.0289     -88.985819      56.426508     -21.23518       5804.9962    
      1000   467.96379      0.005          0.10120211     0.098903295    0.11239805    -1028.0564      627.66091      627.66091      627.66091      2.4727217e+08  2.0275964     -24777914      -24777914       1393.5163     -24776520      -998.78716     -976.09963     -1109.2825     -86.162201      56.075926     -21.997601      3853.6226    
      1100   452.56625      0.0055         0.10827684     0.10630308     0.11883452    -1096.8482      627.97318      627.97318      627.97318      2.4764142e+08  2.0245732     -24772804      -24772804       1347.665      -24771456      -1068.6094     -1049.1298     -1172.8056     -85.7915        53.759357     -21.474332      5769.7362    
      1200   439.2855       0.006          0.11468283     0.11302713     0.12496416    -1160.2077      628.28545      628.28545      628.28545      2.4801103e+08  2.0215559     -24727944      -24727944       1308.1172     -24726636      -1131.8315     -1115.4911     -1233.3004     -82.572759      52.175733     -19.449355      5540.5174    
      1300   428.16051      0.0065         0.12133308     0.11968594     0.13159793    -1225.8145      628.59772      628.59772      628.59772      2.4838102e+08  2.0185447     -24722079      -24722079       1274.9889     -24720804      -1197.4644     -1181.2083     -1298.7706     -80.0085        50.659173     -19.182768      5774.721     
      1400   418.78585      0.007          0.12777057     0.12621076     0.13775861    -1288.7242      628.90999      628.90999      628.90999      2.4875136e+08  2.0155394     -24701424      -24701424       1247.0727     -24700177      -1260.9975     -1245.6033     -1359.5718     -76.213103      48.418754     -20.640514      5558.2349    
      1500   410.95412      0.0075         0.13442469     0.13277151     0.14405026    -1352.8957      629.22226      629.22226      629.22226      2.4912208e+08  2.0125401     -24694838      -24694838       1223.7512     -24693614      -1326.6685     -1310.3529     -1421.6655     -73.817234      45.040836     -20.990358      5833.6492    
      1600   404.57499      0.008          0.14063746     0.13867808     0.15019426    -1412.9774      629.53452      629.53452      629.53452      2.4949317e+08  2.0095467     -24654102      -24654102       1204.7552     -24652898      -1387.9838     -1368.6462     -1482.3021     -71.605923      43.339727     -22.766221      5569.2637    
      1700   399.54414      0.0085         0.14695773     0.14483396     0.15658283    -1475.0375      629.84679      629.84679      629.84679      2.4986462e+08  2.0065593     -24646790      -24646790       1189.7742     -24645600      -1450.36       -1429.4        -1545.3524     -70.029371      43.407477     -21.520962      5841.8644    
      1800   396.03673      0.009          0.15259384     0.15061666     0.16227762    -1531.3369      630.15906      630.15906      630.15906      2.5023644e+08  2.0035778     -24618735      -24618735       1179.3297     -24617556      -1505.9841     -1486.4708     -1601.5556     -69.284443      43.709484     -21.60915       5573.6156    
      1900   393.53617      0.0095         0.15833887     0.1565687      0.16775678    -1587.8423      630.47133      630.47133      630.47133      2.5060863e+08  2.0006022     -24610760      -24610760       1171.8835     -24609589      -1562.6832     -1545.213      -1655.6307     -70.235859      44.224101     -22.002648      5788.4724    
      2000   390.91627      0.01           0.16410841     0.16236626     0.17292194    -1642.8871      630.7836       630.7836       630.7836       2.5098119e+08  1.9976324     -24586818      -24586818       1164.0819     -24585653      -1619.624      -1602.4304     -1706.6068     -69.180172      44.60577      -21.553779      3441.9529    
      2100   387.98601      0.0105         0.16990462     0.16824699     0.17820025    -1698.6656      631.09587      631.09587      631.09587      2.5135412e+08  1.9946686     -24578214      -24578214       1155.3561     -24577058      -1676.8282     -1660.4687     -1758.6997     -64.593353      42.273039     -17.953867      5617.922     
      2200   385.37098      0.011          0.17511949     0.1736761      0.18316064    -1749.9999      631.40814      631.40814      631.40814      2.5172742e+08  1.9917106     -24559039      -24559039       1147.569      -24557891      -1728.295      -1714.0499     -1807.6549     -60.477568      38.437803     -14.987769      5580.5751    
      2300   384.03714      0.0115         0.18008832     0.17839797     0.18814134    -1798.2651      631.72041      631.72041      631.72041      2.5210109e+08  1.9887585     -24539917      -24539917       1143.597      -24538774      -1777.3335     -1760.6511     -1856.8107     -59.543709      36.162941     -17.127776      5581.9965    
      2400   383.87326      0.012          0.18520395     0.18313624     0.19316718    -1847.2156      632.03268      632.03268      632.03268      2.5247513e+08  1.9858122     -24530455      -24530455       1143.109      -24529312      -1827.8208     -1807.4141     -1906.4119     -60.421653      34.422522     -19.340566      5812.2304    
      2500   384.29884      0.0125         0.19024502     0.18796119     0.19762078    -1894.3235      632.34495      632.34495      632.34495      2.5284953e+08  1.9828717     -24498814      -24498814       1144.3763     -24497669      -1877.5724     -1855.0327     -1950.3655     -61.182441      33.587306     -19.668174      5588.8271    
      2600   384.87134      0.013          0.19536241     0.19317499     0.20233521    -1943.8198      632.65722      632.65722      632.65722      2.5322431e+08  1.979937      -24488801      -24488801       1146.0811     -24487655      -1928.0771     -1906.4889     -1996.8933     -57.729766      33.859425     -17.877149      5869.4719    
      2700   385.36396      0.0135         0.19982403     0.19776512     0.20665018    -1987.7928      632.96948      632.96948      632.96948      2.5359946e+08  1.9770081     -24452318      -24452318       1147.5481     -24451170      -1972.1099     -1951.7899     -2039.4787     -54.665088      33.925486     -14.697349      5597.6944    
      2800   386.07855      0.014          0.20449133     0.20248697     0.2110754     -2033.2386      633.28175      633.28175      633.28175      2.5397497e+08  1.974085      -24441804      -24441804       1149.676      -24440654      -2018.1725     -1998.391      -2083.1522     -53.985052      33.159934     -12.733908      5880.1493    
      2900   386.98975      0.0145         0.20894922     0.2072254      0.21547704    -2077.9724      633.59402      633.59402      633.59402      2.5435086e+08  1.9711676     -24423618      -24423618       1152.3894     -24422465      -2062.1685     -2045.1557     -2126.5931     -54.547181      31.469505     -12.057357      5605.1889    
      3000   388.07779      0.015          0.21338336     0.2118602      0.21967874    -2121.6294      633.90629      633.90629      633.90629      2.5472712e+08  1.968256      -24412596      -24412596       1155.6294     -24411440      -2105.93       -2090.8976     -2168.0606     -53.566897      28.59536      -12.397512      3247.6647    
      3100   389.6214       0.0155         0.21747628     0.21595625     0.22366997    -2161.6991      634.21856      634.21856      634.21856      2.5510375e+08  1.9653501     -24396496      -24396496       1160.226      -24395335      -2146.324      -2131.3224     -2207.451      -52.024151      27.247102     -12.358054      4835.8168    
      3200   391.10345      0.016          0.22156468     0.21986679     0.22780029    -2201.6013      634.53083      634.53083      634.53083      2.5548075e+08  1.9624499     -24385009      -24385009       1164.6393     -24383844      -2186.6734     -2169.9165     -2248.2141     -49.493031      26.747834     -12.748355      5881.0556    
      3300   392.29844      0.0165         0.22494459     0.22361117     0.23143347    -2236.9907      634.8431       634.8431       634.8431       2.5585812e+08  1.9595554     -24350782      -24350782       1168.1978     -24349614      -2220.0305     -2206.8707     -2284.0708     -45.865275      25.195842     -12.173098      5613.3881    
      3400   393.93874      0.017          0.22863598     0.22765834     0.23490813    -2273.8793      635.15537      635.15537      635.15537      2.5623587e+08  1.9566667     -24338886      -24338886       1173.0823     -24337713      -2256.4617     -2246.8131     -2318.363      -43.630967      24.419191     -10.558894      5885.0552    
      3500   395.78366      0.0175         0.23232533     0.2315817      0.23806978    -2309.3241      635.46764      635.46764      635.46764      2.5661398e+08  1.9537836     -24301624      -24301624       1178.5761     -24300445      -2292.8727     -2285.5337     -2349.5661     -43.164507      24.18207      -8.4086787      5563.0747    
      3600   397.82594      0.018          0.2362543      0.23523311     0.24167404    -2346.1187      635.77991      635.77991      635.77991      2.5699247e+08  1.9509061     -24289307      -24289307       1184.6577     -24288123      -2331.6486     -2321.5703     -2385.1373     -44.073676      23.647464     -6.6548338      5889.5229    
      3700   400.06489      0.0185         0.23992321     0.23827063     0.24515902    -2379.6459      636.09218      636.09218      636.09218      2.5737133e+08  1.9480343     -24265506      -24265506       1191.3249     -24264314      -2367.858      -2351.5483     -2419.5315     -43.033055      21.834875     -5.7058364      5611.8524    
      3800   402.33151      0.019          0.24351497     0.24149169     0.24850636    -2413.0702      636.40444      636.40444      636.40444      2.5775056e+08  1.9451682     -24252802      -24252802       1198.0745     -24251604      -2403.3059     -2383.3377     -2452.5671     -40.129303      19.623179     -6.2292477      5895.737     
      3900   404.31844      0.0195         0.24666279     0.24462677     0.25158545    -2443.8687      636.71671      636.71671      636.71671      2.5813016e+08  1.9423076     -24237744      -24237744       1203.9913     -24236540      -2434.3724     -2414.2785     -2482.9553     -37.031635      17.72487      -6.5815905      5621.63      
      4000   406.1362       0.02           0.24951099     0.24785963     0.25435167    -2472.9741      637.02898      637.02898      637.02898      2.5851014e+08  1.9394527     -24224691      -24224691       1209.4043     -24223482      -2462.482      -2446.1844     -2510.2558     -34.828139      17.356998     -6.5313507      3920.9634    
      4100   408.24146      0.0205         0.25236873     0.25131966     0.25675543    -2501.6657      637.34125      637.34125      637.34125      2.5889048e+08  1.9366033     -24188461      -24188461       1215.6733     -24187245      -2490.6857     -2480.3322     -2533.9791     -34.064376      18.525904     -4.3244129      5611.2563    
      4200   410.75694      0.021          0.25553431     0.25460396     0.25949046    -2531.8816      637.65352      637.65352      637.65352      2.5927121e+08  1.9337596     -24175087      -24175087       1223.164      -24173863      -2521.9275     -2512.7457     -2560.9717     -33.13341       17.622691     -2.0705781      5898.5611    
      4300   412.77467      0.0215         0.25858737     0.25752963     0.26250992    -2561.4834      637.96579      637.96579      637.96579      2.596523e+08   1.9309214     -24139046      -24139046       1229.1725     -24137817      -2552.059      -2541.6198     -2590.7715     -31.776156      14.968137      1.3619064      5622.4401    
      4400   414.29529      0.022          0.26133104     0.26030028     0.26557786    -2589.7168      638.27806      638.27806      638.27806      2.6003377e+08  1.9280887     -24125324      -24125324       1233.7006     -24124090      -2579.1368     -2568.964      -2621.0497     -31.433388      13.446601      1.9070193      5774.5026    
      4500   415.89893      0.0225         0.26367542     0.26271065     0.26792016    -2613.0643      638.59033      638.59033      638.59033      2.6041561e+08  1.9252616     -24100353      -24100353       1238.476      -24099114      -2602.2741     -2592.7525     -2644.1664     -31.456018      15.198976      0.1273449      5611.2009    
      4600   417.81988      0.023          0.26628031     0.26492891     0.27003847    -2635.9         638.9026       638.9026       638.9026       2.6079782e+08  1.92244       -24086336      -24086336       1244.1962     -24085092      -2627.9824     -2614.645      -2665.0725     -30.13051       16.519718     -2.2319908      5845.9195    
      4700   419.54054      0.0235         0.26864869     0.26675369     0.27203093    -2656.2491      639.21487      639.21487      639.21487      2.6118041e+08  1.919624      -24033321      -24033321       1249.3201     -24032071      -2651.3564     -2632.6542     -2684.7366     -27.950381      14.900185     -1.5133348      5631.3415    
      4800   420.93816      0.024          0.27109741     0.26898547     0.27413308    -2678.5623      639.52714      639.52714      639.52714      2.6156337e+08  1.9168134     -24019055      -24019055       1253.482      -24017802      -2675.5234     -2654.6802     -2705.4832     -25.703939      12.051736      3.3626173      5914.854     
      4900   422.81099      0.0245         0.2733299      0.27137757     0.27600009    -2699.9179      639.8394       639.8394       639.8394       2.6194671e+08  1.9140083     -23996480      -23996480       1259.0589     -23995221      -2697.5563     -2678.2884     -2723.9091     -25.350607      9.0686073      6.1751563      5635.0238    
      5000   424.97381      0.025          0.27541029     0.27370451     0.27797313    -2720.9078      640.15167      640.15167      640.15167      2.6233042e+08  1.9112087     -23964904      -23964904       1265.4994     -23963639      -2718.0883     -2701.2535     -2743.3815     -24.458704      7.0932241      3.9709583      3811.9325    
      5100   427.12308      0.0255         0.27759245     0.27622828     0.28020278    -2743.724       640.46394      640.46394      640.46394      2.6271451e+08  1.9084145     -23950266      -23950266       1271.8996     -23948994      -2739.6245     -2726.1612     -2765.3864     -23.56737       6.6628793      1.6993577      5856.3844    
      5200   428.96894      0.026          0.27979044     0.27796748     0.2820761     -2762.8391      640.77621      640.77621      640.77621      2.6309897e+08  1.9056258     -23908834      -23908834       1277.3962     -23907557      -2761.3169     -2743.3257     -2783.8747     -25.69219       9.4616596     -1.3245849      5639.3357    
      5300   430.52993      0.0265         0.28187336     0.27970562     0.28387722    -2781.3346      641.08848      641.08848      641.08848      2.634838e+08   1.9028425     -23893955      -23893955       1282.0446     -23892673      -2781.8737     -2760.4798     -2801.6503     -26.237831      10.513665     -0.49981407     5353.6968    
      5400   431.98348      0.027          0.28304734     0.28105628     0.28507455    -2793.579       641.40075      641.40075      641.40075      2.6386901e+08  1.9000646     -23847617      -23847617       1286.373      -23846331      -2793.4601     -2773.8098     -2813.4671     -25.799931      9.6482627      1.9793407      5635.1419    
      5500   433.01448      0.0275         0.28435221     0.28241487     0.28637149    -2806.6077      641.71302      641.71302      641.71302      2.642546e+08   1.8972922     -23832570      -23832570       1289.4432     -23831280      -2806.3381     -2787.218      -2826.2669     -24.019271      7.7385746      4.3622669      5929.0171    
      5600   433.63486      0.028          0.28558941     0.28406711     0.28755959    -2820.0218      642.02529      642.02529      642.02529      2.6464056e+08  1.8945251     -23792565      -23792565       1291.2906     -23791273      -2818.5484     -2803.5244     -2837.9925     -22.552581      6.0015002      3.6643783      5612.4571    
      5700   434.37581      0.0285         0.28736324     0.28599647     0.28898215    -2836.8842      642.33756      642.33756      642.33756      2.6502689e+08  1.8917634     -23777330      -23777330       1293.497      -23776037      -2836.0547     -2822.5657     -2852.0321     -20.407125      5.4754565      2.0369826      5943.9745    
      5800   435.54084      0.029          0.28887435     0.28751085     0.29028662    -2851.1286      642.64983      642.64983      642.64983      2.6541361e+08  1.8890071     -23739594      -23739594       1296.9662     -23738297      -2850.9682     -2837.5115     -2864.9062     -18.177619      4.7085187      2.3951659      5667.0841    
      5900   437.08198      0.0295         0.2904129      0.28870259     0.29184767    -2865.246       642.9621       642.9621       642.9621       2.658007e+08   1.8862561     -23724176      -23724176       1301.5555     -23722875      -2866.1525     -2849.273      -2880.3126     -16.747601      3.888543       3.850361       5946.7705    
      6000   438.8952       0.03           0.29175815     0.28987267     0.29302974    -2877.4095      643.27437      643.27437      643.27437      2.6618816e+08  1.8835104     -23706167      -23706167       1306.955      -23704860      -2879.429      -2860.8208     -2891.9787     -16.190014      2.7566411      4.2809842      3767.9065    
      6100   440.47046      0.0305         0.29299481     0.29126204     0.29414495    -2889.7172      643.58663      643.58663      643.58663      2.66576e+08    1.8807701     -23690601      -23690601       1311.6458     -23689289      -2891.6339     -2874.5328     -2902.985      -15.1818        1.6845072      3.2923118      5925.2542    
      6200   441.34507      0.031          0.2937445      0.29236126     0.29487654    -2898.2064      643.8989       643.8989       643.8989       2.6696422e+08  1.8780351     -23627307      -23627307       1314.2503     -23625992      -2899.0328     -2885.3812     -2910.2052     -12.490722      0.80755405     2.5936485      5610.6138    
      6300   441.72875      0.0315         0.29479302     0.29361474     0.29600021    -2909.476       644.21117      644.21117      644.21117      2.6735281e+08  1.8753054     -23611596      -23611596       1315.3928     -23610280      -2909.3809     -2897.7522     -2921.295      -11.048362      0.61386131     2.6148467      5955.4161    
      6400   442.18504      0.032          0.29540016     0.29441009     0.29674096    -2916.5268      644.52344      644.52344      644.52344      2.6774178e+08  1.872581      -23574048      -23574048       1316.7515     -23572731      -2915.3729     -2905.6017     -2928.6056     -9.8712617      0.36085563     6.8634531      5675.0868    
      6500   443.24455      0.0325         0.29631109     0.29510333     0.29720571    -2923.3329      644.83571      644.83571      644.83571      2.6813113e+08  1.8698619     -23558227      -23558227       1319.9066     -23556908      -2924.3631     -2912.4434     -2933.1923     -9.377905       1.5330914      9.6576821      5958.3631    
      6600   444.38688      0.033          0.29720465     0.29566887     0.29743301    -2928.8808      645.14798      645.14798      645.14798      2.6852086e+08  1.867148      -23521963      -23521963       1323.3083     -23520639      -2933.1818     -2918.0249     -2935.4356     -9.7058481      2.7928385      11.369638      5680.41      
      6700   444.85896      0.0335         0.29806609     0.29633672     0.29813227    -2936.2122      645.46025      645.46025      645.46025      2.6891096e+08  1.8644394     -23506041      -23506041       1324.714      -23504716      -2941.6836     -2924.6161     -2942.3368     -9.0974263      2.4435821      10.16985       5953.6847    
      6800   444.87541      0.034          0.298503       0.29666213     0.29867244    -2940.497       645.77252      645.77252      645.77252      2.6930144e+08  1.861736      -23467286      -23467286       1324.763      -23465961      -2945.9955     -2927.8276     -2947.6678     -8.0770186      0.99030413     10.328357      5636.3825    
      6900   444.89014      0.0345         0.29896663     0.29737093     0.29934888    -2946.5793      646.08479      646.08479      646.08479      2.696923e+08   1.8590378     -23451284      -23451284       1324.8069     -23449959      -2950.5712     -2934.8229     -2954.3438     -7.2746487     -0.69277997     10.176951      5968.9102    
      7000   444.97153      0.035          0.29925788     0.29781347     0.29970425    -2950.1624      646.39706      646.39706      646.39706      2.7008354e+08  1.8563448     -23405332      -23405332       1325.0492     -23404007      -2953.4457     -2939.1905     -2957.851      -6.9940876     -3.9051351      12.622664      3839.2131    
      7100   445.7797       0.0355         0.29960093     0.29837187     0.30004522    -2954.2496      646.70933      646.70933      646.70933      2.7047515e+08  1.8536571     -23389264      -23389264       1327.4558     -23387937      -2956.8312     -2944.7014     -2961.2161     -5.5261611     -7.0615996      13.063528      5895.0133    
      7200   447.03906      0.036          0.29988665     0.29885707     0.30009709    -2956.9564      647.02159      647.02159      647.02159      2.7086714e+08  1.8509745     -23365745      -23365745       1331.206      -23364414      -2959.6511     -2949.49       -2961.728      -3.5720408     -8.5137941      12.45856       5644.2152    
      7300   447.92998      0.0365         0.30047583     0.29933203     0.30024682    -2960.9497      647.33386      647.33386      647.33386      2.7125951e+08  1.8482971     -23349611      -23349611       1333.859      -23348277      -2965.4658     -2954.1775     -2963.2057     -2.6912026     -5.3543169      11.352731      5928.9823    
      7400   447.9451       0.037          0.3005838      0.29957858     0.29984407    -2960.791       647.64613      647.64613      647.64613      2.7165226e+08  1.8456249     -23303876      -23303876       1333.904      -23302542      -2966.5314     -2956.6107     -2959.2309     -3.683631      -5.0256325      11.514351      5689.8276    
      7500   447.37513      0.0375         0.30072182     0.29959414     0.2997836     -2961.0973      647.9584       647.9584       647.9584       2.7204539e+08  1.8429578     -23287699      -23287699       1332.2068     -23286367      -2967.8936     -2956.7643     -2958.6341     -3.8014164     -6.0584935      13.086379      5973.9465    
      7600   446.1861       0.038          0.30058955     0.29912705     0.29954292    -2958.3338      648.27067      648.27067      648.27067      2.724389e+08   1.8402958     -23240104      -23240104       1328.666      -23238776      -2966.5882     -2952.1545     -2956.2588     -0.21753691    -6.9737837      14.462653      5697.1302    
      7700   445.48674      0.0385         0.30023448     0.29860147     0.29914256    -2954.1196      648.58294      648.58294      648.58294      2.7283279e+08  1.837639      -23201898      -23201898       1326.5834     -23200572      -2963.0839     -2946.9674     -2952.3075      2.1031235     -9.4418486      12.10259       5710.0348    
      7800   445.6527       0.039          0.30005072     0.29856208     0.29922653    -2953.6618      648.89521      648.89521      648.89521      2.7322706e+08  1.8349873     -23185720      -23185720       1327.0776     -23184393      -2961.2704     -2946.5787     -2953.1363      2.3972041     -11.825698      11.3939        5990.8885    
      7900   442.85557      0.0395         0.29713785     0.29652851     0.29854719    -2935.1544      649.20748      649.20748      649.20748      2.736217e+08   1.8323407     -23080378      -23080378       1318.7483     -23079059      -2932.5226     -2926.5089     -2946.4317     -1.5346774     -18.332024      5.9043591      5642.3971    
      8000   435.79474      0.04           0.29714797     0.29658494     0.29871041    -2935.9103      649.51975      649.51975      649.51975      2.7401673e+08  1.8296992     -23064238      -23064238       1297.7223     -23062940      -2932.6225     -2927.0658     -2948.0425     -0.53269802    -18.607174      6.1797837      2406.8639    
      8100   439.48828      0.0405         0.29704487     0.29630573     0.29813449    -2932.7579      649.83202      649.83202      649.83202      2.7441214e+08  1.8270627     -23018571      -23018571       1308.7211     -23017263      -2931.6049     -2924.3102     -2942.3586     -0.3160398     -19.344898      6.4242548      4026.5822    
      8200   443.77017      0.041          0.29688456     0.29617255     0.29745569    -2929.5594      650.14429      650.14429      650.14429      2.7480792e+08  1.8244313     -23002452      -23002452       1321.4718     -23001131      -2930.0228     -2922.9958     -2935.6594     -1.5157583     -19.948558      6.5567886      5980.6391    
      8300   446.14922      0.0415         0.29605237     0.29538003     0.29648479    -2921.0205      650.45655      650.45655      650.45655      2.7520409e+08  1.821805      -22957860      -22957860       1328.5562     -22956532      -2921.8097     -2915.1743     -2926.0774     -1.8451481     -21.449131      5.5494762      5663.6549    
      8400   447.0314       0.042          0.29535483     0.29450785     0.29587751    -2913.8587      650.76882      650.76882      650.76882      2.7560064e+08  1.8191837     -22941808      -22941808       1331.1832     -22940477      -2914.9255     -2906.5665     -2920.084      -1.4777554     -20.537478      5.6458955      6002.1387    
      8500   446.90554      0.0425         0.29478329     0.29370924     0.2952741     -2907.3662      651.08109      651.08109      651.08109      2.7599757e+08  1.8165674     -22903633      -22903633       1330.8084     -22902302      -2909.2849     -2898.6848     -2914.1288     -0.20069656    -20.747495      5.3011019      5732.3156    
      8600   446.12617      0.043          0.2943968      0.29338463     0.29488124    -2903.7344      651.39336      651.39336      651.39336      2.7639487e+08  1.8139561     -22887633      -22887633       1328.4875     -22886304      -2905.4706     -2895.4812     -2910.2515      0.6798175     -22.038579      5.884416       6006.699     
      8700   445.62838      0.0435         0.29399195     0.29294555     0.29435515    -2899.2274      651.70563      651.70563      651.70563      2.7679257e+08  1.8113499     -22862040      -22862040       1327.0052     -22860713      -2901.475      -2891.1478     -2905.0595      2.0019356     -24.208603      7.6182405      5730.7963    
      8800   445.23158      0.044          0.29355246     0.29247041     0.29377926    -2894.324       652.0179       652.0179       652.0179       2.7719064e+08  1.8087486     -22846048      -22846048       1325.8236     -22844723      -2897.1375     -2886.4585     -2899.3759      3.0841992     -25.326973      7.9695377      6003.6756    
      8900   444.94159      0.0445         0.29266654     0.29144471     0.29263286    -2884.2639      652.33017      652.33017      652.33017      2.7758909e+08  1.8061523     -22810063      -22810063       1324.9601     -22808738      -2888.3942     -2876.3356     -2888.0618      3.6059817     -26.889597      5.6857821      5687.1001    
      9000   444.80526      0.045          0.29166067     0.29051923     0.29171621    -2874.8947      652.64244      652.64244      652.64244      2.7798792e+08  1.803561      -22794138      -22794138       1324.5541     -22792814      -2878.467      -2867.2019     -2879.0152      3.2024072     -28.091884      4.1042027      3669.8293    
      9100   444.22297      0.0455         0.29061819     0.28976428     0.29070223    -2865.6459      652.95471      652.95471      652.95471      2.7838714e+08  1.8009746     -22768525      -22768525       1322.8202     -22767202      -2868.1786     -2859.7511     -2869.008       2.773936      -27.556372      2.4125624      5610.9837    
      9200   442.72007      0.046          0.28983494     0.28914531     0.28997385    -2858.6367      653.26698      653.26698      653.26698      2.7878674e+08  1.7983932     -22752677      -22752677       1318.3448     -22751358      -2860.4485     -2853.6423     -2861.8194      1.9609959     -25.357043      1.6832225      6021.9622    
      9300   440.83901      0.0465         0.28868421     0.28800128     0.28892946    -2847.6518      653.57925      653.57925      653.57925      2.7918672e+08  1.7958167     -22709666      -22709666       1312.7433     -22708354      -2849.0917     -2842.3516     -2851.5121     -0.025323919   -24.219822      3.0740769      5743.9745    
      9400   439.44646      0.047          0.28759056     0.28720256     0.2877571     -2837.5696      653.89151      653.89151      653.89151      2.7958708e+08  1.7932451     -22693885      -22693885       1308.5965     -22692576      -2838.2981     -2834.4689     -2839.9417      0.049736817   -24.698953      4.8350171      5978.6311    
      9500   438.58036      0.0475         0.28622054     0.28567339     0.28594056    -2822.056       654.20378      654.20378      654.20378      2.7998783e+08  1.7906785     -22634290      -22634290       1306.0174     -22632984      -2824.7771     -2819.3771     -2822.0139      3.5546171     -28.385004      2.8637275      5757.6119    
      9600   438.03037      0.048          0.28548543     0.28436181     0.28468007    -2811.1763      654.51605      654.51605      654.51605      2.8038896e+08  1.7881167     -22618631      -22618631       1304.3797     -22617327      -2817.5221     -2806.4328     -2809.5739      6.962141      -30.735081      1.3672603      6040.2289    
      9700   437.32722      0.0485         0.2844493      0.28294287     0.28343716    -2799.0109      654.82832      654.82832      654.82832      2.8079047e+08  1.7855598     -22587799      -22587799       1302.2858     -22586497      -2807.2963     -2792.429      -2797.3073      10.224479     -30.860779      0.11489167     5762.8468    
      9800   436.39068      0.049          0.2834059      0.28191921     0.28251639    -2789.1817      655.14059      655.14059      655.14059      2.8119237e+08  1.7830078     -22572231      -22572231       1299.4969     -22570931      -2796.9987     -2782.3263     -2788.22        9.5330273     -29.289613      0.78254128     6040.2825    
      9900   435.23997      0.0495         0.28222697     0.28081446     0.2818689     -2779.5389      655.45286      655.45286      655.45286      2.8159464e+08  1.7804606     -22549581      -22549581       1296.0703     -22548285      -2785.3636     -2771.4232     -2781.8298      8.4431496     -28.729723      2.758445       5773.3424    
     10000   434.06072      0.05           0.28064687     0.27947165     0.28070551    -2766.096       655.76513      655.76513      655.76513      2.819973e+08   1.7779183     -22505121      -22505121       1292.5587     -22503829      -2769.7692     -2758.1708     -2770.348       7.9614461     -27.794116      4.7692663      3707.3007    
     10100   432.70123      0.0505         0.27913873     0.27828985     0.27910141    -2751.9697      656.0774       656.0774       656.0774       2.8240035e+08  1.7753809     -22489711      -22489711       1288.5104     -22488423      -2754.8851     -2746.5073     -2754.5168      7.2543102     -27.480593      4.4501539      6021.4473    
     10200   431.25854      0.051          0.27731817     0.27687979     0.27720795    -2735.1128      656.38967      656.38967      656.38967      2.8280378e+08  1.7728482     -22459443      -22459443       1284.2143     -22458159      -2736.9175     -2732.591      -2735.8298      6.1506922     -26.91784       3.4140644      5758.2922    
     10300   429.44667      0.0515         0.27574412     0.27559788     0.27547172    -2720.0056      656.70194      656.70194      656.70194      2.8320759e+08  1.7703204     -22444173      -22444173       1278.8189     -22442894      -2721.3829     -2719.9396     -2718.6945      5.4545628     -27.546124      2.8738151      6044.5704    
     10400   427.85167      0.052          0.2742916      0.27399599     0.27387517    -2704.7052      657.01421      657.01421      657.01421      2.8361179e+08  1.7677974     -22417782      -22417782       1274.0692     -22416508      -2707.0477     -2704.1301     -2702.9377      7.3784124     -28.150154      4.3233465      5776.8847    
     10500   426.19737      0.0525         0.27312421     0.2725118      0.27262867    -2691.8815      657.32647      657.32647      657.32647      2.8401637e+08  1.7652791     -22402648      -22402648       1269.143      -22401378      -2695.5264     -2689.4824     -2690.6358      9.343584      -28.453489      5.5423386      6019.1071    
     10600   424.49469      0.053          0.27159497     0.27064346     0.27109008    -2675.6427      657.63874      657.63874      657.63874      2.8442134e+08  1.7627657     -22364223      -22364223       1264.0727     -22362959      -2680.4339     -2671.0432     -2675.451       11.986912     -28.123634      5.2871451      5783.4217    
     10700   423.45638      0.0535         0.27023738     0.26900003     0.26941422    -2660.2571      657.95101      657.95101      657.95101      2.8482669e+08  1.760257      -22349231      -22349231       1260.9808     -22347970      -2667.0356     -2654.8239     -2658.9117      13.329535     -27.35699       4.3458968      6060.0783    
     10800   422.77244      0.054          0.26849797     0.26753819     0.26750216    -2643.4355      658.26328      658.26328      658.26328      2.8523242e+08  1.7577531     -22311678      -22311678       1258.9441     -22310419      -2649.8689     -2640.3966     -2640.0411      13.255385     -27.247958      4.2714734      5792.1773    
     10900   421.73238      0.0545         0.26665431     0.26633172     0.2661365     -2628.9087      658.57555      658.57555      658.57555      2.8563855e+08  1.7552539     -22296835      -22296835       1255.847      -22295580      -2631.6734     -2628.4897     -2626.563       12.394698     -27.643684      4.8701388      6078.7088    
     11000   420.66191      0.055          0.26491219     0.26490856     0.26473552    -2613.8869      658.88782      658.88782      658.88782      2.8604505e+08  1.7527595     -22268981      -22268981       1252.6593     -22267728      -2614.48       -2614.4442     -2612.7364      12.656424     -26.731002      6.1404176      2237.4473    
     11100   419.58571      0.0555         0.26349815     0.26344657     0.26347786    -2600.2881      659.20009      659.20009      659.20009      2.8645194e+08  1.7502698     -22254273      -22254273       1249.4546     -22253023      -2600.5246     -2600.0155     -2600.3243      13.109353     -25.222263      5.7730916      4560.562     
     11200   418.06363      0.056          0.26199287     0.26146141     0.26183365    -2583.3965      659.51236      659.51236      659.51236      2.8685922e+08  1.7477848     -22225830      -22225830       1244.9221     -22224585      -2585.6686     -2580.4235     -2584.0972      12.95385      -25.724086      4.3271399      5771.4111    
     11300   416.12586      0.0565         0.26020314     0.25935325     0.25993967    -2564.3426      659.82463      659.82463      659.82463      2.8726688e+08  1.7453045     -22211283      -22211283       1239.1518     -22210044      -2568.0054     -2559.6175     -2565.405       12.819644     -27.343851      3.7591846      6080.4453    
     11400   414.30788      0.057          0.25786722     0.25732875     0.25770146    -2542.6348      660.1369       660.1369       660.1369       2.8767493e+08  1.7428289     -22172406      -22172406       1233.7381     -22171172      -2544.9516     -2539.6373     -2543.3157      12.818515     -27.594912      4.2347833      5808.5667    
     11500   412.67602      0.0575         0.25605676     0.25582651     0.25583564    -2525.5989      660.44917      660.44917      660.44917      2.8808337e+08  1.7403579     -22158058      -22158058       1228.8787     -22156829      -2527.0838     -2524.8113     -2524.9015      13.058394     -26.425495      5.590024       6032.2021    
     11600   411.07749      0.058          0.25391476     0.25439972     0.25374356    -2506.976       660.76144      660.76144      660.76144      2.8849219e+08  1.7378917     -22110457      -22110457       1224.1186     -22109233      -2505.9439     -2510.73       -2504.2543      12.59686      -22.161174      6.9084222      5818.6585    
     11700   409.57071      0.0585         0.25247736     0.2529607      0.2520857     -2492.0594      661.0737       661.0737       661.0737       2.889014e+08   1.7354301     -22096273      -22096273       1219.6316     -22095053      -2491.7578     -2496.528      -2487.8924      12.913069     -20.924183      6.2778732      6112.876     
     11800   407.93749      0.059          0.25108373     0.25112415     0.25034747    -2475.7146      661.38597      661.38597      661.38597      2.89311e+08    1.7329731     -22065819      -22065819       1214.7682     -22064605      -2478.0037     -2478.4027     -2470.7375      13.290447     -22.45079       6.133773       5832.244     
     11900   406.74887      0.0595         0.2494685      0.24929572     0.24881424    -2459.3419      661.69824      661.69824      661.69824      2.8972098e+08  1.7305208     -22051781      -22051781       1211.2287     -22050570      -2462.0627     -2460.3575     -2455.6056      12.788583     -24.760368      6.3764494      6114.9629    
     12000   405.81305      0.06           0.24743319     0.24743376     0.24726954    -2441.4392      662.01051      662.01051      662.01051      2.9013135e+08  1.7280731     -22018789      -22018789       1208.442      -22017580      -2441.9757     -2441.9813     -2440.3606      12.235529     -25.031274      6.3231465      3887.7118    
     12100   404.30975      0.0605         0.24545468     0.24580506     0.2458365     -2424.8581      662.32278      662.32278      662.32278      2.9054211e+08  1.72563       -22004928      -22004928       1203.9654     -22003724      -2422.4493     -2425.9073     -2426.2177      13.922307     -23.442328      6.317678       6087.398     
     12200   402.53855      0.061          0.24319454     0.2436928      0.24394018    -2404.2356      662.63505      662.63505      662.63505      2.9095325e+08  1.7231915     -21974485      -21974485       1198.6911     -21973287      -2400.1435     -2405.061      -2407.5024      14.264572     -21.421671      6.8347553      5822.2766    
     12300   401.28888      0.0615         0.24129712     0.24152786     0.24189514    -2384.1438      662.94732      662.94732      662.94732      2.9136478e+08  1.7207577     -21960821      -21960821       1194.9698     -21959626      -2381.4174     -2383.6946     -2387.3194      14.1338       -20.28022       6.7655766      6128.3605    
     12400   399.93982      0.062          0.23963        0.23973975     0.23984464    -2366.0314      663.25959      663.25959      663.25959      2.917767e+08   1.7183283     -21943235      -21943235       1190.9525     -21942044      -2364.9642     -2366.0474     -2367.0825      12.844005     -20.908042      6.4979219      5835.5624    
     12500   398.05176      0.0625         0.23798275     0.23819212     0.23787464    -2349.0403      663.57186      663.57186      663.57186      2.9218901e+08  1.7159036     -21912200      -21912200       1185.3302     -21911014      -2348.7071     -2350.7735     -2347.6402      12.094666     -21.568616      6.4452322      5840.5354    
     12600   395.72442      0.063          0.23638243     0.23664357     0.23619943    -2333.1702      663.88413      663.88413      663.88413      2.9260171e+08  1.7134834     -21898791      -21898791       1178.3998     -21897613      -2332.9132     -2335.4904     -2331.1071      11.998927     -22.771146      6.5609234      6073.456     
     12700   393.77422      0.0635         0.23433283     0.23458912     0.23453074    -2314.1794      664.1964       664.1964       664.1964       2.9301479e+08  1.7110678     -21874109      -21874109       1172.5924     -21872937      -2312.6852     -2315.2146     -2314.6385      12.68444      -21.693912      5.5064382      5846.9042    
     12800   392.76585      0.064          0.23245011     0.23247473     0.23287461    -2295.5817      664.50866      664.50866      664.50866      2.9342826e+08  1.7086567     -21860881      -21860881       1169.5896     -21859712      -2294.1042     -2294.3472     -2298.2937      13.57953      -19.713197      4.4709752      6126.6202    
     12900   392.22134      0.0645         0.23073101     0.23064204     0.23127648    -2278.6398      664.82093      664.82093      664.82093      2.9384213e+08  1.7062502     -21846637      -21846637       1167.9682     -21845469      -2277.1381     -2276.2599     -2282.5214      13.256839     -18.312664      4.3241846      5843.2793    
     13000   391.36108      0.065          0.22895596     0.22922123     0.22996039    -2263.7966      665.1332       665.1332       665.1332       2.9425638e+08  1.7038481     -21833585      -21833585       1165.4065     -21832420      -2259.6196     -2262.2376     -2269.5326      12.43324      -18.390147      3.7059714      4102.961     
     13100   390.11524      0.0655         0.22712343     0.22771051     0.2285641     -2248.2048      665.44547      665.44547      665.44547      2.9467102e+08  1.7014506     -21817315      -21817315       1161.6966     -21816153      -2241.534      -2247.3281     -2255.7523      12.444401     -18.117917      3.073358       5802.5885    
     13200   388.4757       0.066          0.22555224     0.22623044     0.22702557    -2233.1055      665.75774      665.75774      665.75774      2.9508605e+08  1.6990576     -21804401      -21804401       1156.8143     -21803244      -2226.0275     -2232.7209     -2240.5682      12.801454     -16.814084      4.0018919      6044.7892    
     13300   386.34305      0.0665         0.22403009     0.22457152     0.22513003    -2216.4048      666.07001      666.07001      666.07001      2.9550147e+08  1.696669      -21784792      -21784792       1150.4636     -21783642      -2211.005      -2216.3486     -2221.8606      11.915238     -16.132158      5.5078581      5851.8654    
     13400   384.60867      0.067          0.22245274     0.22274935     0.22313961    -2198.6732      666.38228      666.38228      666.38228      2.9591727e+08  1.6942849     -21772047      -21772047       1145.2989     -21770902      -2195.4378     -2198.3652     -2202.2167      11.260475     -17.800891      7.2221613      6143.6062    
     13500   383.67363      0.0675         0.22070216     0.22076933     0.22119289    -2179.9964      666.69455      666.69455      666.69455      2.9633347e+08  1.6919053     -21757901      -21757901       1142.5145     -21756759      -2178.161      -2178.8239     -2183.0041      11.37753      -19.691054      6.703276       5854.2381    
     13600   382.44754      0.068          0.21895354     0.21894805     0.21957562    -2162.9319      667.00682      667.00682      667.00682      2.9675006e+08  1.6895302     -21745341      -21745341       1138.8635     -21744203      -2160.9035     -2160.8493     -2167.0429      11.896841     -19.080648      3.6693422      6148.558     
     13700   380.30211      0.0685         0.21716844     0.21712365     0.21799475    -2145.8569      667.31909      667.31909      667.31909      2.9716704e+08  1.6871594     -21718320      -21718320       1132.4747     -21717188      -2143.2859     -2142.8438     -2151.4409      12.936389     -17.134936      0.97606068     5853.4239    
     13800   377.96366      0.069          0.215356       0.21553345     0.21668098    -2130.3411      667.63136      667.63136      667.63136      2.9758441e+08  1.6847932     -21705919      -21705919       1125.5112     -21704794      -2125.3985     -2127.1498     -2138.475       13.107526     -15.680635      1.0730501      6079.9795    
     13900   376.32175      0.0695         0.21342109     0.21388221     0.21529473    -2113.9831      667.94362      667.94362      667.94362      2.9800217e+08  1.6824313     -21679655      -21679655       1120.6219     -21678535      -2106.3024     -2110.8533     -2124.7938      12.043922     -14.444922      2.3353208      5856.371     
     14000   375.41703      0.07           0.21205385     0.21255977     0.21391223    -2100.5867      668.25589      668.25589      668.25589      2.9842032e+08  1.6800738     -21667409      -21667409       1117.9278     -21666291      -2092.8087     -2097.8019     -2111.1496      10.443871     -14.108312      2.95259        4073.4693    
     14100   374.59901      0.0705         0.21087447     0.21111281     0.21244663    -2087.1252      668.56816      668.56816      668.56816      2.9883886e+08  1.6777208     -21652086      -21652086       1115.4919     -21650971      -2081.1692     -2083.5214     -2096.6852      9.6745538     -13.854937      1.4785269      5826.4685    
     14200   373.97037      0.071          0.20969509     0.20944674     0.21097482    -2072.9226      668.88043      668.88043      668.88043      2.992578e+08   1.6753722     -21639977      -21639977       1113.6199     -21638863      -2069.5296     -2067.0786     -2082.1596      10.10183      -13.617043      0.40879831     6152.8871    
     14300   373.04245      0.0715         0.20827452     0.20761258     0.20939875    -2057.0305      669.1927       669.1927       669.1927       2.9967712e+08  1.6730279     -21605346      -21605346       1110.8567     -21604235      -2055.5097     -2048.9769     -2066.605       8.9660038     -13.665526      2.7144822      5818.7607    
     14400   371.27327      0.072          0.20700009     0.2062132      0.20798459    -2043.5821      669.50497      669.50497      669.50497      3.0009684e+08  1.670688      -21593376      -21593376       1105.5884     -21592271      -2042.932      -2035.166      -2052.6483      7.9979996     -12.974365      3.4737439      6162.8819    
     14500   368.95969      0.0725         0.20550469     0.20472573     0.20638607    -2028.5105      669.81724      669.81724      669.81724      3.0051694e+08  1.6683524     -21565579      -21565579       1098.6989     -21564480      -2028.1736     -2020.4859     -2036.8721      7.7578106     -13.515431      2.3722671      5881.5762    
     14600   366.98659      0.073          0.20364572     0.20314199     0.20461706    -2011.3653      670.12951      670.12951      670.12951      3.0093744e+08  1.6660213     -21529277      -21529277       1092.8234     -21528184      -2009.827      -2004.8555     -2019.4134      6.9911533     -14.474664      2.1761974      5875.73      
     14700   365.83826      0.0735         0.20177917     0.2016546      0.20322852    -1995.7638      670.44178      670.44178      670.44178      3.0135833e+08  1.6636944     -21517544      -21517544       1089.4039     -21516455      -1991.4056     -1990.1762     -2005.7095      7.4225472     -14.678609      2.8887223      6176.1556    
     14800   365.19951      0.074          0.19991234     0.20022152     0.20162605    -1979.6362      670.75405      670.75405      670.75405      3.0177962e+08  1.6613719     -21474708      -21474708       1087.5018     -21473621      -1972.9814     -1976.0328     -1989.8944      7.6615671     -14.714105      2.9461833      5887.3915    
     14900   364.51586      0.0745         0.19879185     0.19901538     0.20063609    -1968.7255      671.06632      671.06632      671.06632      3.0220129e+08  1.6590537     -21463122      -21463122       1085.466      -21462036      -1961.923      -1964.1291     -1980.1243      7.6478606     -13.142076      1.6208141      6136.6552    
     15000   363.44314      0.075          0.19785041     0.19783555     0.19955508    -1958.1908      671.37858      671.37858      671.37858      3.0262336e+08  1.6567398     -21443294      -21443294       1082.2716     -21442212      -1952.6318     -1952.485      -1969.4555      6.1646082     -11.619174     -2.0995364      2709.1619    
     15100   362.38856      0.0755         0.19677187     0.19668733     0.19830255    -1946.7448      671.69085      671.69085      671.69085      3.0304582e+08  1.6544302     -21431810      -21431810       1079.1312     -21430731      -1941.9874     -1941.153      -1957.094       4.0628126     -10.437591     -4.6074594      4169.2431    
     15200   361.56446      0.076          0.19530455     0.19536246     0.19698782    -1933.2341      672.00312      672.00312      672.00312      3.0346868e+08  1.652125      -21408474      -21408474       1076.6772     -21407397      -1927.5061     -1928.0776     -1944.1186      2.8398267     -11.170742     -4.8761624      5892.5991    
     15300   360.30241      0.0765         0.19429732     0.19414674     0.19577859    -1921.9431      672.31539      672.31539      672.31539      3.0389193e+08  1.6498239     -21397114      -21397114       1072.9191     -21396041      -1917.5655     -1916.0793     -1932.1845      3.1191223     -12.227358     -3.9661078      6189.1916    
     15400   358.86526      0.077          0.19338878     0.19283094     0.19425137    -1909.6014      672.62766      672.62766      672.62766      3.0431557e+08  1.6475272     -21379130      -21379130       1068.6395     -21378061      -1908.5989     -1903.0934     -1917.112       3.7302661     -14.210977     -2.723832       5842.1838    
     15500   357.57602      0.0775         0.1923325      0.19170155     0.19301197    -1898.3338      672.93993      672.93993      672.93993      3.047396e+08   1.6452347     -21367878      -21367878       1064.8003     -21366814      -1898.1742     -1891.9472     -1904.88        2.7704765     -15.546697     -1.5135313      6192.3979    
     15600   356.38865      0.078          0.1907589      0.19055308     0.19194208    -1885.8592      673.2522       673.2522       673.2522       3.0516403e+08  1.6429465     -21326091      -21326091       1061.2645     -21325029      -1882.644      -1880.6127     -1894.321       2.0429269     -15.101564     -0.044691509    5910.4914    
     15700   355.39194      0.0785         0.18944388     0.18960187     0.19128599    -1876.2455      673.56447      673.56447      673.56447      3.0558885e+08  1.6406625     -21314943      -21314943       1058.2965     -21313885      -1869.6657     -1871.225      -1887.8459      1.6588435     -13.036552      0.83544457     6211.723     
     15800   354.37667      0.079          0.18810665     0.18867059     0.19032705    -1865.6281      673.87674      673.87674      673.87674      3.0601407e+08  1.6383828     -21293915      -21293915       1055.2732     -21292859      -1856.4683     -1862.0339     -1878.3819      0.14819442    -10.835648     -1.7168983      5774.9064    
     15900   353.352        0.0795         0.18703497     0.18753309     0.18916582    -1854.5403      674.18901      674.18901      674.18901      3.0643968e+08  1.6361072     -21282875      -21282875       1052.2219     -21281823      -1845.8917     -1850.8077     -1866.9215     -0.77565637    -8.7077535     -5.145651       6204.1382    
     16000   352.80291      0.08           0.1859439      0.18614268     0.18763094    -1841.3275      674.50128      674.50128      674.50128      3.0686569e+08  1.6338359     -21253055      -21253055       1050.5868     -21252005      -1835.1237     -1837.0854     -1851.7734     -0.54565829    -8.6638959     -6.6817404      2790.2645    
     16100   352.28997      0.0805         0.18508757     0.18511308     0.18651645    -1831.4568      674.81355      674.81355      674.81355      3.0729208e+08  1.6315688     -21242142      -21242142       1049.0594     -21241093      -1826.6722     -1826.9241     -1840.7742      0.3118569     -9.4418785     -6.4109796      4612.748     
     16200   351.26382      0.081          0.18415198     0.18433286     0.18550007    -1822.4686      675.12581      675.12581      675.12581      3.0771888e+08  1.6293059     -21221671      -21221671       1046.0037     -21220625      -1817.4387     -1819.2239     -1830.7433      0.85257143    -11.030154     -4.9996369      5862.3812    
     16300   350.22466      0.0815         0.18341539     0.18355697     0.1845665     -1814.4218      675.43808      675.43808      675.43808      3.0814607e+08  1.6270471     -21210822      -21210822       1042.9092     -21209779      -1810.1692     -1811.5664     -1821.5297      1.7853489     -13.466771     -1.907705       6224.5943    
     16400   349.42535      0.082          0.18238779     0.18241799     0.18350373    -1803.7981      675.75035      675.75035      675.75035      3.0857365e+08  1.6247926     -21170152      -21170152       1040.529      -21169112      -1800.0275     -1800.3256     -1811.041       0.46276939    -14.300669      0.59099268     5894.3789    
     16500   348.70253      0.0825         0.18146652     0.18130998     0.18269347    -1794.4567      676.06262      676.06262      676.06262      3.0900163e+08  1.6225422     -21159399      -21159399       1038.3766     -21158361      -1790.9353     -1789.3904     -1803.0444     -1.2725935     -12.942343     -0.88008566     6233.0916    
     16600   347.99659      0.083          0.18034505     0.18031018     0.18190969    -1784.8998      676.37489      676.37489      676.37489      3.0943001e+08  1.6202959     -21139106      -21139106       1036.2744     -21138070      -1779.8673     -1779.5232     -1795.3091     -3.9378809     -10.15267      -3.3737976      5939.0108    
     16700   347.43694      0.0835         0.17946663     0.17976482     0.18124458    -1778.0279      676.68716      676.68716      676.68716      3.0985878e+08  1.6180538     -21128446      -21128446       1034.6079     -21127411      -1771.198      -1774.1408     -1788.7449     -5.0334799     -6.8012012     -6.0955592      6232.3294    
     16800   346.73787      0.084          0.17870541     0.17904204     0.18049576    -1770.6825      676.99943      676.99943      676.99943      3.1028795e+08  1.6158158     -21107206      -21107206       1032.5262     -21106173      -1763.6853     -1767.0075     -1781.3546     -4.794056      -4.9113453     -6.7654781      5949.9939    
     16900   346.48191      0.0845         0.17782379     0.17802724     0.17963734    -1761.6197      677.3117       677.3117       677.3117       3.1071751e+08  1.613582      -21079741      -21079741       1031.764      -21078709      -1754.9843     -1756.9922     -1772.8827     -3.2694225     -5.5919492     -4.6393385      5947.4937    
     17000   346.30958      0.085          0.17707448     0.17712482     0.17872711    -1753.1916      677.62397      677.62397      677.62397      3.1114747e+08  1.6113523     -21069193      -21069193       1031.2508     -21068162      -1747.5893     -1748.086      -1763.8995     -3.5462807     -8.1071956     -1.3170836      2612.9615    
     17100   345.22123      0.0855         0.17619654     0.17606023     0.17758878    -1743.0564      677.93624      677.93624      677.93624      3.1157783e+08  1.6091266     -21044443      -21044443       1028.0099     -21043415      -1738.9247     -1737.5794     -1752.665      -4.415305      -9.3184786      0.83123345     4252.6337    
     17200   343.48319      0.086          0.17525007     0.17505335     0.17661784    -1733.4362      678.24851      678.24851      678.24851      3.1200858e+08  1.6069051     -21033974      -21033974       1022.8343     -21032951      -1729.5837     -1727.6422     -1743.0825     -4.5391299     -9.1135293     -0.13904746     6252.5636    
     17300   342.50229      0.0865         0.17416968     0.17412297     0.17537495    -1722.7325      678.56077      678.56077      678.56077      3.1243973e+08  1.6046877     -21011578      -21011578       1019.9133     -21010558      -1718.9211     -1718.4601     -1730.8162     -3.8472225     -8.4444199     -1.8480184      5949.7376    
     17400   342.37573      0.087          0.17343602     0.17359964     0.17466212    -1716.2523      678.87304      678.87304      678.87304      3.1287128e+08  1.6024743     -21001194      -21001194       1019.5365     -21000174      -1711.6805     -1713.2952     -1723.7811     -3.4799657     -7.9712951     -2.9733833      6257.6735    
     17500   342.25767      0.0875         0.1729713      0.17331875     0.17429228    -1712.5827      679.18531      679.18531      679.18531      3.1330322e+08  1.600265      -20989724      -20989724       1019.1849     -20988705      -1707.094      -1710.5231     -1720.1311     -2.4539335     -8.3639742     -3.2419003      5915.6707    
     17600   341.84036      0.088          0.1725469      0.17279957     0.17389963    -1708.1869      679.49758      679.49758      679.49758      3.1373556e+08  1.5980598     -20979387      -20979387       1017.9422     -20978369      -1702.9055     -1705.3992     -1716.2559     -1.5568081     -8.8378628     -1.9830551      6261.9549    
     17700   341.73851      0.0885         0.17167845     0.17185522     0.17300542    -1699.2815      679.80985      679.80985      679.80985      3.141683e+08   1.5958586     -20939027      -20939027       1017.6389     -20938009      -1694.3345     -1696.0791     -1707.4308     -2.7571373     -9.6957484     -0.40339105     5962.9649    
     17800   341.62419      0.089          0.17114127     0.17101333     0.17223317    -1692.2042      680.12212      680.12212      680.12212      3.1460144e+08  1.5936614     -20928760      -20928760       1017.2985     -20927742      -1689.033      -1687.7704     -1699.8093     -4.7218521     -9.844587       0.86205994     6263.5406    
     17900   341.17478      0.0895         0.17039759     0.1702895      0.17130094    -1684.3096      680.43439      680.43439      680.43439      3.1503497e+08  1.5914683     -20901654      -20901654       1015.9602     -20900638      -1681.6934     -1680.6267     -1690.6088     -4.8114655     -10.377768      1.5710503      5965.0741    
     18000   340.63199      0.09           0.16962524     0.16975006     0.17064692    -1677.8427      680.74666      680.74666      680.74666      3.154689e+08   1.5892792     -20891446      -20891446       1014.3439     -20890432      -1674.0709     -1675.3029     -1684.1542     -3.0871755     -10.814234      0.33708937     4089.1728    
     18100   340.02693      0.0905         0.16875975     0.16898606     0.16965188    -1669.2086      681.05893      681.05893      681.05893      3.1590323e+08  1.5870942     -20842444      -20842444       1012.5421     -20841431      -1665.5292     -1667.7627     -1674.3338     -2.4954416     -9.1460769     -1.4049675      5962.7643    
     18200   339.33907      0.091          0.16813033     0.16846272     0.16888811    -1662.9037      681.3712       681.3712       681.3712       3.1633796e+08  1.5849131     -20832313      -20832313       1010.4938     -20831302      -1659.3173     -1662.5978     -1666.796      -3.7096347     -7.5234679     -2.4421992      6274.1449    
     18300   338.79893      0.0915         0.16708188     0.16755995     0.1679325     -1653.341       681.68347      681.68347      681.68347      3.1677309e+08  1.582736      -20788294      -20788294       1008.8854     -20787285      -1648.97       -1653.6881     -1657.3649     -5.6573231     -5.7558657     -4.3291967      5981.8004    
     18400   338.42658      0.092          0.16633118     0.16689677     0.16729663    -1646.5979      681.99573      681.99573      681.99573      3.1720862e+08  1.5805629     -20778236      -20778236       1007.7766     -20777228      -1641.5611     -1647.143      -1651.0894     -5.2642495     -5.1318266     -3.6727771      6278.9893    
     18500   338.13911      0.0925         0.16570917     0.16621938     0.16677417    -1640.6044      682.308        682.308        682.308        3.1764454e+08  1.5783938     -20753033      -20753033       1006.9205     -20752026      -1635.4224     -1640.4577     -1645.9331     -3.6675793     -6.4757761     -1.9531513      5986.918     
     18600   337.96846      0.093          0.16520709     0.16573945     0.16642026    -1636.2095      682.62027      682.62027      682.62027      3.1808087e+08  1.5762287     -20743026      -20743026       1006.4124     -20742019      -1630.4672     -1635.7212     -1642.4402     -2.7683633     -8.4661299      0.6561684      6283.2983    
     18700   338.08355      0.0935         0.16469569     0.16511844     0.16613301    -1631.5392      682.93254      682.93254      682.93254      3.1851759e+08  1.5740675     -20732460      -20732460       1006.7551     -20731453      -1625.42       -1629.5923     -1639.6053     -3.5765856     -9.4205859      1.505481       5939.2859    
     18800   338.21028      0.094          0.16432567     0.16444453     0.16569561    -1626.666       683.24481      683.24481      683.24481      3.1895471e+08  1.5719102     -20722491      -20722491       1007.1325     -20721484      -1621.7683     -1622.9413     -1635.2885     -4.7682562     -9.0180366      0.12905941     6289.7465    
     18900   337.99175      0.0945         0.16396044     0.16365272     0.16492219    -1620.3153      683.55708      683.55708      683.55708      3.1939224e+08  1.5697569     -20697666      -20697666       1006.4817     -20696660      -1618.1637     -1615.1268     -1627.6554     -5.8982323     -7.1443708     -2.1013031      5984.1815    
     19000   337.24488      0.095          0.16359022     0.16306628     0.16394978    -1613.9692      683.86935      683.86935      683.86935      3.1983016e+08  1.5676076     -20686301      -20686301       1004.2577     -20685297      -1614.51       -1609.3391     -1618.0586     -6.4142948     -6.490991      -3.332185       2036.8175    
     19100   336.03942      0.0955         0.16290164     0.16253867     0.16309737    -1607.164       684.18162      684.18162      684.18162      3.2026849e+08  1.5654621     -20676421      -20676421       1000.668      -20675420      -1607.7142     -1604.132      -1609.6459     -5.4618625     -6.7967507     -3.3195652      3558.069     
     19200   335.39085      0.096          0.16185656     0.16179172     0.16221221    -1598.3567      684.49389      684.49389      684.49389      3.2070721e+08  1.5633206     -20648010      -20648010       998.73668     -20647012      -1597.4        -1596.7601     -1600.91       -4.1985614     -7.5408426     -3.1592269      5807.0057    
     19300   335.57996      0.0965         0.16105128     0.16122577     0.161816      -1592.5423      684.80616      684.80616      684.80616      3.2114633e+08  1.5611829     -20638201      -20638201       999.29982     -20637202      -1589.4526     -1591.1746     -1596.9997     -4.2321114     -7.3552893     -2.1834129      6300.5576    
     19400   335.47116      0.097          0.16044989     0.16075257     0.16159421    -1588.2775      685.11843      685.11843      685.11843      3.2158586e+08  1.5590492     -20611007      -20611007       998.97582     -20610008      -1583.5173     -1586.5045     -1594.8109     -5.6530884     -7.0289211     -1.1611844      5999.2238    
     19500   335.05391      0.0975         0.16014413     0.16064981     0.16133408    -1586.0779      685.43069      685.43069      685.43069      3.2202578e+08  1.5569194     -20601217      -20601217       997.73332     -20600220      -1580.4996     -1585.4904     -1592.2436     -5.9043108     -5.3915427     -0.13925306     6305.9289    
     19600   335.13892      0.098          0.15966232     0.16023516     0.1607046     -1581.0579      685.74296      685.74296      685.74296      3.2246611e+08  1.5547934     -20579665      -20579665       997.98646     -20578667      -1575.7446     -1581.3981     -1586.0311     -4.9123157     -4.4998303     -1.1971938      5949.3432    
     19700   335.40916      0.0985         0.15938846     0.15950225     0.16018492    -1576.0363      686.05523      686.05523      686.05523      3.2290684e+08  1.5526713     -20569921      -20569921       998.79122     -20568923      -1573.0418     -1574.1648     -1580.9022     -4.6176237     -5.5023468     -2.9368124      6312.9938    
     19800   335.21121      0.099          0.15893768     0.15868049     0.15951373    -1569.6419      686.3675       686.3675       686.3675       3.2334797e+08  1.550553      -20555314      -20555314       998.20175     -20554315      -1568.593      -1566.0547     -1574.2781     -5.1810295     -8.1015658     -3.1839433      6007.6221    
     19900   334.80805      0.0995         0.15825128     0.15798154     0.15874683    -1562.5616      686.67977      686.67977      686.67977      3.237895e+08   1.5484387     -20545629      -20545629       997.00119     -20544632      -1561.8187     -1559.1565     -1566.7094     -4.8535693     -9.614325      -3.0286384      6322.662     
     20000   334.4584       0.1            0.15725602     0.1573058      0.15803966    -1554.738       686.99204      686.99204      686.99204      3.2423143e+08  1.5463281     -20521291      -20521291       995.96001     -20520295      -1551.9963     -1552.4875     -1559.7302     -4.0535787     -8.9831561     -3.3811416      3057.4257    
     20100   334.26078      0.1005         0.1564343      0.1569098      0.15762121    -1549.3554      687.30431      687.30431      687.30431      3.2467377e+08  1.5442214     -20511680      -20511680       995.37152     -20510684      -1543.8865     -1548.5793     -1555.6004     -4.1039479     -7.8721584     -3.5530775      5136.9651    
     20200   334.15879      0.101          0.15588669     0.15654186     0.15735627    -1545.4719      687.61658      687.61658      687.61658      3.251165e+08   1.5421185     -20486232      -20486232       995.06782     -20485237      -1538.482      -1544.948      -1552.9856     -4.5764577     -6.9848301     -3.0419042      6010.5426    
     20300   333.75607      0.1015         0.15582829     0.15634397     0.15722373    -1544.1927      687.92885      687.92885      687.92885      3.2555964e+08  1.5400194     -20476636      -20476636       993.86859     -20475642      -1537.9056     -1542.995      -1551.6775     -5.4279589     -6.7555312     -2.8556647      6319.545     
     20400   333.11996      0.102          0.15550508     0.15574765     0.15660166    -1539.1213      688.24112      688.24112      688.24112      3.2600319e+08  1.5379242     -20455724      -20455724       991.97436     -20454732      -1534.7158     -1537.1098     -1545.5382     -5.6881083     -6.3983056     -2.7282908      6029.162     
     20500   333.15375      0.1025         0.15486245     0.15509204     0.15579407    -1532.1937      688.55339      688.55339      688.55339      3.2644713e+08  1.5358327     -20446168      -20446168       992.07497     -20445176      -1528.3736     -1530.6395     -1537.5679     -5.2913206     -5.9202328     -1.1244801      6332.876     
     20600   333.2053       0.103          0.15403461     0.15429303     0.15483155    -1523.6753      688.86565      688.86565      688.86565      3.2689148e+08  1.533745      -20395366      -20395366       992.22849     -20394373      -1520.2034     -1522.7538     -1528.0686     -4.7610151     -6.3377361      1.5653646      6031.0404    
     20700   332.72427      0.1035         0.15376084     0.1538627      0.15434562    -1519.7604      689.17792      689.17792      689.17792      3.2733623e+08  1.5316611     -20385885      -20385885       990.79605     -20384894      -1517.5015     -1518.5068     -1523.2728     -5.9789862     -7.2076798      1.6285773      6286.3971    
     20800   332.13701      0.104          0.15341332     0.15348596     0.15379679    -1515.5722      689.49019      689.49019      689.49019      3.2778138e+08  1.529581      -20368128      -20368128       989.0473      -20367139      -1514.0718     -1514.7886     -1517.8563     -7.1104165     -7.5516944     -0.58512458     6034.704     
     20900   332.04844      0.1045         0.15303693     0.1531113      0.15344143    -1511.9324      689.80246      689.80246      689.80246      3.2822694e+08  1.5275047     -20358669      -20358669       988.78354     -20357681      -1510.357      -1511.0911     -1514.3491     -5.5676557     -7.0819096     -1.9470797      6345.9294    
     21000   332.08144      0.105          0.15234596     0.15257166     0.15302795    -1506.5238      690.11473      690.11473      690.11473      3.286729e+08   1.5254321     -20329852      -20329852       988.88183     -20328863      -1503.5377     -1505.7652     -1510.2684     -4.2848164     -6.5017595     -3.0265093      3844.5615    
     21100   332.23537      0.1055         0.1516175      0.15192891     0.1525977     -1500.5975      690.427        690.427        690.427        3.2911926e+08  1.5233632     -20302749      -20302749       989.34019     -20301760      -1496.3484     -1499.4218     -1506.0222     -3.5867974     -5.786855      -2.6756811      5777.3313    
     21200   332.56998      0.106          0.15104393     0.15140622     0.15211292    -1495.3962      690.73927      690.73927      690.73927      3.2956603e+08  1.5212981     -20293369      -20293369       990.3366      -20292379      -1490.6877     -1494.2632     -1501.2378     -3.8223021     -5.9991791     -2.430048       6346.9742    
     21300   332.72713      0.1065         0.15052423     0.15091394     0.15144297    -1489.8631      691.05154      691.05154      691.05154      3.300132e+08   1.5192367     -20273547      -20273547       990.80457     -20272556      -1485.5586     -1489.4048     -1494.6259     -3.5786476     -6.0559571     -1.1094627      5998.3152    
     21400   332.16027      0.107          0.15006751     0.15054698     0.15095005    -1485.5318      691.36381      691.36381      691.36381      3.3046078e+08  1.5171791     -20264214      -20264214       989.11655     -20263225      -1481.0511     -1485.7832     -1489.7612     -4.088369      -6.5880336      0.25018352     6356.2709    
     21500   331.58731      0.1075         0.14947152     0.14990989     0.1503476     -1479.4934      691.67608      691.67608      691.67608      3.3090876e+08  1.5151251     -20248367      -20248367       987.41038     -20247379      -1475.1692     -1479.4956     -1483.8154     -4.2194246     -7.5341489     -0.076640171    6044.9763    
     21600   331.64481      0.108          0.1489297      0.14948324     0.14980427    -1474.52        691.98835      691.98835      691.98835      3.3135715e+08  1.5130749     -20239079      -20239079       987.58161     -20238091      -1469.8219     -1475.2849     -1478.4532     -3.8547947     -7.2215344     -0.17948678     6363.4281    
     21700   331.94173      0.1085         0.14869414     0.1490536      0.14931965    -1470.7374      692.30062      692.30062      692.30062      3.3180594e+08  1.5110283     -20220409      -20220409       988.4658      -20219420      -1467.497      -1471.0446     -1473.6704     -3.7024583     -6.7120024      0.20670912     6054.7179    
     21800   332.14036      0.109          0.14862903     0.14856961     0.14901748    -1467.9369      692.61288      692.61288      692.61288      3.3225513e+08  1.5089855     -20211158      -20211158       989.05729     -20210169      -1466.8545     -1466.268      -1470.6882     -4.0478106     -6.4912653     -0.1157108      6364.4135    
     21900   332.19857      0.1095         0.14817991     0.14782146     0.14843262    -1462.0742      692.92515      692.92515      692.92515      3.3270473e+08  1.5069463     -20170175      -20170175       989.23061     -20169186      -1462.422      -1458.8844     -1464.9161     -3.5280086     -6.5779686      0.3235552      6010.2933    
[...]
    244700   311.66299      1.2235         0.0001361582   0.0001139534   0.00015095069 -1.3193923      1388.6607      1388.6607      1388.6607      2.6778637e+09  0.18722692    -115544.98     -115544.98      928.07915     -114616.9      -1.3437769     -1.1246326     -1.4897675     -0.097357734    0.14456531     0.082925359    24844.14     
    244800   311.63551      1.224          0.00013384819  0.00011451717  0.00015024926 -1.3113401      1388.973       1388.973       1388.973       2.6796706e+09  0.18710068    -115581.27     -115581.27      927.99734     -114653.27     -1.3209789     -1.1301966     -1.4828449     -0.10113793     0.12315837     0.076743362    26823.934    
    244900   311.37999      1.2245         0.00013434427  0.00011288652  0.00015018645 -1.3074011      1389.2853      1389.2853      1389.2853      2.6814783e+09  0.18697454    -115616.46     -115616.46      927.23644     -114689.23     -1.3258749     -1.1141034     -1.482225      -0.10101694     0.12040196     0.076317468    24797.122    
    245000   311.57916      1.225          0.00013709735  0.00011205883  0.00014975197 -1.3123058      1389.5975      1389.5975      1389.5975      2.6832869e+09  0.18684852    -115652.06     -115652.06      927.82954     -114724.23     -1.3530457     -1.1059346     -1.477937      -0.12336886     0.12385667     0.082552329    7723.043     
    245100   311.59317      1.2255         0.00013514259  0.00011207747  0.00014844227 -1.3016278      1389.9098      1389.9098      1389.9098      2.6850962e+09  0.18672261    -115687.96     -115687.96      927.87127     -114760.09     -1.3337536     -1.1061186     -1.4650113     -0.12727077     0.10353547     0.099052135    24236.508    
    245200   311.53344      1.226          0.00013563983  0.0001136673   0.00014945791 -1.311835       1390.2221      1390.2221      1390.2221      2.6869064e+09  0.18659681    -115724.44     -115724.44      927.69338     -114796.75     -1.3386611     -1.121809      -1.4750348     -0.12386732     0.095995444    0.11321417     26857.498    
    245300   312.02293      1.2265         0.00013645754  0.00011391768  0.00015027616 -1.3180406      1390.5343      1390.5343      1390.5343      2.6887174e+09  0.18647113    -115762.74     -115762.74      929.151       -114833.59     -1.3467312     -1.1242801     -1.4831103     -0.12757807     0.099821522    0.10503271     24770.685    
    245400   311.999        1.227          0.00013390499  0.00011161862  0.0001475816  -1.2932156      1390.8466      1390.8466      1390.8466      2.6905292e+09  0.18634556    -115799.54     -115799.54      929.07973     -114870.46     -1.3215395     -1.1015902     -1.4565172     -0.13890796     0.097427079    0.09891074     26760.407    
    245500   311.28579      1.2275         0.00013220932  0.00011195124  0.00014494426 -1.2800553      1391.1589      1391.1589      1391.1589      2.6923418e+09  0.1862201     -115834.37     -115834.37      926.95593     -114907.41     -1.3048045     -1.1048728     -1.4304886     -0.1486181      0.085465162    0.10951047     24785.402    
    245600   311.00958      1.228          0.0001334834   0.00011287271  0.00014609208 -1.2910542      1391.4712      1391.4712      1391.4712      2.6941553e+09  0.18609476    -115870.51     -115870.51      926.13343     -114944.37     -1.3173787     -1.113967      -1.4418168     -0.13472455     0.088173594    0.12857978     24869.782    
    245700   311.3662       1.2285         0.00013468556  0.00011275611  0.0001487138  -1.3032502      1391.7834      1391.7834      1391.7834      2.6959695e+09  0.18596953    -115907.85     -115907.85      927.19536     -114980.66     -1.3292431     -1.1128163     -1.4676911     -0.13947857     0.10434281     0.13472002     26893.707    
    245800   311.99427      1.229          0.00013346467  0.00011250336  0.00014843276 -1.2974777      1392.0957      1392.0957      1392.0957      2.6977846e+09  0.18584441    -115945.96     -115945.96      929.06566     -115016.89     -1.3171938     -1.1103218     -1.4649174     -0.15922133     0.10802526     0.13143619     23586.669    
    245900   311.65287      1.2295         0.00013060171  0.00011046377  0.00014405695 -1.2669543      1392.408       1392.408       1392.408       2.6996004e+09  0.1857194     -115982.03     -115982.03      928.04904     -115053.98     -1.2889387     -1.0901927     -1.4217316     -0.14189068     0.086684774    0.12012954     26889.997    
    246000   310.91349      1.23           0.00013243403  0.00010961702  0.00014073991 -1.2592843      1392.7202      1392.7202      1392.7202      2.7014171e+09  0.18559451    -116016.85     -116016.85      925.84729     -115091        -1.3070222     -1.0818359     -1.388995      -0.13501287     0.080137144    0.10854231     7660.5717    
    246100   310.77093      1.2305         0.0001333247   0.00010999382  0.00014124754 -1.265124       1393.0325      1393.0325      1393.0325      2.7032346e+09  0.18546972    -116052.94     -116052.94      925.42275     -115127.52     -1.3158125     -1.0855546     -1.3940049     -0.1387382      0.094612371    0.11615569     26162.293    
    246200   310.96533      1.231          0.00013199855  0.00011241044  0.00014408605 -1.2780493      1393.3448      1393.3448      1393.3448      2.705053e+09   0.18534505    -116089.31     -116089.31      926.00165     -115163.31     -1.3027244     -1.1094048     -1.4220188     -0.14041958     0.10307494     0.12728893     23537.431    
    246300   311.58271      1.2315         0.00013359416  0.00011294363  0.00014562378 -1.2901113      1393.657       1393.657       1393.657       2.7068721e+09  0.18522049    -116126.4      -116126.4       927.84009     -115198.56     -1.3184718     -1.114667      -1.437195      -0.13988163     0.11456505     0.13372003     25920.65     
    246400   311.88204      1.232          0.00013383775  0.00011071692  0.0001445321  -1.279996       1393.9693      1393.9693      1393.9693      2.708692e+09   0.18509604    -116163.42     -116163.42      928.73147     -115234.69     -1.3208759     -1.092691      -1.426421      -0.13606522     0.12350904     0.14551303     24782.847    
    246500   311.62304      1.2325         0.00013238314  0.00011168112  0.00014240814 -1.2713953      1394.2816      1394.2816      1394.2816      2.7105128e+09  0.18497171    -116199.99     -116199.99      927.96019     -115272.03     -1.30652       -1.1022069     -1.4054591     -0.13531448     0.10560414     0.14253526     26858.991    
    246600   311.45163      1.233          0.00013139896  0.00011224721  0.00014126767 -1.266268       1394.5938      1394.5938      1394.5938      2.7123344e+09  0.18484748    -116236.95     -116236.95      927.44978     -115309.51     -1.2968069     -1.1077938     -1.3942035     -0.12674804     0.092257805    0.14149604     24803.673    
    246700   311.00097      1.2335         0.0001296519   0.00011064432  0.00014077318 -1.2536209      1394.9061      1394.9061      1394.9061      2.7141568e+09  0.18472337    -116272.07     -116272.07      926.10779     -115345.96     -1.2795648     -1.0919746     -1.3893232     -0.1182159      0.085565834    0.14783433     26903.851    
    246800   310.63646      1.234          0.00012924028  0.00011089384  0.00014157412 -1.2557225      1395.2184      1395.2184      1395.2184      2.71598e+09    0.18459936    -116306.11     -116306.11      925.02233     -115381.08     -1.2755024     -1.0944371     -1.397228      -0.11431234     0.079076125    0.16569891     24769.004    
    246900   310.54141      1.2345         0.0001268562   0.00011196536  0.00014354479 -1.2578875      1395.5306      1395.5306      1395.5306      2.717804e+09   0.18447547    -116340.52     -116340.52      924.7393      -115415.78     -1.2519734     -1.1050122     -1.4166769     -0.11390848     0.070672104    0.18804312     26996.521    
    247000   310.72852      1.235          0.00012808041  0.00011205929  0.00014513883 -1.2674678      1395.8429      1395.8429      1395.8429      2.7196289e+09  0.18435169    -116375.5      -116375.5       925.29646     -115450.21     -1.2640554     -1.1059392     -1.4324089     -0.12912404     0.075944239    0.1964473      7758.3738    
    247100   311.01081      1.2355         0.00012799178  0.00011161593  0.00014423541 -1.2627457      1396.1552      1396.1552      1396.1552      2.7214545e+09  0.18422802    -116410.98     -116410.98      926.13708     -115484.84     -1.2631806     -1.1015635     -1.4234928     -0.11951042     0.063319563    0.20094842     26563.311    
    247200   310.71266      1.236          0.00012528814  0.00011221274  0.00014377668 -1.2543056      1396.4675      1396.4675      1396.4675      2.723281e+09   0.18410446    -116444.5      -116444.5       925.24926     -115519.25     -1.2364978     -1.1074536     -1.4189655     -0.10745204     0.044435488    0.21172747     24440.215    
    247300   310.79756      1.2365         0.00012712362  0.00011399347  0.00014572913 -1.2726251      1396.7797      1396.7797      1396.7797      2.7251083e+09  0.18398101    -116478.05     -116478.05      925.50207     -115552.55     -1.2546125     -1.1250281     -1.4382347     -0.12562344     0.054499098    0.22343422     26883.838    
    247400   311.44337      1.237          0.00012730673  0.00011426137  0.00014749761 -1.2799267      1397.092       1397.092       1397.092       2.7269364e+09  0.18385767    -116513.66     -116513.66      927.42519     -115586.24     -1.2564197     -1.127672      -1.4556883     -0.12902173     0.063410668    0.23503502     24746.264    
    247500   311.23254      1.2375         0.00012426079  0.00011167398  0.00014726137 -1.2606173      1397.4043      1397.4043      1397.4043      2.7287654e+09  0.18373444    -116548.07     -116548.07      926.79737     -115621.27     -1.2263586     -1.1021365     -1.4533567     -0.12698899     0.060374029    0.22828623     26912.938    
    247600   310.73522      1.238          0.00012467032  0.0001119285   0.00014701322 -1.2619855      1397.7165      1397.7165      1397.7165      2.7305951e+09  0.18361132    -116581.06     -116581.06      925.31643     -115655.74     -1.2304003     -1.1046484     -1.4509077     -0.13565062     0.058853534    0.22507507     24758.555    
    247700   310.79812      1.2385         0.00012420966  0.00011166043  0.00014691187 -1.2592548      1398.0288      1398.0288      1398.0288      2.7324257e+09  0.18348831    -116614.87     -116614.87      925.50372     -115689.37     -1.2258541     -1.1020028     -1.4499075     -0.12744644     0.053920121    0.23381502     26847.093    
    247800   310.35584      1.239          0.00012320112  0.00010671324  0.00014598475 -1.2366119      1398.3411      1398.3411      1398.3411      2.7342571e+09  0.18336541    -116646.96     -116646.96      924.18669     -115722.78     -1.2159005     -1.0531778     -1.4407574     -0.13375175     0.0555312      0.21368188     24699.372    
    247900   309.97597      1.2395         0.00012542444  0.00010589142  0.00014646386 -1.2427986      1398.6533      1398.6533      1398.6533      2.7360893e+09  0.18324262    -116678.42     -116678.42      923.0555      -115755.36     -1.237843      -1.045067      -1.4454859     -0.13362671     0.061354204    0.21044549     25852.192    
    248000   310.27862      1.24           0.00012398642  0.00010859667  0.00014742621 -1.2501334      1398.9656      1398.9656      1398.9656      2.7379223e+09  0.18311995    -116711.09     -116711.09      923.95676     -115787.13     -1.2236508     -1.0717658     -1.4549836     -0.11542912     0.057612034    0.23719612     6230.7501    
    248100   310.50542      1.2405         0.00012425832  0.0001079421   0.00014795222 -1.2506049      1399.2779      1399.2779      1399.2779      2.7397561e+09  0.18299737    -116743.28     -116743.28      924.63211     -115818.65     -1.2263343     -1.0653057     -1.4601748     -0.13040313     0.069075921    0.2338726      26458.225    
    248200   310.84588      1.241          0.00012581014  0.00010679065  0.00014832527 -1.2531493      1399.5901      1399.5901      1399.5901      2.7415908e+09  0.18287491    -116776.1      -116776.1       925.64596     -115850.46     -1.2416495     -1.0539418     -1.4638566     -0.14384824     0.077955019    0.22674041     23823.478    
    248300   310.73692      1.2415         0.0001222707   0.00010678441  0.00014800755 -1.2404397      1399.9024      1399.9024      1399.9024      2.7434263e+09  0.18275256    -116808.45     -116808.45      925.32149     -115883.13     -1.206718      -1.0538802     -1.4607209     -0.1469006      0.062395672    0.2292958      25986.418    
    248400   310.43235      1.242          0.00012244898  0.00010669087  0.00014676989 -1.2366469      1400.2147      1400.2147      1400.2147      2.7452625e+09  0.18263032    -116840.05     -116840.05      924.41454     -115915.64     -1.2084775     -1.052957      -1.4485062     -0.15392402     0.058172868    0.2343528      24169.085    
    248500   310.22988      1.2425         0.00012176702  0.00010548564  0.00014552325 -1.2263374      1400.527       1400.527       1400.527       2.7470997e+09  0.18250819    -116871.7      -116871.7       923.81161     -115947.89     -1.2017471     -1.0410623     -1.4362028     -0.14990663     0.049587291    0.23171417     24671.493    
    248600   309.72998      1.243          0.00012137949  0.00010410854  0.0001473213  -1.2264473      1400.8392      1400.8392      1400.8392      2.7489376e+09  0.18238616    -116901.41     -116901.41      922.323       -115979.09     -1.1979224     -1.0274714     -1.4539482     -0.14857541     0.056101132    0.23533102     26499.592    
    248700   309.9712       1.2435         0.00012311855  0.00010515462  0.00015075477 -1.246905       1401.1515      1401.1515      1401.1515      2.7507764e+09  0.18226425    -116931.86     -116931.86      923.04131     -116008.81     -1.2150856     -1.0377954     -1.4878339     -0.13470523     0.066910293    0.25109366     24844.517    
    248800   310.64118      1.244          0.00012309857  0.00010689748  0.00015180697 -1.2560343      1401.4638      1401.4638      1401.4638      2.7526159e+09  0.18214244    -116963.44     -116963.44      925.03639     -116038.4      -1.2148885     -1.0549961     -1.4982183     -0.12746416     0.069449941    0.26681089     26956.241    
    248900   310.79946      1.2445         0.00012035231  0.00010506232  0.00014905403 -1.2319061      1401.776       1401.776       1401.776       2.7544563e+09  0.18202074    -116994.6      -116994.6       925.50773     -116069.09     -1.187785      -1.0368845     -1.4710489     -0.13296076     0.064045984    0.26209934     24818.724    
    249000   310.08214      1.245          0.00011834648  0.00010195976  0.00014603506 -1.2051691      1402.0883      1402.0883      1402.0883      2.7562975e+09  0.18189915    -117023.84     -117023.84      923.37166     -116100.46     -1.1679889     -1.0062646     -1.4412539     -0.13054281     0.056853079    0.2510371      2764.4614    
    249100   309.4992       1.2455         0.00011634759  0.00010163423  0.00014528375 -1.1950508      1402.4006      1402.4006      1402.4006      2.7581396e+09  0.18177767    -117052.76     -117052.76      921.63576     -116131.12     -1.1482614     -1.0030519     -1.4338391     -0.14936016     0.064174638    0.26376943     11329.325    
    249200   309.32768      1.246          0.00011553491  0.00010148076  0.00014437764 -1.1888916      1402.7128      1402.7128      1402.7128      2.7599824e+09  0.18165629    -117082.08     -117082.08      921.12501     -116160.95     -1.140241      -1.0015372     -1.4248966     -0.15627465     0.064563604    0.27018067     12218.067    
    249300   309.39742      1.2465         0.00011708049  9.8428832e-05  0.0001426358  -1.1782058      1403.0251      1403.0251      1403.0251      2.7618261e+09  0.18153503    -117111.57     -117111.57      921.33267     -116190.24     -1.1554946     -0.97141705    -1.4077059     -0.15215266     0.063150846    0.25550717     14796.296    
    249400   309.09537      1.247          0.00011562121  9.7020829e-05  0.0001412333  -1.1641593      1403.3374      1403.3374      1403.3374      2.7636706e+09  0.18141387    -117139.07     -117139.07      920.43323     -116218.64     -1.1410926     -0.95752114    -1.3938643     -0.14567776     0.052927863    0.25201152     22545.688    
    249500   309.43619      1.2475         0.00011615644  9.8755589e-05  0.00014246719 -1.1756862      1403.6496      1403.6496      1403.6496      2.7655159e+09  0.18129282    -117167.6      -117167.6       921.44813     -116246.15     -1.1463749     -0.97464189    -1.4060418     -0.13981269     0.056012243    0.27009472     22246.347    
    249600   309.94204      1.248          0.00011454845  9.8373502e-05  0.00014308785 -1.1711812      1403.9619      1403.9619      1403.9619      2.767362e+09   0.18117188    -117197.06     -117197.06      922.95447     -116274.11     -1.1305053     -0.97087098    -1.4121673     -0.1358609      0.057300974    0.2715604      25470.686    
    249700   310.19261      1.2485         0.00011442271  9.8537366e-05  0.00014146134 -1.1659558      1404.2742      1404.2742      1404.2742      2.769209e+09   0.18105104    -117226.44     -117226.44      923.70062     -116302.74     -1.1292643     -0.9724882     -1.3961148     -0.14299097     0.061784693    0.27205184     24732.298    
    249800   310.03857      1.249          0.00011128525  9.8806372e-05  0.00013885256 -1.1479371      1404.5865      1404.5865      1404.5865      2.7710568e+09  0.18093031    -117255.56     -117255.56      923.24191     -116332.31     -1.0983        -0.97514308    -1.3703683     -0.14343522     0.048573361    0.27237475     26988.404    
    249900   309.57508      1.2495         0.00011106086  9.8558262e-05  0.00013893273 -1.1466464      1404.8987      1404.8987      1404.8987      2.7729054e+09  0.18080969    -117283.47     -117283.47      921.86172     -116361.61     -1.0960855     -0.97269442    -1.3711594     -0.1483945      0.050961766    0.27328218     24830.698    
    250000   309.65035      1.25           0.00011130233  9.6737302e-05  0.00014094497 -1.1480701      1405.211       1405.211       1405.211       2.7747548e+09  0.18068918    -117312.72     -117312.72      922.08588     -116390.64     -1.0984686     -0.95472294    -1.3910187     -0.1500033      0.058367698    0.26788775     7181.3358    
Loop time of 24.743 on 1 procs for 250000 steps with 1000 atoms

Performance: 872.975 ns/day, 0.027 hours/ns, 10103.872 timesteps/s
88.4% CPU use with 1 MPI tasks x 1 OpenMP threads

MPI task timing breakdown:
Section |  min time  |  avg time  |  max time  |%varavg| %total
---------------------------------------------------------------
Pair    | 11.529     | 11.529     | 11.529     |   0.0 | 46.59
Neigh   | 0.67289    | 0.67289    | 0.67289    |   0.0 |  2.72
Comm    | 0.96625    | 0.96625    | 0.96625    |   0.0 |  3.91
Output  | 4.0694     | 4.0694     | 4.0694     |   0.0 | 16.45
Modify  | 6.5512     | 6.5512     | 6.5512     |   0.0 | 26.48
Other   |            | 0.9546     |            |       |  3.86

Nlocal:           1000 ave        1000 max        1000 min
Histogram: 1 0 0 0 0 0 0 0 0 0
Nghost:            524 ave         524 max         524 min
Histogram: 1 0 0 0 0 0 0 0 0 0
Neighs:            108 ave         108 max         108 min
Histogram: 1 0 0 0 0 0 0 0 0 0

Total # of neighbors = 108
Ave neighs/atom = 0.108
Neighbor list builds = 1303
Dangerous builds = 0

# restart file
write_restart ./tensile/restart/restart_${usic}_${trial}.tensile.restart
write_restart ./tensile/restart/restart_1_${trial}.tensile.restart
write_restart ./tensile/restart/restart_1_1.tensile.restart
System init for write_restart ...
Generated 0 of 1 mixed pair_coeff terms from geometric mixing rule
Total wall time: 0:00:24
