LAMMPS (23 Jun 2022 - Update 1)
OMP_NUM_THREADS environment is not set. Defaulting to 1 thread. (src/comm.cpp:98)
  using 1 OpenMP thread(s) per MPI task
###

# Read restart info
read_restart ${read_res}
read_restart ./300700/equpmf71.res
Reading restart file ...
  restart file = 23 Jun 2022, LAMMPS = 23 Jun 2022
WARNING: Restart file used different # of processors: 8 vs. 1 (src/read_restart.cpp:654)
  restoring atom style atomic from restart
  orthogonal box = (2127.2183 2127.2183 2127.2183) to (2872.7817 2872.7817 2872.7817)
  1 by 1 by 1 MPI processor grid
  restoring pair style table from restart
  1000 atoms
  read_restart CPU = 0.067 seconds

# Settings
pair_style table/pgn spline 9941
pair_coeff 1 1 N20.txt DE_GNP 147.89 75.6
pair_coeff 2 2 N100.txt DE_GNP 473.9 115.92
WARNING: 3 of 9941 force values in table DE_GNP are inconsistent with -dE/dr.
WARNING:  Should only be flagged at inflection points (src/pair_table_pgn.cpp:478)
pair_coeff 1 2 mixed_potential.txt DE_GNP 391.2 95.66
WARNING: 1562 of 9941 force values in table DE_GNP are inconsistent with -dE/dr.
WARNING:  Should only be flagged at inflection points (src/pair_table_pgn.cpp:478)

# Neighbor list
neighbor 2.0 bin
neigh_modify delay 0 every 1 check yes

# Temperature
variable T equal ${Temp}
variable T equal 300

# Deformation
reset_timestep 0
variable tmp equal "lx"
variable L0 equal ${tmp}
variable L0 equal 745.563452618781
variable strain equal "(lx - v_L0)/v_L0"
variable stp equal "step"
variable tmpe equal "temp"
variable p1 equal "v_strain"
variable p2 equal "-pxx*1.01325/10000"
variable p3 equal "-pyy*1.01325/10000"
variable p4 equal "-pzz*1.01325/10000"
variable p5 equal "lx"
variable p6 equal "ly"
variable p7 equal "lz"
variable p8 equal "press"
variable p9 equal "epair"
variable p10 equal "etotal"

# Thermo
thermo_style custom step temp v_p1 v_p2 v_p3 v_p4 press lx ly lz vol density epair pe ke etotal pxx pyy pzz pxy pxz pyz spcpu
thermo ${ts_save}
thermo 100

# Dump
dump 1 all custom 1000 ./tensile/trajectory/trajectory_${usic}_${trial}_*.tensile.custom id type x y z ix iy iz
dump 1 all custom 1000 ./tensile/trajectory/trajectory_1_${trial}_*.tensile.custom id type x y z ix iy iz
dump 1 all custom 1000 ./tensile/trajectory/trajectory_1_1_*.tensile.custom id type x y z ix iy iz
dump_modify 1 sort id
dump 2 all cfg 1000 ./tensile/trajectory/ovito/dumpten.tens_*.cfg mass type xs ys zs fx fy fz
dump_modify 2 element N20 N100

fix 1 all nvt temp ${T} ${T} 100
fix 1 all nvt temp 300 ${T} 100
fix 1 all nvt temp 300 300 100
fix 2 all deform 1 x erate ${strain_rate} y erate ${strain_rate} z erate ${strain_rate} units box
fix 2 all deform 1 x erate 5e-6 y erate ${strain_rate} z erate ${strain_rate} units box
fix 2 all deform 1 x erate 5e-6 y erate 5e-6 z erate ${strain_rate} units box
fix 2 all deform 1 x erate 5e-6 y erate 5e-6 z erate 5e-6 units box
fix             def1 all print ${ts_save} "${p1} ${p2} ${p3} ${p4}" file tensile${N20}${N100}_${usic}_${trial}.txt screen no
fix             def1 all print 100 "${p1} ${p2} ${p3} ${p4}" file tensile${N20}${N100}_${usic}_${trial}.txt screen no
fix             def1 all print 100 "${p1} ${p2} ${p3} ${p4}" file tensile300${N100}_${usic}_${trial}.txt screen no
fix             def1 all print 100 "${p1} ${p2} ${p3} ${p4}" file tensile300700_${usic}_${trial}.txt screen no
fix             def1 all print 100 "${p1} ${p2} ${p3} ${p4}" file tensile300700_1_${trial}.txt screen no
fix             def1 all print 100 "${p1} ${p2} ${p3} ${p4}" file tensile300700_1_1.txt screen no

timestep       		${ts}
timestep       		1
run				${steps_tensile}
run				250000
Generated 0 of 1 mixed pair_coeff terms from geometric mixing rule
Unused restart file global fix info:
  fix style: npt, fix ID: 5
Neighbor list info ...
  update every 1 steps, delay 0 steps, check yes
  max neighbors/atom: 2000, page size: 100000
  master list distance cutoff = 117.92
  ghost atom cutoff = 117.92
  binsize = 58.96, bins = 13 13 13
  1 neighbor lists, perpetual/occasional/extra = 1 0 0
  (1) pair table/pgn, perpetual
      attributes: half, newton on
      pair build: half/bin/atomonly/newton
      stencil: half/bin/3d
      bin: standard
Per MPI rank memory allocation (min/avg/max) = 5.815 | 5.815 | 5.815 Mbytes
   Step          Temp           v_p1           v_p2           v_p3           v_p4          Press            Lx             Ly             Lz           Volume        Density         E_pair         PotEng         KinEng         TotEng          Pxx            Pyy            Pzz            Pxy            Pxz            Pyz           S/CPU     
         0   306.95004      6.0993783e-16  0.0027442413   0.010108178    0.01188055    -81.365143      745.56345      745.56345      745.56345      4.1443253e+08  1.4504174     -40644437      -40644437       914.0448      -40643523      -27.083556     -99.759962     -117.25191      18.14975       8.2001751      4.8132009      0            
       100   334.25519      0.0005         0.0099789129   0.017079982    0.019021857   -151.59389      745.93623      745.93623      745.93623      4.1505449e+08  1.4482439     -40643526      -40643526       995.35488     -40642531      -98.484213     -168.56632     -187.73113      18.204955      7.1215336      4.8831567      6358.4667    
       200   373.70591      0.001          0.01682356     0.023446931    0.025611155   -216.73376      746.30902      746.30902      746.30902      4.1567707e+08  1.4460748     -40617948      -40617948       1112.8324     -40616836      -166.03563     -231.40322     -252.76245      18.331664      6.6244362      5.1134598      6108.2165    
       300   406.45387      0.0015         0.023136652    0.02959787     0.031722467   -277.84189      746.6818       746.6818       746.6818       4.1630027e+08  1.44391       -40616022      -40616022       1210.3502     -40614812      -228.341       -292.10827     -313.0764       18.581412      5.7115787      5.4616742      6436.1582    
       400   427.23939      0.002          0.029031624    0.035321989    0.037529406   -335.16907      747.05458      747.05458      747.05458      4.169241e+08   1.4417496     -40560865      -40560865       1272.2459     -40559593      -286.51985     -348.60092     -370.38644      18.02733       4.7970475      4.8264326      6095.4149    
       500   436.22927      0.0025         0.035322243    0.041382988    0.043519187   -395.50758      747.42736      747.42736      747.42736      4.1754855e+08  1.4395934     -40528414      -40528414       1299.0163     -40527115      -348.60343     -408.41834     -429.50098      17.154759      3.5192094      3.1993327      6133.8724    
       600   436.53476      0.003          0.041885976    0.047599195    0.049606499   -457.57602      747.80014      747.80014      747.80014      4.1817362e+08  1.4374416     -40524948      -40524948       1299.926      -40523648      -413.38244     -469.76753     -489.57808      16.729293      3.8757384      2.8539559      6426.7575    
       700   431.92439      0.0035         0.047985589    0.053507237    0.055389748   -516.10354      748.17292      748.17292      748.17292      4.1879932e+08  1.435294      -40517259      -40517259       1286.1971     -40515973      -473.58094     -528.07537     -546.65431      16.460149      4.1297613      3.0259918      6065.2222    
       800   425.40978      0.004          0.053539534    0.059028725    0.060915448   -570.71702      748.54571      748.54571      748.54571      4.1942564e+08  1.4331507     -40474377      -40474377       1266.7977     -40473110      -528.39412     -582.56822     -601.18872      17.471995      3.8338207      3.7018798      6134.3311    
       900   418.65722      0.0045         0.05924899     0.0647272      0.066723863   -627.3544       748.91849      748.91849      748.91849      4.2005258e+08  1.4310117     -40469339      -40469339       1246.6897     -40468092      -584.74207     -638.8078      -658.51332      17.107693      2.9150414      3.5508684      6451.215     
      1000   412.72378      0.005          0.065045292    0.070415212    0.072395072   -683.79168      749.29127      749.29127      749.29127      4.2068015e+08  1.4288769     -40455676      -40455676       1229.0209     -40454447      -641.94712     -694.94411     -714.48381      16.671334      1.9641637      3.7114141      4124.2811    
      1100   407.63226      0.0055         0.070893787    0.076058979    0.077981553   -739.97638      749.66405      749.66405      749.66405      4.2130834e+08  1.4267464     -40449579      -40449579       1213.8593     -40448365      -699.66728     -750.64376     -769.61809      16.370797      1.0865059      3.6648451      6233.2551    
      1200   403.22743      0.006          0.076397687    0.081403307    0.083076704   -792.42602      750.03683      750.03683      750.03683      4.2193716e+08  1.4246201     -40411904      -40411904       1200.7424     -40410704      -753.98655     -803.38817     -819.90332      16.299951      1.2712242      2.5062087      6110.6011    
      1300   400.61671      0.0065         0.081494912    0.086483741    0.088176892   -842.68623      750.40962      750.40962      750.40962      4.225666e+08   1.422498      -40361048      -40361048       1192.9682     -40359855      -804.29225     -853.52816     -870.23826      15.545608      0.48775182     2.3996507      6073.2952    
      1400   399.49538      0.007          0.0867455      0.091583587    0.093338671   -893.71744      750.7824       750.7824       750.7824       4.2319667e+08  1.4203801     -40353516      -40353516       1189.629      -40352327      -856.11152     -903.85973     -921.18107      15.78206       0.5804898      1.4265408      6450.0399    
      1500   399.00851      0.0075         0.091612149    0.096455967    0.098207856   -941.77472      751.15518      751.15518      751.15518      4.2382737e+08  1.4182665     -40312406      -40312406       1188.1792     -40311218      -904.14161     -951.94638     -969.23618      15.632159      0.18620022     1.7529421      6153.8973    
      1600   399.09452      0.008          0.096295861    0.10124459     0.10288245    -988.31449      751.52796      751.52796      751.52796      4.2445869e+08  1.416157      -40265274      -40265274       1188.4353     -40264086      -950.36626     -999.20638     -1015.3708      15.24336      -0.12477855     3.2498973      6162.7569    
      1700   399.72428      0.0085         0.10126777     0.10607607     0.10765091    -1036.2521      751.90074      751.90074      751.90074      4.2509064e+08  1.4140517     -40256398      -40256398       1190.3106     -40255207      -999.43519     -1046.8894     -1062.4319      14.119386     -0.79977144     4.1341422      6467.5791    
      1800   400.95371      0.009          0.1061485      0.11081634     0.11230247    -1083.2053      752.27352      752.27352      752.27352      4.2572321e+08  1.4119506     -40230549      -40230549       1193.9717     -40229355      -1047.6043     -1093.6723     -1108.3392      13.168249     -2.0631945      4.1506256      6143.4258    
      1900   402.63636      0.0095         0.11075401     0.11536524     0.11681111    -1128.1532      752.64631      752.64631      752.64631      4.2635642e+08  1.4098536     -40184282      -40184282       1198.9823     -40183083      -1093.0571     -1138.5664     -1152.836       12.379884     -3.5140543      5.0758344      6042.5914    
      2000   404.67356      0.01           0.11540773     0.11977487     0.12132456    -1172.8174      753.01909      753.01909      753.01909      4.2699025e+08  1.4077608     -40174131      -40174131       1205.0488     -40172926      -1138.9858     -1182.086      -1197.3803      12.611794     -3.4756821      5.1135354      3604.2438    
      2100   407.23973      0.0105         0.11978087     0.12391812     0.12545374    -1214.418       753.39187      753.39187      753.39187      4.276247e+08   1.4056722     -40125235      -40125235       1212.6904     -40124022      -1182.1453     -1222.9767     -1238.1321      12.308602     -4.2873801      4.4982812      5981.7782    
      2200   410.04899      0.011          0.12415635     0.12827126     0.1296845     -1257.0511      753.76465      753.76465      753.76465      4.2825979e+08  1.4035876     -40114302      -40114302       1221.0559     -40113081      -1225.3279     -1265.9389     -1279.8865      11.868498     -4.0208592      3.6582405      6496.1522    
      2300   412.8508       0.0115         0.12839173     0.13256317     0.13364108    -1298.1199      754.13743      754.13743      754.13743      4.288955e+08   1.4015072     -40095362      -40095362       1229.3992     -40094132      -1267.1278     -1308.2968     -1318.935       11.894924     -4.1803151      4.0051278      6171.7853    
      2400   415.51521      0.012          0.13239279     0.13653087     0.13760565    -1337.3775      754.51021      754.51021      754.51021      4.2953185e+08  1.3994309     -40039727      -40039727       1237.3334     -40038489      -1306.6153     -1347.455      -1358.0622      11.336819     -5.1794228      5.8055831      6137.5139    
      2500   418.30324      0.0125         0.13654373     0.14052967     0.14178678    -1377.9429      754.883        754.883        754.883        4.3016882e+08  1.3973587     -40027658      -40027658       1245.6356     -40026412      -1347.5819     -1386.92       -1399.3267      11.245849     -6.2630483      6.0626247      6513.7346    
      2600   421.54962      0.013          0.14053114     0.14425305     0.14570663    -1416.2047      755.25578      755.25578      755.25578      4.3080642e+08  1.3952906     -40000390      -40000390       1255.3028     -39999134      -1386.9345     -1423.6669     -1438.0127      10.872858     -6.3797741      7.3561435      6152.4896    
      2700   424.90129      0.0135         0.14434722     0.14804396     0.14937509    -1453.298       755.62856      755.62856      755.62856      4.3144465e+08  1.3932265     -39970879      -39970879       1265.2835     -39969614      -1424.5963     -1461.0803     -1474.2175      10.37385      -7.136183       8.1429403      6190.9818    
      2800   428.04064      0.014          0.14819131     0.15179261     0.15304605    -1490.3527      756.00134      756.00134      756.00134      4.3208352e+08  1.3911666     -39957750      -39957750       1274.6319     -39956475      -1462.5345     -1498.0766     -1510.4471      9.3095822     -7.0552332      8.5943956      6473.9116    
      2900   431.16658      0.0145         0.15205813     0.15551898     0.15656853    -1526.9204      756.37412      756.37412      756.37412      4.3272301e+08  1.3891107     -39944131      -39944131       1283.9404     -39942847      -1500.6971     -1534.853      -1545.2112      8.7850833     -6.9095978      8.7870719      6185.146     
      3000   434.03949      0.015          0.15581354     0.15919876     0.16000558    -1562.6873      756.7469       756.7469       756.7469       4.3336313e+08  1.3870588     -39930322      -39930322       1292.4955     -39929030      -1537.7601     -1571.1696     -1579.1323      8.8104703     -7.4790447      8.9111703      3108.0731    
      3100   436.52955      0.0155         0.15931749     0.16249204     0.16342831    -1596.3084      757.11969      757.11969      757.11969      4.3400388e+08  1.385011      -39896011      -39896011       1299.9105     -39894711      -1572.3414     -1603.6717     -1612.912       8.8216991     -8.5715201      9.1571978      5179.1279    
      3200   438.89249      0.016          0.16276571     0.16576477     0.16669719    -1629.1724      757.49247      757.49247      757.49247      4.3464527e+08  1.3829672     -39866868      -39866868       1306.9469     -39865561      -1606.3727     -1635.9711     -1645.1734      7.9702379     -9.3138755      8.8634276      6178.912     
      3300   441.2878       0.0165         0.16617749     0.16900919     0.16995415    -1661.7841      757.86525      757.86525      757.86525      4.3528729e+08  1.3809274     -39852105      -39852105       1314.0797     -39850791      -1640.0443     -1667.991      -1677.317       7.2643232     -9.5698307      8.0216304      6516.1531    
      3400   443.8461       0.017          0.16923598     0.17187476     0.17288954    -1690.9294      758.23803      758.23803      758.23803      4.3592993e+08  1.3788916     -39791579      -39791579       1321.6979     -39790257      -1670.2292     -1696.272      -1706.2871      7.2748301     -9.3102408      8.231179       6193.4177    
      3500   446.72709      0.0175         0.1720907      0.17479096     0.1758691     -1719.7163      758.61081      758.61081      758.61081      4.3657321e+08  1.3768599     -39730437      -39730437       1330.277      -39729107      -1698.4031     -1725.0527     -1735.693       8.635467      -8.5679134      9.7804207      6157.7758    
      3600   449.42779      0.018          0.17532483     0.17794306     0.17897773    -1750.952       758.98359      758.98359      758.98359      4.3721713e+08  1.3748321     -39714837      -39714837       1338.3192     -39713499      -1730.3215     -1756.1615     -1766.3729      8.4979181     -8.5455142      10.19834       6427.6349    
      3700   451.71998      0.0185         0.17841064     0.18102399     0.18183564    -1780.6408      759.35638      759.35638      759.35638      4.3786167e+08  1.3728083     -39682411      -39682411       1345.145      -39681066      -1760.7761     -1786.5679     -1794.5783      6.8509086     -7.9672523      10.337337      6181.9281    
      3800   453.99994      0.019          0.18120707     0.18378115     0.18460091    -1808.0077      759.72916      759.72916      759.72916      4.3850685e+08  1.3707885     -39640592      -39640592       1351.9343     -39639240      -1788.3747     -1813.7789     -1821.8693      6.0227791     -7.8984895      10.499238      6213.6173    
      3900   456.23092      0.0195         0.18402766     0.18649156     0.18730071    -1835.0849      760.10194      760.10194      760.10194      4.3915267e+08  1.3687726     -39624159      -39624159       1358.5778     -39622800      -1816.2118     -1840.5286     -1848.5143      6.0173922     -9.2147947      10.534331      6543.423     
      4000   458.32593      0.02           0.18668389     0.18883407     0.18990167    -1860.0859      760.47472      760.47472      760.47472      4.3979911e+08  1.3667607     -39589248      -39589248       1364.8164     -39587883      -1842.4267     -1863.6473     -1874.1838      6.4044552     -10.316207      11.474603      3547.7606    
      4100   460.23275      0.0205         0.18928896     0.19148908     0.19252192    -1886.0102      760.8475       760.8475       760.8475       4.4044619e+08  1.3647527     -39572321      -39572321       1370.4945     -39570950      -1868.1368     -1889.8503     -1900.0436      6.0762275     -10.685356      11.998579      5958.2587    
      4200   462.03249      0.021          0.19195716     0.19414401     0.19507763    -1911.9296      761.22029      761.22029      761.22029      4.4109391e+08  1.3627487     -39538424      -39538424       1375.8538     -39537048      -1894.4699     -1916.0524     -1925.2665      5.9424705     -10.3803        11.878483      6192.5417    
      4300   463.73886      0.0215         0.19465756     0.1967197      0.19754518    -1937.4042      761.59307      761.59307      761.59307      4.4174226e+08  1.3607486     -39504612      -39504612       1380.9351     -39503231      -1921.1208     -1941.4725     -1949.6194      6.4511115     -9.9060679      10.780747      6181.9017    
      4400   465.78124      0.022          0.19722663     0.199139       0.1998998     -1961.5608      761.96585      761.96585      761.96585      4.4239124e+08  1.3587524     -39486951      -39486951       1387.017      -39485564      -1946.4755     -1965.3492     -1972.8576      6.6670426     -9.3442251      10.257821      6552.2856    
      4500   468.02222      0.0225         0.199636       0.20143023     0.20203052    -1984.034       762.33863      762.33863      762.33863      4.4304086e+08  1.3567601     -39461645      -39461645       1393.6903     -39460252      -1970.2541     -1987.9618     -1993.8862      6.4285138     -9.7765199      10.558504      6231.9228    
      4600   469.91423      0.023          0.20174145     0.20351301     0.20416372    -2004.8299      762.71141      762.71141      762.71141      4.4369112e+08  1.3547716     -39412608      -39412608       1399.3243     -39411208      -1991.0333     -2008.5173     -2014.9393      6.2267009     -11.503598      10.946685      6233.7556    
      4700   471.37777      0.0235         0.20390455     0.20565381     0.20642646    -2026.4325      763.08419      763.08419      763.08419      4.4434201e+08  1.3527871     -39394301      -39394301       1403.6825     -39392897      -2012.3815     -2029.6453     -2037.2707      5.9644926     -12.083342      10.907069      6498.6459    
      4800   472.57819      0.024          0.20597384     0.20774279     0.20854303    -2047.0751      763.45698      763.45698      763.45698      4.4499354e+08  1.3508065     -39361230      -39361230       1407.2571     -39359823      -2032.8038     -2050.2619     -2058.1597      5.4786027     -12.158557      10.606579      6070.0337    
      4900   473.7728       0.0245         0.20785262     0.20964161     0.21049507    -2065.9242      763.82976      763.82976      763.82976      4.456457e+08   1.3488297     -39303992      -39303992       1410.8145     -39302581      -2051.3458     -2069.0018     -2077.4248      5.812959      -13.244872      10.593207      6225.648     
      5000   475.15207      0.025          0.21007501     0.21175515     0.21231792    -2086.185       764.20254      764.20254      764.20254      4.462985e+08   1.3468567     -39285065      -39285065       1414.9217     -39283651      -2073.2791     -2089.8609     -2095.4149      5.9471925     -14.042579      10.646547      3587.5754    
      5100   476.50772      0.0255         0.21213583     0.21369601     0.21405184    -2105.0536      764.57532      764.57532      764.57532      4.4695194e+08  1.3448877     -39258524      -39258524       1418.9586     -39257105      -2093.6178     -2109.0156     -2112.5275      6.297213      -14.23432       10.098756      5294.9398    
      5200   477.87626      0.026          0.21398341     0.21556939     0.21585179    -2123.216       764.9481       764.9481       764.9481       4.4760602e+08  1.3429224     -39239225      -39239225       1423.0339     -39237802      -2111.8521     -2127.5044     -2130.2916      6.5799725     -13.800638      10.057723      6562.6009    
      5300   479.05117      0.0265         0.21555517     0.2172668      0.21732651    -2138.8222      765.32088      765.32088      765.32088      4.4826073e+08  1.340961      -39167018      -39167018       1426.5326     -39165591      -2127.3641     -2144.2566     -2144.8459      6.6800696     -12.447796      9.5009416      5589.1445    
      5400   480.13225      0.027          0.21721969     0.21886994     0.21905974    -2155.2739      765.69367      765.69367      765.69367      4.4891608e+08  1.3390034     -39125085      -39125085       1429.7518     -39123655      -2143.7916     -2160.0784     -2161.9515      6.8233607     -12.517765      9.2402858      6215.6678    
      5500   481.26622      0.0275         0.21891043     0.2204673      0.22075052    -2171.6531      766.06645      766.06645      766.06645      4.4957207e+08  1.3370496     -39105285      -39105285       1433.1286     -39103852      -2160.478      -2175.843      -2178.6382      6.6889509     -12.947953      8.850896       6583.311     
      5600   482.42378      0.028          0.22042691     0.22181315     0.22228332    -2186.112       766.43923      766.43923      766.43923      4.502287e+08   1.3350996     -39063357      -39063357       1436.5756     -39061921      -2175.4445     -2189.1256     -2193.7658      7.3371469     -12.608833      8.3766761      6222.3862    
      5700   482.17646      0.0285         0.22115415     0.22242395     0.22288379    -2192.4891      766.81201      766.81201      766.81201      4.5088597e+08  1.3331534     -38973240      -38973240       1435.8392     -38971804      -2182.6218     -2195.1537     -2199.692       2.9405291     -13.309062      5.7525627      6199.0838    
      5800   478.63765      0.029          0.22282505     0.2239942      0.22428476    -2207.7605      767.18479      767.18479      767.18479      4.5154388e+08  1.3312109     -38953030      -38953030       1425.3012     -38951604      -2199.1122     -2210.6509     -2213.5185      3.1213688     -13.305934      6.5465162      6536.668     
      5900   480.79178      0.0295         0.22403248     0.22518618     0.22547587    -2219.5724      767.55757      767.55757      767.55757      4.5220242e+08  1.3292723     -38880868      -38880868       1431.7158     -38879436      -2211.0287     -2222.4148     -2225.2738      4.4240449     -12.894275      7.9602916      6170.4018    
      6000   483.65943      0.03           0.22534186     0.22652494     0.22669164    -2232.2837      767.93036      767.93036      767.93036      4.5286161e+08  1.3273374     -38860400      -38860400       1440.2552     -38858960      -2223.9512     -2235.6273     -2237.2726      4.3551411     -13.704604      7.821106       1455.5595    
      6100   485.80574      0.0305         0.2262631      0.22758317     0.22776003    -2242.3104      768.30314      768.30314      768.30314      4.5352144e+08  1.3254062     -38803006      -38803006       1446.6465     -38801560      -2233.0432     -2246.0712     -2247.8167      2.7184725     -13.09486       6.2858128      2937.6199    
      6200   487.24679      0.031          0.22736992     0.22849851     0.22877218    -2252.2925      768.67592      768.67592      768.67592      4.5418191e+08  1.3234788     -38756463      -38756463       1450.9377     -38755012      -2243.9667     -2255.1049     -2257.8059      1.5912034     -13.195251      6.3754205      6017.534     
      6300   488.1387       0.0315         0.22856371     0.22956249     0.23000621    -2263.7796      769.0487       769.0487       769.0487       4.5484301e+08  1.3215552     -38735651      -38735651       1453.5937     -38734198      -2255.7484     -2265.6056     -2269.9848      0.80080275    -12.905188      6.1323329      6600.4257    
      6400   488.34931      0.032          0.22970986     0.23055938     0.23096787    -2273.9933      769.42148      769.42148      769.42148      4.5550476e+08  1.3196353     -38676524      -38676524       1454.2208     -38675070      -2267.0601     -2275.4442     -2279.4756      1.4195782     -12.029575      5.811388       6292.2584    
      6500   488.39719      0.0325         0.23075677     0.23166265     0.23189486    -2284.1164      769.79426      769.79426      769.79426      4.5616716e+08  1.317719      -38646078      -38646078       1454.3634     -38644624      -2277.3922     -2286.3326     -2288.6243      2.6653452     -11.520551      6.0564162      6237.0943    
      6600   488.83261      0.033          0.23165348     0.23260248     0.23264647    -2292.6307      770.16705      770.16705      770.16705      4.5683019e+08  1.3158065     -38624928      -38624928       1455.66       -38623472      -2286.2421     -2295.608      -2296.0422      2.9240787     -10.957339      6.9333408      6571.1934    
      6700   489.27867      0.0335         0.23245892     0.23330667     0.23335547    -2299.9295      770.53983      770.53983      770.53983      4.5749387e+08  1.3138977     -38579541      -38579541       1456.9883     -38578084      -2294.1912     -2302.5578     -2303.0395      2.3682089     -9.912743       8.125462       6222.5113    
      6800   489.42427      0.034          0.23326388     0.23405934     0.23410687    -2307.5256      770.91261      770.91261      770.91261      4.5815818e+08  1.3119926     -38550785      -38550785       1457.4219     -38549328      -2302.1355     -2309.9861     -2310.4551      1.4688928     -10.146981      8.280214       6262.9043    
      6900   489.50748      0.0345         0.23408252     0.2347249      0.23481647    -2314.7426      771.28539      771.28539      771.28539      4.5882315e+08  1.3100912     -38529366      -38529366       1457.6697     -38527908      -2310.2148     -2316.5547     -2317.4583      2.1303461     -10.135645      7.0261633      6615.217     
      7000   489.39432      0.035          0.2349036      0.23527218     0.23554801    -2321.6507      771.65817      771.65817      771.65817      4.5948875e+08  1.3081934     -38502205      -38502205       1457.3327     -38500748      -2318.3182     -2321.9559     -2324.6781      3.4832502     -10.609184      5.6405626      4127.8789    
      7100   489.06988      0.0355         0.23568904     0.23588019     0.23628331    -2328.6538      772.03096      772.03096      772.03096      4.60155e+08    1.3062993     -38480620      -38480620       1456.3666     -38479164      -2326.0699     -2327.9564     -2331.935       3.751856      -10.992222      5.6654396      6588.1174    
      7200   488.87386      0.036          0.23615005     0.23629521     0.23687948    -2333.497       772.40374      772.40374      772.40374      4.6082189e+08  1.3044088     -38436985      -38436985       1455.7829     -38435529      -2330.6197     -2332.0524     -2337.8187      3.711037      -11.076329      6.6946784      6289.392     
      7300   488.80672      0.0365         0.23646095     0.23655857     0.23720918    -2336.4708      772.77652      772.77652      772.77652      4.6148942e+08  1.302522      -38369423      -38369423       1455.5829     -38367967      -2333.6881     -2334.6515     -2341.0726      4.3678154     -11.558418      6.9890086      6251.9287    
      7400   488.53296      0.037          0.23691633     0.23705994     0.23767955    -2341.1656      773.1493       773.1493       773.1493       4.621576e+08   1.3006389     -38347626      -38347626       1454.7677     -38346171      -2338.1824     -2339.5998     -2345.7147      3.8306383     -11.143682      7.7140655      6591.1188    
      7500   488.39367      0.0375         0.23728591     0.23735781     0.23786676    -2343.9772      773.52208      773.52208      773.52208      4.6282643e+08  1.2987593     -38310755      -38310755       1454.3529     -38309300      -2341.8299     -2342.5394     -2347.5624      3.8952895     -10.488845      7.7619669      6307.7578    
      7600   488.17584      0.038          0.23758681     0.23747846     0.23800461    -2345.8175      773.89486      773.89486      773.89486      4.634959e+08   1.2968834     -38266918      -38266918       1453.7043     -38265464      -2344.7995     -2343.7302     -2348.9229      3.7211837     -10.172897      7.1841576      6321.9821    
      7700   487.64915      0.0385         0.23794192     0.23770411     0.23824866    -2348.5309      774.26765      774.26765      774.26765      4.6416601e+08  1.2950111     -38245009      -38245009       1452.1359     -38243557      -2348.3041     -2345.9572     -2351.3315      3.7602237     -10.446283      6.2067263      6592.6236    
      7800   486.98248      0.039          0.23799965     0.2378198      0.23842554    -2349.6833      774.64043      774.64043      774.64043      4.6483677e+08  1.2931424     -38199392      -38199392       1450.1507     -38197942      -2348.8739     -2347.0989     -2353.0772      3.3743628     -10.594494      6.0019987      6308.2603    
      7900   486.49284      0.0395         0.23810747     0.23788612     0.23845496    -2350.353       775.01321      775.01321      775.01321      4.6550818e+08  1.2912773     -38177402      -38177402       1448.6926     -38175954      -2349.9381     -2347.7535     -2353.3675      3.8392522     -10.770732      6.6215896      6640.0211    
      8000   486.57198      0.04           0.23808133     0.23764758     0.23838054    -2349.2374      775.38599      775.38599      775.38599      4.6618023e+08  1.2894158     -38126016      -38126016       1448.9283     -38124568      -2349.6801     -2345.3992     -2352.633       4.6128434     -10.669908      7.4445324      3967.534     
      8100   486.26431      0.0405         0.23802628     0.23747364     0.23835583    -2348.4028      775.75877      775.75877      775.75877      4.6685293e+08  1.2875578     -38079223      -38079223       1448.0121     -38077775      -2349.1367     -2343.6826     -2352.3892      3.9576177     -10.735833      7.5655161      6293.5708    
      8200   485.37682      0.041          0.23801335     0.23743358     0.23840701    -2348.3969      776.13155      776.13155      776.13155      4.6752627e+08  1.2857035     -38057183      -38057183       1445.3693     -38055737      -2349.0091     -2343.2872     -2352.8942      3.2025067     -10.539586      6.6981162      6659.6062    
      8300   484.32651      0.0415         0.23769981     0.23721483     0.23826927    -2346.1927      776.50434      776.50434      776.50434      4.6820027e+08  1.2838526     -37996643      -37996643       1442.2416     -37995200      -2345.9147     -2341.1283     -2351.5349      2.9751247     -10.102595      6.0082938      6325.3495    
      8400   483.57837      0.042          0.23754809     0.23694582     0.23807257    -2344.1615      776.87712      776.87712      776.87712      4.6887491e+08  1.2820054     -37952778      -37952778       1440.0138     -37951338      -2344.4174     -2338.4734     -2349.5936      4.088152      -10.045986      5.3776261      6316.2117    
      8500   483.04318      0.0425         0.23743614     0.23675987     0.23788348    -2342.5594      777.2499       777.2499       777.2499       4.6955019e+08  1.2801616     -37930735      -37930735       1438.4201     -37929296      -2343.3125     -2336.6382     -2347.7274      4.6940764     -9.4939332      5.4187477      6597.1869    
      8600   482.41978      0.043          0.23718163     0.23645146     0.23761179    -2339.8137      777.62268      777.62268      777.62268      4.7022613e+08  1.2783214     -37901414      -37901414       1436.5637     -37899978      -2340.8006     -2333.5945     -2345.046       5.0229474     -8.6956442      5.8253179      6335.5846    
      8700   481.56811      0.0435         0.23670347     0.23590404     0.23709205    -2334.73        777.99546      777.99546      777.99546      4.7090271e+08  1.2764848     -37857405      -37857405       1434.0276     -37855971      -2336.0817     -2328.1919     -2339.9166      5.1588595     -8.2485709      5.7391076      6341.5924    
      8800   480.66223      0.044          0.23619664     0.23533397     0.23658282    -2329.5121      778.36824      778.36824      778.36824      4.7157995e+08  1.2746516     -37835395      -37835395       1431.3301     -37833964      -2331.0796     -2322.5657     -2334.8909      4.563711      -8.0980101      5.8446445      6664.2333    
      8900   479.6501       0.0445         0.23565867     0.23467729     0.23598295    -2323.6086      778.74103      778.74103      778.74103      4.7225783e+08  1.272822      -37783652      -37783652       1428.3161     -37782223      -2325.7702     -2316.0848     -2328.9707      3.991606      -8.4306124      5.2582358      6339.1928    
      9000   478.44356      0.045          0.23531445     0.23422895     0.23561537    -2319.792       779.11381      779.11381      779.11381      4.7293636e+08  1.2709958     -37761703      -37761703       1424.7232     -37760278      -2322.3731     -2311.66       -2325.3429      3.8024925     -9.177157       4.9295149      4103.7093    
      9100   477.28339      0.0455         0.2348702      0.23359707     0.23516759    -2314.7787      779.48659      779.48659      779.48659      4.7361554e+08  1.2691732     -37708363      -37708363       1421.2684     -37706942      -2317.9886     -2305.4238     -2320.9237      2.8251133     -9.4555491      4.6149216      6244.3726    
      9200   476.25203      0.046          0.2342474      0.23301866     0.23462743    -2309.05        779.85937      779.85937      779.85937      4.7429537e+08  1.267354      -37662460      -37662460       1418.1972     -37661041      -2311.8421     -2299.7153     -2315.5927      3.074294      -8.2617345      4.965014       6362.5524    
      9300   475.33169      0.0465         0.23365571     0.23248035     0.23410322    -2303.6081      780.23215      780.23215      780.23215      4.7497585e+08  1.2655383     -37640594      -37640594       1415.4566     -37639178      -2306.0025     -2294.4026     -2310.4191      2.9457365     -6.9019908      4.9192471      6701.568     
      9400   474.2093       0.047          0.23296089     0.23190162     0.23346489    -2297.3185      780.60493      780.60493      780.60493      4.7565698e+08  1.2637261     -37611342      -37611342       1412.1143     -37609930      -2299.1452     -2288.691      -2304.1193      2.1993675     -6.0020238      4.6427915      6377.5042    
      9500   473.01631      0.0475         0.23214618     0.23112316     0.23268334    -2289.5063      780.97772      780.97772      780.97772      4.7633877e+08  1.2619173     -37573166      -37573166       1408.5618     -37571757      -2291.1047     -2281.0082     -2296.406       2.3091426     -6.7070022      4.3840012      6369.7282    
      9600   471.93008      0.048          0.23138922     0.2302611      0.23190799    -2281.6294      781.3505       781.3505       781.3505       4.770212e+08   1.260112      -37551432      -37551432       1405.3272     -37550027      -2283.6341     -2272.5004     -2288.7539      1.7139774     -8.0415925      4.3542002      6709.8328    
      9700   470.78274      0.0485         0.23051792     0.2293511      0.23096977    -2272.6829      781.72328      781.72328      781.72328      4.7770428e+08  1.2583101     -37513227      -37513227       1401.9106     -37511825      -2275.035      -2263.5194     -2279.4944      0.69650965    -8.8683157      4.1339324      6384.4367    
      9800   469.28188      0.049          0.2295032      0.22814651     0.22987561    -2261.7825      782.09606      782.09606      782.09606      4.7838802e+08  1.2565117     -37436733      -37436733       1397.4413     -37435336      -2265.0205     -2251.631      -2268.6959     -0.072222995   -8.5977835      4.3975075      6325.0995    
      9900   467.53889      0.0495         0.228648       0.22721069     0.22896369    -2252.8905      782.46884      782.46884      782.46884      4.7907241e+08  1.2547167     -37415207      -37415207       1392.251      -37413815      -2256.5803     -2242.3952     -2259.696      -0.48934911    -8.5412991      3.9681148      6725.6199    
     10000   465.81077      0.05           0.22767127     0.22614974     0.22776474    -2242.2428      782.84163      782.84163      782.84163      4.7975745e+08  1.2529251     -37349813      -37349813       1387.1049     -37348426      -2246.9407     -2231.9244     -2247.8632     -0.90724422    -8.4960965      4.1232015      3573.6534    
     10100   464.41465      0.0505         0.22680018     0.22523886     0.22681682    -2233.2621      783.21441      783.21441      783.21441      4.8044315e+08  1.2511369     -37328428      -37328428       1382.9475     -37327045      -2238.3437     -2222.9347     -2238.5079     -0.44127137    -8.6834066      4.6980941      6238.239     
     10200   462.87496      0.051          0.22569477     0.22408372     0.22561644    -2221.8766      783.58719      783.58719      783.58719      4.8112949e+08  1.2493521     -37261162      -37261162       1378.3626     -37259784      -2227.4342     -2211.5344     -2226.6611     -1.5836338     -9.0984687      4.5712128      6395.399     
     10300   461.05599      0.0515         0.22469368     0.2229206      0.22440324    -2210.7657      783.95997      783.95997      783.95997      4.8181649e+08  1.2475707     -37202944      -37202944       1372.946      -37201571      -2217.5542     -2200.0553     -2214.6877     -2.1131589     -9.5880954      3.7178555      6340.8011    
     10400   458.95323      0.052          0.22367882     0.22191373     0.22335281    -2200.6591      784.33275      784.33275      784.33275      4.8250415e+08  1.2457927     -37181805      -37181805       1366.6843     -37180439      -2207.5383     -2190.1183     -2204.3209     -2.5590654     -9.3898173      3.2112383      6745.6884    
     10500   456.97143      0.0525         0.22243589     0.22069388     0.22201509    -2188.1565      784.70553      784.70553      784.70553      4.8319246e+08  1.2440181     -37136608      -37136608       1360.7829     -37135247      -2195.2715     -2178.0793     -2191.1186     -2.5886837     -9.9264741      2.2592889      6408.322     
     10600   455.35438      0.053          0.22124865     0.21943478     0.22057897    -2175.3842      785.07832      785.07832      785.07832      4.8388142e+08  1.2422468     -37093681      -37093681       1355.9676     -37092325      -2183.5544     -2165.6529     -2176.9452     -3.2386295     -10.831843      1.6706685      6412.6805    
     10700   453.76312      0.0535         0.22013677     0.21831006     0.21936329    -2164.0271      785.4511       785.4511       785.4511       4.8457104e+08  1.2404789     -37072814      -37072814       1351.2291     -37071463      -2172.581      -2154.5528     -2164.9474     -3.700275      -11.234764      1.3687772      6747.4935    
     10800   452.01623      0.054          0.21891887     0.2170209      0.21818326    -2151.8975      785.82388      785.82388      785.82388      4.8526131e+08  1.2387143     -37037349      -37037349       1346.0271     -37036003      -2160.5613     -2141.8297     -2153.3014     -3.349895      -10.803552      1.2613758      6421.0355    
     10900   450.43274      0.0545         0.2176895      0.21575        0.21699023    -2139.7475      786.19666      786.19666      786.19666      4.8595224e+08  1.2369531     -37016678      -37016678       1341.3118     -37015336      -2148.4284     -2129.2869     -2141.5271     -3.1048779     -9.9458893      2.1885618      6750.2824    
     11000   448.9641       0.055          0.2163915      0.21440809     0.215669      -2126.7163      786.56944      786.56944      786.56944      4.8664382e+08  1.2351953     -36974303      -36974303       1336.9384     -36972966      -2135.6181     -2116.0433     -2128.4876     -3.0868805     -10.224813      2.8825394      1512.1168    
     11100   447.28907      0.0555         0.21511823     0.21301031     0.21447064    -2113.987       786.94222      786.94222      786.94222      4.8733606e+08  1.2334407     -36930183      -36930183       1331.9505     -36928851      -2123.0519     -2102.2483     -2116.6607     -4.2782213     -9.9176902      1.2828718      3110.7437    
     11200   445.3446       0.056          0.2139512      0.21180077     0.21326321    -2102.1965      787.31501      787.31501      787.31501      4.8802895e+08  1.2316895     -36909814      -36909814       1326.1602     -36908487      -2111.5342     -2090.3111     -2104.7442     -5.3203303     -10.079485     -0.20619211     6415.8172    
     11300   443.50591      0.0565         0.2126178      0.21052402     0.21178273    -2088.7394      787.68779      787.68779      787.68779      4.887225e+08   1.2299416     -36882265      -36882265       1320.6849     -36880945      -2098.3745     -2077.7105     -2090.1331     -6.2466029     -11.063067     -0.96378145     6431.8121    
     11400   441.7026       0.057          0.21113338     0.209092       0.21026798    -2074.1619      788.06057      788.06057      788.06057      4.8941671e+08  1.228197      -36847415      -36847415       1315.3149     -36846099      -2083.7244     -2063.5776     -2075.1836     -7.0292296     -12.071176     -0.6543468      6437.7986    
     11500   439.55226      0.0575         0.20982578     0.20764539     0.20885602    -2060.4563      788.43335      788.43335      788.43335      4.9011158e+08  1.2264557     -36827384      -36827384       1308.9116     -36826075      -2070.8194     -2049.3007     -2061.2487     -6.8778896     -12.767649      0.51458873     6761.5149    
     11600   437.30682      0.058          0.20838733     0.20616349     0.2072978     -2045.7229      788.80613      788.80613      788.80613      4.908071e+08   1.2247177     -36797879      -36797879       1302.225      -36796577      -2056.623      -2034.6755     -2045.8702     -6.6362299     -11.607438      1.6995037      6442.3032    
     11700   435.28548      0.0585         0.2067419      0.20454843     0.20556539    -2029.2975      789.17891      789.17891      789.17891      4.9150328e+08  1.222983      -36746817      -36746817       1296.2058     -36745521      -2040.3839     -2018.736      -2028.7726     -7.0351061     -10.14526       1.5599384      6438.3797    
     11800   433.39156      0.059          0.20528472     0.2031089      0.204083      -2014.8914      789.5517       789.5517       789.5517       4.9220012e+08  1.2212515     -36727150      -36727150       1290.566      -36725860      -2026.0026     -2004.529      -2014.1426     -7.4784936     -9.2458567      0.91079864     6764.8618    
     11900   431.14554      0.0595         0.20375836     0.20166626     0.20266923    -2000.4733      789.92448      789.92448      789.92448      4.9289761e+08  1.2195233     -36685780      -36685780       1283.8778     -36684496      -2010.9387     -1990.2912     -2000.1898     -7.8308431     -9.7446355      0.15697002     6380.5594    
     12000   429.06091      0.06           0.20229731     0.20010906     0.2013475     -1986.1958      790.29726      790.29726      790.29726      4.9359577e+08  1.2177984     -36666360      -36666360       1277.6701     -36665082      -1996.5193     -1974.9228     -1987.1453     -7.2210743     -10.176815     -0.29988926     3364.9492    
     12100   427.51614      0.0605         0.20082849     0.19843289     0.19976403    -1970.6404      790.67004      790.67004      790.67004      4.9429458e+08  1.2160767     -36628627      -36628627       1273.07       -36627354      -1982.0231     -1958.3804     -1971.5177     -7.340349      -10.300991     -0.32820874     5483.564     
     12200   426.09541      0.061          0.1994684      0.19694356     0.19810493    -1955.8085      791.04282      791.04282      791.04282      4.9499406e+08  1.2143583     -36587024      -36587024       1268.8394     -36585755      -1968.6001     -1943.6818     -1955.1437     -8.0995252     -10.241732     -0.57857555     6435.8571    
     12300   424.36586      0.0615         0.19808115     0.19564078     0.19658962    -1941.974       791.4156       791.4156       791.4156       4.9569419e+08  1.2126431     -36567989      -36567989       1263.6891     -36566725      -1954.9089     -1930.8244     -1940.1887     -8.9029367     -10.579433     -0.34960097     6775.6471    
     12400   422.40258      0.062          0.19655573     0.19409429     0.19499244    -1926.6139      791.78839      791.78839      791.78839      4.9639498e+08  1.2109311     -36534516      -36534516       1257.8428     -36533259      -1939.8543     -1915.5617     -1924.4258     -8.9513895     -11.141237     -0.43754044     6387.6242    
     12500   420.35234      0.0625         0.19499611     0.19250351     0.19347529    -1911.2588      792.16117      792.16117      792.16117      4.9709644e+08  1.2092224     -36506311      -36506311       1251.7375     -36505059      -1924.462      -1899.8619     -1909.4526     -8.4842429     -10.780168     -0.89989273     6452.0737    
     12600   417.94009      0.063          0.19353945     0.19092267     0.19211932    -1896.8055      792.53395      792.53395      792.53395      4.9779855e+08  1.2075169     -36487640      -36487640       1244.5542     -36486395      -1910.0858     -1884.2603     -1896.0702     -7.9464445     -9.6365714     -1.7181959      6781.6403    
     12700   415.49474      0.0635         0.19207195     0.18930342     0.19041679    -1881.0499      792.90673      792.90673      792.90673      4.9850132e+08  1.2058145     -36438168      -36438168       1237.2724     -36436931      -1895.6028     -1868.2794     -1879.2676     -7.531252      -8.6529843     -2.7297564      6453.1667    
     12800   413.47813      0.064          0.19057395     0.18763594     0.1886261     -1864.7454      793.27951      793.27951      793.27951      4.9920476e+08  1.2041154     -36386654      -36386654       1231.2673     -36385423      -1880.8187     -1851.8227     -1861.5948     -7.7905727     -8.9488712     -2.485075       6456.4982    
     12900   411.67978      0.0645         0.18902657     0.18609439     0.18711358    -1849.6078      793.6523       793.6523       793.6523       4.9990886e+08  1.2024195     -36368403      -36368403       1225.9121     -36367177      -1865.5472     -1836.6089     -1846.6674     -7.8690477     -8.9663166     -2.2658394      6775.093     
     13000   409.9374       0.065          0.18742874     0.18460009     0.18562489    -1834.5381      794.02508      794.02508      794.02508      5.0061361e+08  1.2007267     -36343000      -36343000       1220.7236     -36341779      -1849.7778     -1821.8613     -1831.9753     -8.1393054     -9.2315633     -2.7659924      4126.9377    
     13100   408.02754      0.0655         0.18605676     0.18323884     0.18415603    -1820.7143      794.39786      794.39786      794.39786      5.0131903e+08  1.1990371     -36324975      -36324975       1215.0363     -36323760      -1836.2374     -1808.4268     -1817.4787     -8.7720871     -9.6628664     -3.3183714      6779.9295    
     13200   406.24556      0.066          0.18466245     0.18181699     0.18264716    -1806.4861      794.77064      794.77064      794.77064      5.0202512e+08  1.1973507     -36290196      -36290196       1209.7299     -36288986      -1822.4767     -1794.3942     -1802.5873     -9.028453      -10.724693     -3.3999657      6452.9693    
     13300   404.52225      0.0665         0.18316614     0.1801449      0.18100645    -1790.6653      795.14342      795.14342      795.14342      5.0273186e+08  1.1956675     -36226943      -36226943       1204.5982     -36225738      -1807.7092     -1777.8919     -1786.3948     -8.029456      -11.052465     -3.4262553      6470.7848    
     13400   402.93526      0.067          0.18164966     0.17857594     0.17959327    -1775.866       795.5162       795.5162       795.5162       5.0343927e+08  1.1939874     -36209329      -36209329       1199.8724     -36208129      -1792.7427     -1762.4075     -1772.4478     -7.8209626     -11.060615     -3.6441979      6811.3618    
     13500   401.50639      0.0675         0.18011921     0.17698351     0.17814394    -1760.8246      795.88899      795.88899      795.88899      5.0414734e+08  1.1923104     -36184576      -36184576       1195.6175     -36183380      -1777.6384     -1746.6914     -1758.144      -7.9622885     -10.813888     -3.0542064      6474.5126    
     13600   399.99796      0.068          0.17857105     0.17552122     0.17673362    -1746.2814      796.26177      796.26177      796.26177      5.0485608e+08  1.1906366     -36150676      -36150676       1191.1256     -36149485      -1762.3593     -1732.2597     -1744.2252     -7.9832959     -10.694806     -2.9299352      6481.3061    
     13700   398.09698      0.0685         0.1772257      0.17415463     0.17531573    -1732.6953      796.63455      796.63455      796.63455      5.0556548e+08  1.188966      -36133424      -36133424       1185.4648     -36132239      -1749.0817     -1718.7726     -1730.2317     -8.2360849     -10.011699     -2.7027872      6744.5332    
     13800   395.8971       0.069          0.17574095     0.17266465     0.17374085    -1717.7283      797.00733      797.00733      797.00733      5.0627554e+08  1.1872984     -36094464      -36094464       1178.914      -36093285      -1734.4284     -1704.0676     -1714.6889     -7.5380626     -9.5603066     -2.4528599      6473.1443    
     13900   393.90145      0.0695         0.17439414     0.17120454     0.1722661     -1703.6427      797.38011      797.38011      797.38011      5.0698627e+08  1.185634      -36077459      -36077459       1172.9712     -36076286      -1721.1364     -1689.6574     -1700.1342     -6.8779186     -9.5769266     -2.9705404      6817.6411    
     14000   391.93064      0.07           0.17309061     0.16968919     0.17074393    -1689.3617      797.75289      797.75289      797.75289      5.0769766e+08  1.1839726     -36031493      -36031493       1167.1025     -36030326      -1708.2715     -1674.7021     -1685.1116     -5.7380487     -10.294803     -3.2826966      1598.5464    
     14100   390.31757      0.0705         0.17169912     0.1682348      0.16928661    -1675.2053      798.12568      798.12568      798.12568      5.0840972e+08  1.1823144     -35974404      -35974404       1162.2991     -35973241      -1694.5385     -1660.3484     -1670.729      -5.9308248     -9.5069951     -2.7311575      3136.5374    
     14200   388.84556      0.071          0.17038573     0.1670524      0.16811436    -1663.1384      798.49846      798.49846      798.49846      5.0912245e+08  1.1806593     -35957776      -35957776       1157.9157     -35956618      -1681.5764     -1648.679      -1659.1598     -6.8541875     -8.7833117     -3.3575918      6571.0992    
     14300   387.33261      0.0715         0.16888619     0.16569682     0.166783      -1649.3659      798.87124      798.87124      798.87124      5.0983584e+08  1.1790072     -35909987      -35909987       1153.4104     -35908834      -1666.7771     -1635.3005     -1646.0203     -6.6711893     -8.1512232     -3.8368784      6503.2373    
     14400   385.63288      0.072          0.16748483     0.16438536     0.16541515    -1635.9416      799.24402      799.24402      799.24402      5.1054989e+08  1.1773583     -35880966      -35880966       1148.3489     -35879818      -1652.9468     -1622.3573     -1632.5206     -6.2958188     -8.8209513     -3.811539       6493.8143    
     14500   383.82661      0.0725         0.16626225     0.16306841     0.16411081    -1623.2962      799.6168       799.6168       799.6168       5.1126461e+08  1.1757124     -35864659      -35864659       1142.9701     -35863516      -1640.8809     -1609.3601     -1619.6477     -5.8632446     -8.9040191     -2.8861749      6836.0975    
     14600   382.22734      0.073          0.16502744     0.16167894     0.16279901    -1610.3475      799.98958      799.98958      799.98958      5.1198e+08     1.1740696     -35819072      -35819072       1138.2077     -35817934      -1628.6942     -1595.6471     -1606.7013     -4.9858222     -8.7984212     -1.7470839      6436.4851    
     14700   380.94333      0.0735         0.16376092     0.16046625     0.16158234    -1598.189       800.36237      800.36237      800.36237      5.1269606e+08  1.1724298     -35773736      -35773736       1134.3842     -35772601      -1616.1947     -1583.6788     -1594.6937     -4.2626549     -7.3800226     -1.481521       6495.3281    
     14800   379.60364      0.074          0.16257811     0.15942584     0.16055305    -1587.4891      800.73515      800.73515      800.73515      5.1341278e+08  1.1707931     -35757762      -35757762       1130.3948     -35756631      -1604.5212     -1573.4107     -1584.5354     -4.3156385     -6.7640841     -1.900029       6842.3434    
     14900   378.03742      0.0745         0.16094692     0.15806646     0.15950482    -1574.2025      801.10793      801.10793      801.10793      5.1413017e+08  1.1691594     -35683216      -35683216       1125.7309     -35682091      -1588.4226     -1559.9946     -1574.1901     -3.6854844     -6.7059428     -2.0802181      6500.3551    
     15000   376.45618      0.075          0.15976525     0.15691511     0.15844955    -1563.0559      801.48071      801.48071      801.48071      5.1484823e+08  1.1675288     -35667458      -35667458       1121.0222     -35666337      -1576.7604     -1548.6317     -1563.7755     -3.8630747     -7.3018765     -2.2354511      4121.9239    
     15100   374.95329      0.0755         0.1585792      0.15567779     0.15721175    -1551.0116      801.85349      801.85349      801.85349      5.1556696e+08  1.1659012     -35622696      -35622696       1116.5469     -35621579      -1565.055      -1536.4204     -1551.5593     -4.005984      -6.7182624     -1.8355282      6489.5336    
     15200   373.53429      0.076          0.15760012     0.15458405     0.15608463    -1540.4846      802.22628      802.22628      802.22628      5.1628635e+08  1.1642766     -35605273      -35605273       1112.3213     -35604161      -1555.3922     -1525.626      -1540.4355     -4.1145848     -5.8349575     -1.710617       6449.3219    
     15300   372.26451      0.0765         0.15661247     0.15357572     0.15498477    -1530.3         802.59906      802.59906      802.59906      5.1700642e+08  1.1626551     -35589772      -35589772       1108.5402     -35588664      -1545.6449     -1515.6745     -1529.5808     -3.8184559     -4.8951441     -1.6297408      6856.9281    
     15400   371.10778      0.077          0.15557781     0.15257796     0.15400763    -1520.3994      802.97184      802.97184      802.97184      5.1772715e+08  1.1610365     -35567087      -35567087       1105.0956     -35565982      -1535.4336     -1505.8274     -1519.9371     -3.9010195     -4.4933529     -1.9834786      6524.9627    
     15500   369.95266      0.0775         0.15458556     0.15171272     0.15322638    -1511.7186      803.34462      803.34462      803.34462      5.1844856e+08  1.159421      -35549344      -35549344       1101.6558     -35548242      -1525.6408     -1497.2881     -1512.2268     -4.193735      -4.9828455     -1.9174559      6514.9907    
     15600   368.72352      0.078          0.15366679     0.15085457     0.15244322    -1503.2966      803.7174       803.7174       803.7174       5.1917063e+08  1.1578085     -35534102      -35534102       1097.9957     -35533004      -1516.5733     -1488.8189     -1504.4976     -4.6289118     -5.3853694     -1.6693995      6868.3819    
     15700   367.35082      0.0785         0.1525806      0.14969855     0.15136133    -1492.3612      804.09018      804.09018      804.09018      5.1989337e+08  1.1561989     -35471480      -35471480       1093.908      -35470386      -1505.8534     -1477.4099     -1493.8202     -4.6586884     -5.2800957     -1.9921502      6522.9125    
     15800   365.97658      0.079          0.15163052     0.14864351     0.15034916    -1482.435       804.46297      804.46297      804.46297      5.2061679e+08  1.1545923     -35456401      -35456401       1089.8157     -35455311      -1496.4769     -1466.9974     -1483.8309     -4.0752329     -5.0340344     -2.2975526      6785.4657    
     15900   364.81742      0.0795         0.1506577      0.14755625     0.14918125    -1471.8158      804.83575      804.83575      804.83575      5.2134087e+08  1.1529887     -35419440      -35419440       1086.364      -35418354      -1486.8759     -1456.2669     -1472.3045     -3.7761761     -4.9524973     -2.7071139      6429.2974    
     16000   363.63042      0.08           0.14973925     0.14654727     0.14819914    -1462.2441      805.20853      805.20853      805.20853      5.2206563e+08  1.1513881     -35380573      -35380573       1082.8293     -35379490      -1477.8115     -1446.3091     -1462.6118     -3.705001      -5.1330561     -2.5275696      3470.163     
     16100   362.37218      0.0805         0.14894266     0.14587995     0.14747188    -1455.0357      805.58131      805.58131      805.58131      5.2279105e+08  1.1497904     -35365722      -35365722       1079.0825     -35364643      -1469.9497     -1439.7232     -1455.4343     -4.1760539     -5.5524296     -2.1923063      5919.9562    
     16200   361.30348      0.081          0.14814436     0.1450714      0.1466492     -1447.0432      805.95409      805.95409      805.95409      5.2351715e+08  1.1481957     -35314568      -35314568       1075.9001     -35313492      -1462.0712     -1431.7434     -1447.3151     -3.9701952     -5.4317786     -1.7598323      6503.0871    
     16300   360.72736      0.0815         0.14733432     0.14418415     0.14594165    -1439.1319      806.32687      806.32687      806.32687      5.2424392e+08  1.1466039     -35277691      -35277691       1074.1845     -35276617      -1454.0766     -1422.987      -1440.3321     -3.2054759     -5.1799808     -1.2916827      6532.3592    
     16400   360.40974      0.082          0.14654268     0.14340339     0.14523735    -1431.6421      806.69966      806.69966      806.69966      5.2497136e+08  1.1450151     -35263050      -35263050       1073.2387     -35261977      -1446.2638     -1415.2814     -1433.3812     -2.9938525     -4.8603417     -1.1878174      6812.623     
     16500   359.77169      0.0825         0.14570526     0.14260615     0.14422724    -1422.9415      807.07244      807.07244      807.07244      5.2569948e+08  1.1434292     -35219041      -35219041       1071.3386     -35217970      -1437.9992     -1407.4132     -1423.4122     -2.0657125     -3.9880872     -2.2831403      6539.2832    
     16600   358.85166      0.083          0.14483511     0.14174263     0.14336223    -1414.3925      807.44522      807.44522      807.44522      5.2642827e+08  1.1418463     -35180390      -35180390       1068.599      -35179322      -1429.4114     -1398.891      -1414.8752     -0.74811854    -3.4892422     -1.7459053      6533.0117    
     16700   357.66819      0.0835         0.14411469     0.14100575     0.14253307    -1406.8706      807.818        807.818        807.818        5.2715773e+08  1.1402662     -35165947      -35165947       1065.0748     -35164882      -1422.3014     -1391.6185     -1406.692      -1.0619394     -3.6544931     -1.2227777      6901.6142    
     16800   356.28412      0.084          0.14334305     0.14016088     0.14160794    -1398.5093      808.19078      808.19078      808.19078      5.2788787e+08  1.1386891     -35129449      -35129449       1060.9533     -35128388      -1414.6859     -1383.2804     -1397.5617     -1.719585      -4.8532784     -1.2986106      6551.634     
     16900   354.99938      0.0845         0.14254453     0.13942693     0.14096743    -1391.3608      808.56356      808.56356      808.56356      5.2861867e+08  1.1371148     -35115132      -35115132       1057.1275     -35114075      -1406.8051     -1376.0368     -1391.2404     -2.2895925     -6.1127219     -1.8413012      6899.2277    
     17000   353.8908       0.085          0.14178057     0.13882439     0.14041784    -1385.0573      808.93635      808.93635      808.93635      5.2935016e+08  1.1355435     -35100723      -35100723       1053.8264     -35099669      -1399.2654     -1370.0903     -1385.8164     -2.3631854     -6.2967732     -1.6460536      3719.5148    
     17100   353.01696      0.0855         0.14096144     0.13814886     0.13965686    -1377.6369      809.30913      809.30913      809.30913      5.3008232e+08  1.1339751     -35053445      -35053445       1051.2242     -35052393      -1391.1813     -1363.4232     -1378.3061     -1.2959573     -5.0818154     -0.54675342     6502.8977    
     17200   352.50421      0.086          0.14033344     0.13757732     0.13906327    -1371.7379      809.68191      809.68191      809.68191      5.3081515e+08  1.1324096     -35039287      -35039287       1049.6973     -35038238      -1384.9834     -1357.7826     -1372.4477     -0.5052911     -3.9273356     -0.73391251     6897.0126    
     17300   351.98116      0.0865         0.13966683     0.13702508     0.13846006    -1365.7438      810.05469      810.05469      810.05469      5.3154866e+08  1.1308469     -35008164      -35008164       1048.1398     -35007116      -1378.4044     -1352.3324     -1366.4945     -0.11864992    -4.0729036     -1.6916073      6561.6113    
     17400   351.54579      0.087          0.13906964     0.13647667     0.13764693    -1359.3001      810.42747      810.42747      810.42747      5.3228284e+08  1.1292871     -34960511      -34960511       1046.8433     -34959464      -1372.5106     -1346.92       -1358.4696     -0.56559068    -5.3983304     -2.0532281      6560.1689    
     17500   351.13974      0.0875         0.13850566     0.13591735     0.13710501    -1353.8219      810.80025      810.80025      810.80025      5.330177e+08   1.1277302     -34946504      -34946504       1045.6342     -34945459      -1366.9446     -1341.3999     -1353.1212     -0.73818658    -6.4712148     -1.1508087      6893.3998    
     17600   350.43165      0.088          0.13773937     0.13509402     0.13630807    -1345.9708      811.17304      811.17304      811.17304      5.3375323e+08  1.1261761     -34879791      -34879791       1043.5256     -34878747      -1359.3819     -1333.2744     -1345.256      -0.17386437    -5.9709228     -0.44994083     6509.8691    
     17700   349.61274      0.0885         0.13701641     0.13435924     0.13545865    -1338.3808      811.54582      811.54582      811.54582      5.3448944e+08  1.1246249     -34829515      -34829515       1041.087      -34828474      -1352.2469     -1326.0226     -1336.8729      0.22126662    -6.036061      -0.73663298     6575.615     
     17800   348.84208      0.089          0.13640418     0.13380509     0.13485157    -1332.5465      811.9186       811.9186       811.9186       5.3522633e+08  1.1230766     -34815673      -34815673       1038.7922     -34814634      -1346.2046     -1320.5536     -1330.8815      0.074724823   -5.8797416     -0.8701366      6924.3269    
     17900   348.33948      0.0895         0.13561441     0.13323764     0.13438884    -1326.5594      812.29138      812.29138      812.29138      5.359639e+08   1.121531      -34770949      -34770949       1037.2955     -34769911      -1338.4102     -1314.9533     -1326.3147     -0.029493694   -5.9334296     -0.8592591      6571.8208    
     18000   347.91954      0.09           0.13506275     0.13269494     0.13401423    -1321.7268      812.66416      812.66416      812.66416      5.3670214e+08  1.1199884     -34757207      -34757207       1036.045      -34756171      -1332.9657     -1309.5972     -1322.6176      0.045194303   -5.6668881     -0.59696491     4144.1357    
     18100   347.56807      0.0905         0.13431186     0.13205627     0.13337505    -1315.0528      813.03695      813.03695      813.03695      5.3744106e+08  1.1184485     -34704963      -34704963       1034.9984     -34703928      -1325.555      -1303.294      -1316.3094     -0.023236374   -4.5388091     -0.34184838     6553.9359    
     18200   347.40672      0.091          0.13379015     0.13154696     0.13278516    -1309.7204      813.40973      813.40973      813.40973      5.3818066e+08  1.1169115     -34676764      -34676764       1034.5179     -34675730      -1320.4062     -1298.2675     -1310.4876      0.51397949    -3.8878456     -0.055035843    6532.5034    
     18300   347.02392      0.0915         0.13338603     0.13121569     0.13235466    -1305.885       813.78251      813.78251      813.78251      5.3892093e+08  1.1153772     -34663147      -34663147       1033.378      -34662114      -1316.4178     -1294.9982     -1306.2389      0.70820813    -4.1897754     -0.12961893     6955.5521    
     18400   346.23426      0.092          0.1329228      0.13079081     0.13180479    -1301.1544      814.15529      814.15529      814.15529      5.3966189e+08  1.1138458     -34625896      -34625896       1031.0265     -34624865      -1311.846      -1290.8049     -1300.8122      0.55699289    -4.7260377     -0.35367714     6608.272     
     18500   345.42394      0.0925         0.13232208     0.1301949      0.13125769    -1295.4179      814.52807      814.52807      814.52807      5.4040352e+08  1.1123172     -34590521      -34590521       1028.6135     -34589493      -1305.9174     -1284.9238     -1295.4127      0.12644731    -5.5482118     -0.12218212     6612.0743    
     18600   344.84974      0.093          0.13169083     0.12963472     0.13065786    -1289.5251      814.90085      814.90085      814.90085      5.4114583e+08  1.1107914     -34577023      -34577023       1026.9037     -34575996      -1299.6874     -1279.3952     -1289.4928     -0.05257554    -5.6444653      0.27813515     6945.9788    
     18700   344.51462      0.0935         0.1310485      0.12906799     0.13009815    -1283.7063      815.27364      815.27364      815.27364      5.4188882e+08  1.1092684     -34553979      -34553979       1025.9057     -34552953      -1293.3482     -1273.802      -1283.9689      0.40130436    -5.944826       0.59320769     6607.7196    
     18800   344.05586      0.094          0.13062291     0.1286285      0.1297363     -1279.6701      815.64642      815.64642      815.64642      5.426325e+08   1.1077482     -34540570      -34540570       1024.5396     -34539545      -1289.1479     -1269.4646     -1280.3977      0.71441753    -5.8632949      1.0060931      6957.4263    
     18900   343.64897      0.0945         0.13026054     0.12812766     0.12918583    -1275.0194      816.0192       816.0192       816.0192       5.4337685e+08  1.1062307     -34505368      -34505368       1023.328      -34504345      -1285.5716     -1264.5217     -1274.965       1.4396511     -5.9497696      0.57710933     6551.7623    
     19000   343.5009       0.095          0.129788       0.12749967     0.12871863    -1269.862       816.39198      816.39198      816.39198      5.4412188e+08  1.104716      -34462922      -34462922       1022.887      -34461899      -1280.9079     -1258.3239     -1270.3541      2.1790338     -5.6798886     -0.013783623    4085.1327    
     19100   343.45814      0.0955         0.12942922     0.12712433     0.1282728     -1265.9803      816.76476      816.76476      816.76476      5.4486759e+08  1.1032041     -34449612      -34449612       1022.7597     -34448590      -1277.3671     -1254.6196     -1265.9541      1.6765204     -5.6417285     -0.74489039     6921.7847    
     19200   343.4606       0.096          0.12890628     0.12675029     0.12765058    -1260.9825      817.13754      817.13754      817.13754      5.4561399e+08  1.1016949     -34407107      -34407107       1022.767      -34406084      -1272.2061     -1250.9281     -1259.8133      0.25124783    -6.5601824     -1.1617572      6586.6546    
     19300   343.23603      0.0965         0.12831609     0.1262588      0.12690072    -1254.9572      817.51033      817.51033      817.51033      5.4636106e+08  1.1001885     -34340206      -34340206       1022.0983     -34339184      -1266.3813     -1246.0775     -1252.4128     -0.94694212    -7.4352652      0.034935527    6609.5758    
     19400   342.7919       0.097          0.12786215     0.12592097     0.12658794    -1251.3235      817.88311      817.88311      817.88311      5.4710882e+08  1.0986848     -34327015      -34327015       1020.7758     -34325994      -1261.9013     -1242.7434     -1249.3259     -0.92152982    -7.1620161      0.32350199     6958.8076    
     19500   342.32244      0.0975         0.12738185     0.12531335     0.12620969    -1246.5002      818.25589      818.25589      818.25589      5.4785726e+08  1.0971839     -34287722      -34287722       1019.3778     -34286702      -1257.1611     -1236.7466     -1245.5928     -0.19097698    -7.1493303      0.27748141     6558.7559    
     19600   342.12712      0.098          0.12688089     0.12463719     0.12573806    -1241.0762      818.62867      818.62867      818.62867      5.4860638e+08  1.0956857     -34245022      -34245022       1018.7962     -34244003      -1252.2171     -1230.0734     -1240.9382      1.3327887     -7.2197304      0.38045901     6617.9064    
     19700   341.99337      0.0985         0.12648504     0.12415357     0.12524222    -1236.5518      819.00145      819.00145      819.00145      5.4935618e+08  1.0941902     -34231949      -34231949       1018.3978     -34230931      -1248.3103     -1225.3005     -1236.0446      2.4424723     -6.9957559      0.65147109     6969.8661    
     19800   341.54204      0.099          0.12600202     0.1237275      0.12470758    -1231.8023      819.37423      819.37423      819.37423      5.5010667e+08  1.0926974     -34202383      -34202383       1017.0539     -34201366      -1243.5433     -1221.0955     -1230.7681      3.4122103     -6.6631597      1.6195375      6616.0263    
     19900   341.02116      0.0995         0.12553677     0.12338358     0.12436729    -1228.0208      819.74702      819.74702      819.74702      5.5085784e+08  1.0912074     -34189378      -34189378       1015.5028     -34188362      -1238.9516     -1217.7012     -1227.4097      2.8551606     -6.9894014      1.8334305      6973.9938    
     20000   340.80232      0.1            0.12507117     0.12307846     0.12396022    -1224.1462      820.1198       820.1198       820.1198       5.5160969e+08  1.0897201     -34161220      -34161220       1014.8511     -34160205      -1234.3565     -1214.6899     -1223.3922      1.7870218     -7.2585561      1.8995332      2056.2524    
     20100   340.79954      0.1005         0.12458422     0.12266744     0.12347136    -1219.5839      820.49258      820.49258      820.49258      5.5236223e+08  1.0882354     -34104621      -34104621       1014.8428     -34103606      -1229.5507     -1210.6335     -1218.5676      1.1632919     -7.7536529      1.0152192      3707.6983    
     20200   340.71406      0.101          0.12425888     0.12236334     0.12311291    -1216.334       820.86536      820.86536      820.86536      5.5311545e+08  1.0867535     -34091700      -34091700       1014.5883     -34090686      -1226.3398     -1207.6323     -1215.03        1.0421609     -7.589295       0.64493316     6670.8413    
     20300   340.47661      0.1015         0.12379979     0.12189279     0.12255281    -1211.4331      821.23814      821.23814      821.23814      5.5386936e+08  1.0852742     -34042306      -34042306       1013.8812     -34041293      -1221.8089     -1202.9883     -1209.5022      0.8351942     -7.3727058      0.22540812     6614.3782    
     20400   340.30307      0.102          0.12343099     0.12132864     0.12206173    -1206.7484      821.61092      821.61092      821.61092      5.5462395e+08  1.0837977     -34007303      -34007303       1013.3644     -34006290      -1218.1691     -1197.4206     -1204.6556      1.023125      -7.447845       0.74328617     6641.2854    
     20500   340.2429       0.1025         0.12306891     0.12085897     0.12172778    -1202.9136      821.98371      821.98371      821.98371      5.5537922e+08  1.0823238     -33994500      -33994500       1013.1853     -33993486      -1214.5957     -1192.7852     -1201.3598      1.3946454     -7.3799918      0.91744416     6984.043     
     20600   340.26288      0.103          0.1226586      0.12034988     0.12128733    -1198.44        822.35649      822.35649      822.35649      5.5613518e+08  1.0808526     -33957723      -33957723       1013.2447     -33956709      -1210.5463     -1187.7609     -1197.0129      1.8334723     -7.8608598      1.7147873      6587.8544    
     20700   340.24603      0.1035         0.12227039     0.11991907     0.12086237    -1194.3477      822.72927      822.72927      822.72927      5.5689183e+08  1.079384      -33921310      -33921310       1013.1946     -33920297      -1206.7149     -1183.5093     -1192.8188      1.1412616     -8.1635943      2.0958125      6650.9412    
     20800   340.08653      0.104          0.12193677     0.11962186     0.12048473    -1191.0301      823.10205      823.10205      823.10205      5.5764916e+08  1.0779181     -33908589      -33908589       1012.7196     -33907576      -1203.4223     -1180.576      -1189.0919      0.58535575    -8.3421788      1.9353777      7008.2138    
     20900   339.91875      0.1045         0.12155292     0.11923848     0.12005008    -1187.0762      823.47483      823.47483      823.47483      5.5840718e+08  1.0764549     -33879219      -33879219       1012.22       -33878207      -1199.634      -1176.7923     -1184.8022     -0.11609134    -8.351762       1.9005954      6659.753     
     21000   339.809        0.105          0.12115672     0.11896838     0.11969068    -1183.7019      823.84762      823.84762      823.84762      5.5916588e+08  1.0749943     -33866557      -33866557       1011.8932     -33865545      -1195.7239     -1174.1267     -1181.2551      0.031596218   -7.9272283      1.760859       3296.5546    
     21100   339.64697      0.1055         0.12065386     0.11863018     0.11925439    -1179.4997      824.2204       824.2204       824.2204       5.5992528e+08  1.0735364     -33835556      -33835556       1011.4107     -33834545      -1190.761      -1170.7889     -1176.9494      0.6563455     -8.7880649      1.0890614      5191.5096    
     21200   339.37682      0.106          0.1202107      0.1182006      0.11873999    -1174.9364      824.59318      824.59318      824.59318      5.6068536e+08  1.072081      -33796394      -33796394       1010.6062     -33795383      -1186.3873     -1166.5492     -1171.8726     -0.20449842    -8.5461871      1.4244126      6656.8243    
     21300   339.12214      0.1065         0.11992643     0.11777511     0.11842168    -1171.5543      824.96596      824.96596      824.96596      5.6144612e+08  1.0706284     -33783827      -33783827       1009.8478     -33782817      -1183.5818     -1162.3499     -1168.7312     -0.34783124    -8.6862925      2.0204071      7006.2567    
     21400   338.94155      0.107          0.11965361     0.11737433     0.11808075    -1168.2168      825.33874      825.33874      825.33874      5.6220758e+08  1.0691783     -33763726      -33763726       1009.3101     -33762716      -1180.8893     -1158.3946     -1165.3664     -0.27467974    -8.1157352      2.7643596      6671.7345    
     21500   338.16431      0.1075         0.11897778     0.11696208     0.11781282    -1163.7559      825.71152      825.71152      825.71152      5.6296972e+08  1.0677309     -33724373      -33724373       1006.9956     -33723366      -1174.2194     -1154.326      -1162.7221     -1.7300325     -7.3401713      2.3123935      6674.842     
     21600   336.38045      0.108          0.11861435     0.11666809     0.11746406    -1160.4458      826.08431      826.08431      826.08431      5.6373255e+08  1.066286      -33711876      -33711876       1001.6835     -33710875      -1170.6326     -1151.4245     -1159.2802     -1.6146917     -6.8039639      2.0075372      6997.128     
     21700   337.23361      0.1085         0.11825024     0.1163103      0.11704328    -1156.6867      826.45709      826.45709      826.45709      5.6449607e+08  1.0648438     -33691990      -33691990       1004.2241     -33690986      -1167.0392     -1147.8935     -1155.1274     -1.4576941     -6.6333387      1.7537253      6668.3142    
     21800   338.10847      0.109          0.11797887     0.116061       0.11668133    -1153.783       826.82987      826.82987      826.82987      5.6526028e+08  1.0634042     -33679548      -33679548       1006.8293     -33678541      -1164.3609     -1145.433      -1151.5552     -1.6263928     -6.9723478      1.5104445      6932.1423    
     21900   338.32164      0.1095         0.11764437     0.11575885     0.11629109    -1150.4048      827.20265      827.20265      827.20265      5.6602518e+08  1.0619671     -33637557      -33637557       1007.4641     -33636550      -1161.0596     -1142.451      -1147.7038     -1.7792657     -7.4502068      1.8757751      6675.8602    
[...]
    244700   312.18423      1.2235         9.4130719e-05  9.1593921e-05  0.00010049589 -0.94159233     1657.7603      1657.7603      1657.7603      4.5558061e+09  0.13194156    -212793.32     -212793.32      929.63134     -211863.69     -0.92899797    -0.90396172    -0.99181731    -0.07800552    -0.15508984    -0.060970925    27855.976    
    244800   312.34541      1.224          9.4027004e-05  9.1657892e-05  0.00010076044 -0.94233189     1658.1331      1658.1331      1658.1331      4.5588802e+09  0.13185259    -212825.21     -212825.21      930.1113      -211895.1      -0.92797438    -0.90459306    -0.99442822    -0.079553329   -0.15626839    -0.062662591    25866.723    
    244900   312.31204      1.2245         9.3747673e-05  9.1448166e-05  0.00010037191 -0.93944485     1658.5059      1658.5059      1658.5059      4.5619557e+09  0.1317637     -212857.07     -212857.07      930.01191     -211927.06     -0.9252176     -0.90252323    -0.99059372    -0.08259138    -0.15590212    -0.065109904    25974.262    
    245000   312.09112      1.225          9.3456043e-05  9.0988527e-05  9.9912414e-05 -0.93546174     1658.8787      1658.8787      1658.8787      4.5650325e+09  0.13167489    -212888.77     -212888.77      929.35406     -211959.42     -0.92233943    -0.89798694    -0.98605886    -0.08657215    -0.15522449    -0.06790992     8565.1674    
    245100   311.86035      1.2255         9.3320604e-05  9.0446454e-05  0.00010014429 -0.93399572     1659.2515      1659.2515      1659.2515      4.5681108e+09  0.13158616    -212920.3      -212920.3       928.66686     -211991.63     -0.92100275    -0.8926371     -0.98834732    -0.090492953   -0.1563449     -0.069729751    25035.864    
    245200   311.80554      1.226          9.3367508e-05  8.9956218e-05  0.00010096993 -0.93525342     1659.6242      1659.6242      1659.6242      4.5711904e+09  0.13149751    -212951.77     -212951.77      928.50365     -212023.27     -0.92146566    -0.88779884    -0.99649574    -0.093808217   -0.15901145    -0.070768722    27831.647    
    245300   311.9084       1.2265         9.3534066e-05  8.9552368e-05  0.00010158187 -0.93648592     1659.997       1659.997       1659.997       4.5742714e+09  0.13140894    -212983.31     -212983.31      928.80996     -212054.5      -0.92310946    -0.88381315    -1.0025351     -0.096424336   -0.16081243    -0.072901441    25847.995    
    245400   312.01068      1.227          9.3728627e-05  8.9329843e-05  0.00010142939 -0.93589228     1660.3698      1660.3698      1660.3698      4.5773538e+09  0.13132045    -213015.02     -213015.02      929.11452     -212085.9      -0.92502962    -0.881617      -1.0010302     -0.097923516   -0.16023719    -0.076895007    25709.492    
    245500   312.02988      1.2275         9.3928566e-05  8.9373787e-05  0.00010096137 -0.93515493     1660.7426      1660.7426      1660.7426      4.5804376e+09  0.13123203    -213046.9      -213046.9       929.17171     -212117.73     -0.92700287    -0.8820507     -0.99641122    -0.097890699   -0.15891334    -0.081801276    27900.859    
    245600   312.02658      1.228          9.4129115e-05  8.9590905e-05  0.00010080728 -0.93602203     1661.1154      1661.1154      1661.1154      4.5835228e+09  0.1311437     -213078.84     -213078.84      929.16187     -212149.68     -0.92898214    -0.88419349    -0.99489046    -0.096850154   -0.15900548    -0.086640332    25524.751    
    245700   312.08918      1.2285         9.4273332e-05  8.9788015e-05  0.00010110226 -0.93811532     1661.4882      1661.4882      1661.4882      4.5866093e+09  0.13105545    -213110.77     -213110.77      929.34829     -212181.42     -0.93040545    -0.88613881    -0.99780172    -0.095772966   -0.16117441    -0.091305754    25752.813    
    245800   312.19976      1.229          9.4251416e-05  8.9747888e-05  0.00010143217 -0.93899654     1661.8609      1661.8609      1661.8609      4.5896972e+09  0.13096728    -213142.79     -213142.79      929.67758     -212213.11     -0.93018916    -0.88574279    -1.0010577     -0.095543144   -0.16424668    -0.095537121    27923.242    
    245900   312.25451      1.2295         9.4054433e-05  8.94106e-05    0.00010138674 -0.93708948     1662.2337      1662.2337      1662.2337      4.5927866e+09  0.13087918    -213174.98     -213174.98      929.84062     -212245.14     -0.92824508    -0.88241402    -1.0006093     -0.096337167   -0.16649031    -0.099031577    25856.804    
    246000   312.18728      1.23           9.3805731e-05  8.8922099e-05  0.00010103625 -0.93351124     1662.6065      1662.6065      1662.6065      4.5958773e+09  0.13079117    -213207.21     -213207.21      929.64041     -212277.57     -0.92579059    -0.87759289    -0.99715025    -0.097728579   -0.16743116    -0.10194506     8067.531     
    246100   312.03807      1.2305         9.3674712e-05  8.8457765e-05  0.00010067499 -0.93036422     1662.9793      1662.9793      1662.9793      4.5989694e+09  0.13070323    -213239.24     -213239.24      929.19608     -212310.04     -0.92449752    -0.87301026    -0.99358487    -0.099091687   -0.16732511    -0.10458649     27609.719    
    246200   311.91224      1.231          9.3826644e-05  8.8188415e-05  0.00010046984 -0.92930307     1663.3521      1663.3521      1663.3521      4.6020628e+09  0.13061537    -213271.07     -213271.07      928.82139     -212342.25     -0.92599698    -0.87035199    -0.99156024    -0.09966025    -0.16623023    -0.1067146      25100.37     
    246300   311.88904      1.2315         9.4311257e-05  8.8162041e-05  0.00010035249 -0.9304245      1663.7248      1663.7248      1663.7248      4.6051577e+09  0.13052759    -213303.03     -213303.03      928.7523      -212374.28     -0.93077974    -0.87009169    -0.99040208    -0.099353309   -0.16414966    -0.10778732     27759.094    
    246400   311.97079      1.232          9.5024365e-05  8.8271324e-05  0.00010019917 -0.93262558     1664.0976      1664.0976      1664.0976      4.6082539e+09  0.13043989    -213335.3      -213335.3       928.99575     -212406.31     -0.93781756    -0.87117023    -0.98888894    -0.098608843   -0.16156873    -0.10766779     25885.92     
    246500   312.10588      1.2325         9.5788061e-05  8.8357667e-05  9.9963469e-05 -0.93464659     1664.4704      1664.4704      1664.4704      4.6113516e+09  0.13035227    -213367.67     -213367.67      929.39802     -212438.27     -0.94535466    -0.87202237    -0.98656274    -0.098020134   -0.15919126    -0.10658415     25826.073    
    246600   312.22826      1.233          9.6391824e-05  8.8334917e-05  9.9644627e-05 -0.93550907     1664.8432      1664.8432      1664.8432      4.6144506e+09  0.13026473    -213399.88     -213399.88      929.76244     -212470.12     -0.95131333    -0.87179785    -0.98341601    -0.097947414   -0.15730036    -0.10506809     27925.894    
    246700   312.29094      1.2335         9.6719067e-05  8.8247903e-05  9.9220866e-05 -0.93490529     1665.216       1665.216       1665.216       4.617551e+09   0.13017726    -213432.06     -213432.06      929.94909     -212502.11     -0.95454298    -0.87093908    -0.97923381    -0.09787726    -0.15560844    -0.1039551      25895.646    
    246800   312.2747       1.234          9.6699027e-05  8.8186817e-05  9.8680768e-05 -0.93286162     1665.5888      1665.5888      1665.5888      4.6206528e+09  0.13008987    -213464.39     -213464.39      929.90072     -212534.49     -0.9543452     -0.87033621    -0.97390346    -0.097180705   -0.15353974    -0.10392068     25842.411    
    246900   312.19116      1.2345         9.6388029e-05  8.8233882e-05  9.8060394e-05 -0.92995248     1665.9615      1665.9615      1665.9615      4.623756e+09   0.13000257    -213496.81     -213496.81      929.65196     -212567.16     -0.95127588    -0.87080071    -0.96778084    -0.095480146   -0.15053336    -0.10552126     27942.374    
    247000   312.0738       1.235          9.5931688e-05  8.8343993e-05  9.7417295e-05 -0.92669784     1666.3343      1666.3343      1666.3343      4.6268606e+09  0.12991533    -213529.13     -213529.13      929.3025      -212599.83     -0.94677215    -0.87188742    -0.96143395    -0.093245952   -0.14706523    -0.10873761     8015.8258    
    247100   311.95129      1.2355         9.5462966e-05  8.8377187e-05  9.6806692e-05 -0.92325634     1666.7071      1666.7071      1666.7071      4.6299666e+09  0.12982818    -213561.34     -213561.34      928.93767     -212632.41     -0.94214622    -0.87221502    -0.95540777    -0.091243913   -0.14388992    -0.11285865     26559.741    
    247200   311.84528      1.236          9.5115712e-05  8.8233863e-05  9.6297787e-05 -0.91996829     1667.0799      1667.0799      1667.0799      4.6330739e+09  0.12974111    -213593.54     -213593.54      928.62199     -212664.92     -0.93871909    -0.87080052    -0.95038526    -0.090094616   -0.14168165    -0.11711254     25294.306    
    247300   311.77941      1.2365         9.5000114e-05  8.7913432e-05  9.5977848e-05 -0.91748135     1667.4527      1667.4527      1667.4527      4.6361827e+09  0.12965411    -213625.75     -213625.75      928.42585     -212697.33     -0.93757823    -0.86763811    -0.94722771    -0.090192727   -0.14096485    -0.12084134     25862.154    
    247400   311.76599      1.237          9.505207e-05   8.7436322e-05  9.5878763e-05 -0.91575674     1667.8254      1667.8254      1667.8254      4.6392928e+09  0.12956719    -213657.92     -213657.92      928.38588     -212729.53     -0.93809099    -0.8629294     -0.94624982    -0.091844969   -0.14169082    -0.1234777      27865.228    
    247500   311.78372      1.2375         9.5100409e-05  8.6869992e-05  9.5893587e-05 -0.91410145     1668.1982      1668.1982      1668.1982      4.6424043e+09  0.12948035    -213689.95     -213689.95      928.43867     -212761.51     -0.93856806    -0.85734016    -0.94639612    -0.095416819   -0.14315289    -0.12492199     25908.629    
    247600   311.76512      1.238          9.4980618e-05  8.625244e-05   9.5820511e-05 -0.91143538     1668.571       1668.571       1668.571       4.6455173e+09  0.12939359    -213721.77     -213721.77      928.3833      -212793.39     -0.93738581    -0.8512454     -0.94567492    -0.10113902    -0.1444343     -0.12517265     25861.498    
    247700   311.67888      1.2385         9.4755461e-05  8.5739135e-05  9.5798266e-05 -0.90893285     1668.9438      1668.9438      1668.9438      4.6486316e+09  0.1293069     -213753.39     -213753.39      928.12647     -212825.26     -0.93516369    -0.84617947    -0.94545538    -0.107424      -0.14531462    -0.12547742     27888.223    
    247800   311.62675      1.239          9.4661765e-05  8.5525157e-05  9.6115007e-05 -0.90896267     1669.3166      1669.3166      1669.3166      4.6517473e+09  0.12922029    -213784.87     -213784.87      927.97124     -212856.89     -0.93423898    -0.84406767    -0.94858136    -0.11202956    -0.14607039    -0.12761751     25808.676    
    247900   311.71153      1.2395         9.4917653e-05  8.5762162e-05  9.6328658e-05 -0.91128702     1669.6894      1669.6894      1669.6894      4.6548644e+09  0.12913376    -213816.42     -213816.42      928.2237      -212888.2      -0.9367644     -0.84640673    -0.95068994    -0.11241949    -0.14485208    -0.13208076     25839.259    
    248000   311.86558      1.24           9.5432846e-05  8.6358835e-05  9.577944e-05  -0.91313799     1670.0621      1670.0621      1670.0621      4.6579829e+09  0.12904731    -213848.24     -213848.24      928.68246     -212919.56     -0.94184896    -0.85229544    -0.94526958    -0.10869871    -0.14023294    -0.13785896     8889.4839    
    248100   311.99307      1.2405         9.5984034e-05  8.7003282e-05  9.5059415e-05 -0.91470262     1670.4349      1670.4349      1670.4349      4.6611028e+09  0.12896093    -213880.25     -213880.25      929.06208     -212951.19     -0.94728876    -0.85865563    -0.93816348    -0.10407889    -0.13572927    -0.14383396     25105.695    
    248200   312.1494       1.241          9.6300084e-05  8.7307846e-05  9.4926539e-05 -0.91630716     1670.8077      1670.8077      1670.8077      4.664224e+09   0.12887463    -213912.34     -213912.34      929.52762     -212982.82     -0.95040794    -0.86166144    -0.9368521     -0.10228287    -0.13514786    -0.14830878     27786.453    
    248300   312.25446      1.2415         9.6056585e-05  8.7013592e-05  9.4563384e-05 -0.9133434      1671.1805      1671.1805      1671.1805      4.6673467e+09  0.12878841    -213944.43     -213944.43      929.84046     -213014.59     -0.94800479    -0.85875738    -0.93326804    -0.1049959     -0.13610155    -0.14914842     25844.301    
    248400   312.07856      1.242          9.5449952e-05  8.6354594e-05  9.3323924e-05 -0.90510229     1671.5533      1671.5533      1671.5533      4.6704708e+09  0.12870226    -213976.36     -213976.36      929.31665     -213047.04     -0.94201779    -0.85225358    -0.92103552    -0.10917617    -0.13461301    -0.14670527     25887.34     
    248500   311.66788      1.2425         9.4954087e-05  8.5732622e-05  9.2177137e-05 -0.89765226     1671.926       1671.926       1671.926       4.6735962e+09  0.12861619    -214007.95     -214007.95      928.09372     -213079.85     -0.93712398    -0.8461152     -0.90971761    -0.11125743    -0.13173654    -0.14381493     27827.357    
    248600   311.3726       1.243          9.4864139e-05  8.5493333e-05  9.1740876e-05 -0.89513397     1672.2988      1672.2988      1672.2988      4.6767231e+09  0.1285302     -214039.08     -214039.08      927.21442     -213111.86     -0.93623626    -0.84375359    -0.90541205    -0.1088731     -0.12819792    -0.14288656     25761.145    
    248700   311.32764      1.2435         9.4847783e-05  8.5543628e-05  9.1308146e-05 -0.89382205     1672.6716      1672.6716      1672.6716      4.6798513e+09  0.12844428    -214069.81     -214069.81      927.08056     -213142.73     -0.93607483    -0.84424997    -0.90114134    -0.10401247    -0.12302537    -0.14289483     25850.755    
    248800   311.37148      1.244          9.4564469e-05  8.5661403e-05  9.0562169e-05 -0.8908234      1673.0444      1673.0444      1673.0444      4.6829809e+09  0.12835844    -214100.46     -214100.46      927.2111      -213173.25     -0.93327875    -0.84541232    -0.89377912    -0.099642901   -0.11705576    -0.14246946     27807.083    
    248900   311.37401      1.2445         9.388257e-05   8.5632902e-05  8.9928603e-05 -0.88640209     1673.4172      1673.4172      1673.4172      4.686112e+09   0.12827268    -214131.61     -214131.61      927.21864     -213204.4      -0.92654892    -0.84513104    -0.8875263     -0.098427244   -0.11324709    -0.14086856     25887.26     
    249000   311.3239       1.245          9.3000379e-05  8.5502797e-05  8.9542211e-05 -0.88180076     1673.79        1673.79        1673.79        4.6892444e+09  0.12818699    -214163.06     -214163.06      927.06941     -213235.99     -0.91784238    -0.843847      -0.88371292    -0.099567922   -0.11195254    -0.1384656      8202.8156    
    249100   311.24827      1.2455         9.2204556e-05  8.5357894e-05  8.9193124e-05 -0.87755761     1674.1627      1674.1627      1674.1627      4.6923782e+09  0.12810138    -214193.99     -214193.99      926.8442      -213267.14     -0.90998822    -0.84241692    -0.88026769    -0.10122501    -0.11156566    -0.13610319     27706.871    
    249200   311.18158      1.246          9.1761649e-05  8.5276259e-05  8.8709259e-05 -0.87424021     1674.5355      1674.5355      1674.5355      4.6955134e+09  0.12801585    -214224.26     -214224.26      926.64561     -213297.62     -0.90561706    -0.84161124    -0.87549231    -0.10182265    -0.11063588    -0.13464454     25770.699    
    249300   311.14126      1.2465         9.1691399e-05  8.5176361e-05  8.8016353e-05 -0.87140098     1674.9083      1674.9083      1674.9083      4.6986501e+09  0.12793039    -214254.4      -214254.4       926.52555     -213327.87     -0.90492375    -0.84062533    -0.86865386    -0.10165011    -0.10878327    -0.13425442     27924.006    
    249400   311.12224      1.247          9.1904452e-05  8.5007992e-05  8.7275606e-05 -0.86911111     1675.2811      1675.2811      1675.2811      4.7017881e+09  0.12784501    -214284.54     -214284.54      926.46891     -213358.07     -0.90702642    -0.83896365    -0.86134326    -0.10151554    -0.10665648    -0.13462942     24861.948    
    249500   311.14275      1.2475         9.2287424e-05  8.4817974e-05  8.6688612e-05 -0.86781482     1675.6539      1675.6539      1675.6539      4.7049275e+09  0.1277597     -214314.58     -214314.58      926.52999     -213388.05     -0.91080606    -0.83708832    -0.85555008    -0.10182365    -0.1049419     -0.13527789     25804.227    
    249600   311.18909      1.248          9.2677586e-05  8.4679542e-05  8.6070736e-05 -0.8666103      1676.0266      1676.0266      1676.0266      4.7080683e+09  0.12767447    -214344.54     -214344.54      926.66797     -213417.87     -0.91465666    -0.8357221     -0.84945212    -0.10255975    -0.10299208    -0.13560545     27951.934    
    249700   311.18825      1.2485         9.2917885e-05  8.4662014e-05  8.523985e-05  -0.86460975     1676.3994      1676.3994      1676.3994      4.7112105e+09  0.12758932    -214374.47     -214374.47      926.66546     -213447.8      -0.91702823    -0.83554912    -0.84125191    -0.10348597    -0.10026679    -0.13531945     25816.472    
    249800   311.13004      1.249          9.2940905e-05  8.4734547e-05  8.4618505e-05 -0.86288003     1676.7722      1676.7722      1676.7722      4.7143541e+09  0.12750424    -214404.4      -214404.4       926.49212     -213477.91     -0.91725541    -0.83626496    -0.83511971    -0.10484362    -0.098346418   -0.13529626     25901.602    
    249900   311.10603      1.2495         9.2769228e-05  8.4831697e-05  8.4494733e-05 -0.86222768     1677.145       1677.145       1677.145       4.7174991e+09  0.12741924    -214434.27     -214434.27      926.42064     -213507.85     -0.9155611     -0.83722376    -0.83389818    -0.10676975    -0.098303595   -0.13630018     27819.259    
    250000   311.11508      1.25           9.2363482e-05  8.4851957e-05  8.4263645e-05 -0.86019931     1677.5178      1677.5178      1677.5178      4.7206455e+09  0.12733431    -214463.83     -214463.83      926.44757     -213537.39     -0.91155669    -0.8374237     -0.83161752    -0.10902028    -0.098165474   -0.13789599     8323.77      
Loop time of 22.6888 on 1 procs for 250000 steps with 1000 atoms

Performance: 952.013 ns/day, 0.025 hours/ns, 11018.670 timesteps/s
89.1% CPU use with 1 MPI tasks x 1 OpenMP threads

MPI task timing breakdown:
Section |  min time  |  avg time  |  max time  |%varavg| %total
---------------------------------------------------------------
Pair    | 9.9875     | 9.9875     | 9.9875     |   0.0 | 44.02
Neigh   | 0.66631    | 0.66631    | 0.66631    |   0.0 |  2.94
Comm    | 0.96409    | 0.96409    | 0.96409    |   0.0 |  4.25
Output  | 3.6487     | 3.6487     | 3.6487     |   0.0 | 16.08
Modify  | 6.4783     | 6.4783     | 6.4783     |   0.0 | 28.55
Other   |            | 0.9439     |            |       |  4.16

Nlocal:           1000 ave        1000 max        1000 min
Histogram: 1 0 0 0 0 0 0 0 0 0
Nghost:            522 ave         522 max         522 min
Histogram: 1 0 0 0 0 0 0 0 0 0
Neighs:             55 ave          55 max          55 min
Histogram: 1 0 0 0 0 0 0 0 0 0

Total # of neighbors = 55
Ave neighs/atom = 0.055
Neighbor list builds = 1586
Dangerous builds = 0

# restart file
write_restart ./tensile/restart/restart_${usic}_${trial}.tensile.restart
write_restart ./tensile/restart/restart_1_${trial}.tensile.restart
write_restart ./tensile/restart/restart_1_1.tensile.restart
System init for write_restart ...
Generated 0 of 1 mixed pair_coeff terms from geometric mixing rule
Total wall time: 0:00:22
