LAMMPS (23 Jun 2022 - Update 1)
OMP_NUM_THREADS environment is not set. Defaulting to 1 thread. (src/comm.cpp:98)
  using 1 OpenMP thread(s) per MPI task
###

# Read restart info
read_restart ${read_res}
read_restart ./100900/equpmf71.res
Reading restart file ...
  restart file = 23 Jun 2022, LAMMPS = 23 Jun 2022
  restoring atom style atomic from restart
  orthogonal box = (1955.1095 1955.1095 1955.1095) to (3044.8905 3044.8905 3044.8905)
  1 by 1 by 1 MPI processor grid
  restoring pair style table from restart
  900 atoms
  read_restart CPU = 0.035 seconds

# Settings
pair_style table/pgn spline 9941
pair_coeff 1 1 N20.txt DE_GNP 147.89 75.6
pair_coeff 2 2 N100.txt DE_GNP 473.9 115.92
WARNING: 3 of 9941 force values in table DE_GNP are inconsistent with -dE/dr.
WARNING:  Should only be flagged at inflection points (src/pair_table_pgn.cpp:478)
pair_coeff 1 2 mixed_potential.txt DE_GNP 391.2 95.66
WARNING: 1562 of 9941 force values in table DE_GNP are inconsistent with -dE/dr.
WARNING:  Should only be flagged at inflection points (src/pair_table_pgn.cpp:478)

# Neighbor list
neighbor 2.0 bin
neigh_modify delay 0 every 1 check yes

# Temperature
variable T equal ${Temp}
variable T equal 300

# Deformation
reset_timestep 0
variable tmp equal "lx"
variable L0 equal ${tmp}
variable L0 equal 1089.78101006104
variable strain equal "(lx - v_L0)/v_L0"
variable stp equal "step"
variable tmpe equal "temp"
variable p1 equal "v_strain"
variable p2 equal "-pxx*1.01325/10000"
variable p3 equal "-pyy*1.01325/10000"
variable p4 equal "-pzz*1.01325/10000"
variable p5 equal "lx"
variable p6 equal "ly"
variable p7 equal "lz"
variable p8 equal "press"
variable p9 equal "epair"
variable p10 equal "etotal"

# Thermo
thermo_style custom step temp v_p1 v_p2 v_p3 v_p4 press lx ly lz vol density epair pe ke etotal pxx pyy pzz pxy pxz pyz spcpu
thermo ${ts_save}
thermo 100

# Dump
dump 1 all custom 1000 ./tensile/trajectory/trajectory_${usic}_${trial}_*.tensile.custom id type x y z ix iy iz
dump 1 all custom 1000 ./tensile/trajectory/trajectory_1_${trial}_*.tensile.custom id type x y z ix iy iz
dump 1 all custom 1000 ./tensile/trajectory/trajectory_1_1_*.tensile.custom id type x y z ix iy iz
dump_modify 1 sort id
dump 2 all cfg 1000 ./tensile/trajectory/ovito/dumpten.tens_*.cfg mass type xs ys zs fx fy fz
dump_modify 2 element N20 N100

fix 1 all nvt temp ${T} ${T} 100
fix 1 all nvt temp 300 ${T} 100
fix 1 all nvt temp 300 300 100
fix 2 all deform 1 x erate ${strain_rate} y erate ${strain_rate} z erate ${strain_rate} units box
fix 2 all deform 1 x erate 5e-6 y erate ${strain_rate} z erate ${strain_rate} units box
fix 2 all deform 1 x erate 5e-6 y erate 5e-6 z erate ${strain_rate} units box
fix 2 all deform 1 x erate 5e-6 y erate 5e-6 z erate 5e-6 units box
fix             def1 all print ${ts_save} "${p1} ${p2} ${p3} ${p4}" file tensile${N20}${N100}_${usic}_${trial}.txt screen no
fix             def1 all print 100 "${p1} ${p2} ${p3} ${p4}" file tensile${N20}${N100}_${usic}_${trial}.txt screen no
fix             def1 all print 100 "${p1} ${p2} ${p3} ${p4}" file tensile100${N100}_${usic}_${trial}.txt screen no
fix             def1 all print 100 "${p1} ${p2} ${p3} ${p4}" file tensile100900_${usic}_${trial}.txt screen no
fix             def1 all print 100 "${p1} ${p2} ${p3} ${p4}" file tensile100900_1_${trial}.txt screen no
fix             def1 all print 100 "${p1} ${p2} ${p3} ${p4}" file tensile100900_1_1.txt screen no

timestep       		${ts}
timestep       		1
run				${steps_tensile}
run				250000
Generated 0 of 1 mixed pair_coeff terms from geometric mixing rule
Unused restart file global fix info:
  fix style: npt, fix ID: 5
Neighbor list info ...
  update every 1 steps, delay 0 steps, check yes
  max neighbors/atom: 2000, page size: 100000
  master list distance cutoff = 117.92
  ghost atom cutoff = 117.92
  binsize = 58.96, bins = 19 19 19
  1 neighbor lists, perpetual/occasional/extra = 1 0 0
  (1) pair table/pgn, perpetual
      attributes: half, newton on
      pair build: half/bin/atomonly/newton
      stencil: half/bin/3d
      bin: standard
Per MPI rank memory allocation (min/avg/max) = 5.814 | 5.814 | 5.814 Mbytes
   Step          Temp           v_p1           v_p2           v_p3           v_p4          Press            Lx             Ly             Lz           Volume        Density         E_pair         PotEng         KinEng         TotEng          Pxx            Pyy            Pzz            Pxy            Pxz            Pyz           S/CPU     
         0   308.06862     -4.1728324e-16 -0.0077686175   0.0094168712   0.0053177823  -22.916477      1089.781       1089.781       1089.781       1.2942486e+09  0.48734756    -40603003      -40603003       825.54635     -40602177       76.670294     -92.937293     -52.482431      18.660755      112.32667      134.96746      0            
       100   446.10571      0.0005        -0.0054866258   0.01138877     0.0073630502  -43.639097      1090.3259      1090.3259      1090.3259      1.296191e+09   0.48661727    -40602571      -40602571       1195.451      -40601375       54.148787     -112.39842     -72.667655      18.681483      110.60707      132.207        6680.4141    
       200   513.46943      0.001         -0.0033720468   0.013257524    0.0092766317  -63.038437      1090.8708      1090.8708      1090.8708      1.2981352e+09  0.48588844    -40543436      -40543436       1375.9688     -40542060       33.279515     -130.84159     -91.553237      19.195343      109.29584      129.30344      7698.716     
       300   523.85252      0.0015        -0.0012860957   0.015091286    0.01111542    -81.982433      1091.4157      1091.4157      1091.4157      1.3000815e+09  0.48516106    -40491036      -40491036       1403.7929     -40489632       12.692777     -148.93941     -109.70066      19.553266      107.43346      126.42062      7791.8206    
       400   508.78961      0.002          0.00086258028  0.016892071    0.012924777   -100.92747      1091.9606      1091.9606      1091.9606      1.3020296e+09  0.48443513    -40459905      -40459905       1363.4281     -40458542      -8.5130055     -166.71178     -127.55763      19.704533      105.86793      124.20887      7867.2536    
       500   487.52495      0.0025         0.002887708    0.01862919     0.014713547   -119.1889       1092.5055      1092.5055      1092.5055      1.3039798e+09  0.48371065    -40399124      -40399124       1306.4441     -40397818      -28.499462     -183.85581     -145.21141      19.22325       104.01387      121.48214      7874.1273    
       600   468.56073      0.003          0.0049128487   0.020377439    0.016539491   -137.60927      1093.0504      1093.0504      1093.0504      1.3059318e+09  0.48298762    -40366902      -40366902       1255.6248     -40365646      -48.486047     -201.10969     -163.23208      19.397611      102.40079      118.86759      7880.2573    
       700   453.804        0.0035         0.0068234029   0.021983637    0.018243074   -154.78284      1093.5952      1093.5952      1093.5952      1.3078858e+09  0.48226602    -40275963      -40275963       1216.0805     -40274746      -67.341751     -216.96163     -180.04514      19.717474      100.68669      116.43654      7870.0943    
       800   443.31549      0.004          0.0087257862   0.023597661    0.01992122    -171.87159      1094.1401      1094.1401      1094.1401      1.3098418e+09  0.48154586    -40199088      -40199088       1187.9739     -40197900      -86.116815     -232.89081     -196.60715      19.763307      99.055624      113.7533       7900.2333    
       900   436.62965      0.0045         0.010621346    0.025235319    0.021543933   -188.83329      1094.685       1094.685       1094.685       1.3117997e+09  0.48082714    -40143541      -40143541       1170.0575     -40142371      -104.82453     -249.05323     -212.62209      19.853515      97.58751       111.32604      7889.3615    
      1000   432.81059      0.005          0.01248814     0.026786013    0.023128932   -205.29019      1095.2299      1095.2299      1095.2299      1.3137596e+09  0.48010984    -40087502      -40087502       1159.8234     -40086342      -123.24836     -264.3574      -228.26481      19.555764      96.122111      109.37468      4874.0119    
      1100   430.99545      0.0055         0.014332631    0.028351932    0.024720102   -221.74411      1095.7748      1095.7748      1095.7748      1.3157214e+09  0.47939397    -40052811      -40052811       1154.9593     -40051656      -141.45207     -279.81182     -243.96843      19.382532      94.714321      107.08615      7808.3482    
      1200   430.59622      0.006          0.016123197    0.029795288    0.026229356   -237.34794      1096.3197      1096.3197      1096.3197      1.3176851e+09  0.47867953    -39988554      -39988554       1153.8895     -39987400      -159.12358     -294.05663     -258.86362      19.502301      92.972551      105.29135      7922.9176    
      1300   431.07306      0.0065         0.017889504    0.031212635    0.02775998    -252.85671      1096.8646      1096.8646      1096.8646      1.3196509e+09  0.4779665     -39945683      -39945683       1155.1673     -39944528      -176.55567     -308.04476     -273.96971      19.601348      91.314739      103.4986       7933.4076    
      1400   432.18444      0.007          0.019645855    0.032691011    0.029311497   -268.60223      1097.4095      1097.4095      1097.4095      1.3216185e+09  0.47725489    -39938748      -39938748       1158.1455     -39937590      -193.88951     -322.63519     -289.28198      19.60805       89.623015      101.13809      8307.7324    
      1500   434.33293      0.0075         0.021327269    0.034139621    0.030763908   -283.67727      1097.9544      1097.9544      1097.9544      1.3235882e+09  0.47654469    -39909555      -39909555       1163.9029     -39908391      -210.48378     -336.93186     -303.61617      19.586731      87.897465      98.553529      7941.3156    
      1600   436.87679      0.008          0.022935286    0.035531912    0.032172753   -298.18226      1098.4993      1098.4993      1098.4993      1.3255597e+09  0.47583589    -39865392      -39865392       1170.7198     -39864222      -226.35367     -350.67271     -317.52039      19.688961      86.539604      96.231515      7948.2183    
      1700   439.67003      0.0085         0.024554601    0.036837652    0.0334871     -312.1288       1099.0441      1099.0441      1099.0441      1.3275333e+09  0.47512851    -39806274      -39806274       1178.205      -39805095      -242.33507     -363.55936     -330.49198      19.584072      85.037898      93.82058       7959.3487    
      1800   443.13614      0.009          0.026182817    0.038161635    0.034867994   -326.38357      1099.589       1099.589       1099.589       1.3295088e+09  0.47442252    -39783123      -39783123       1187.4933     -39781935      -258.40431     -376.62605     -344.12035      19.360024      83.329859      91.33898       7865.2772    
      1900   446.55754      0.0095         0.027681807    0.039392773    0.036190483   -339.71565      1100.1339      1100.1339      1100.1339      1.3314862e+09  0.47371793    -39701390      -39701390       1196.6618     -39700194      -273.1982      -388.77644     -357.1723       18.863236      81.71156       89.139302      7957.4544    
      2000   449.85576      0.01           0.029208211    0.04062612     0.0374318     -352.87813      1100.6788      1100.6788      1100.6788      1.3334656e+09  0.47301474    -39626559      -39626559       1205.5002     -39625354      -288.26263     -400.94863     -369.42314      19.416399      80.460119      87.323364      4350.4233    
      2100   453.20218      0.0105         0.030684552    0.041778907    0.038667183   -365.59139      1101.2237      1101.2237      1101.2237      1.335447e+09   0.47231294    -39558630      -39558630       1214.4678     -39557416      -302.83298     -412.32575     -381.61542      19.409677      79.17982       85.129828      7583.7768    
      2200   456.65001      0.011          0.032043279    0.042841462    0.039877539   -377.53855      1101.7686      1101.7686      1101.7686      1.3374304e+09  0.47161252    -39468520      -39468520       1223.707      -39467297      -316.24258     -422.81235     -393.56071      19.609945      77.775514      83.426494      7996.0576    
      2300   460.13617      0.0115         0.033443691    0.044008957    0.041035123   -389.79446      1102.3135      1102.3135      1102.3135      1.3394156e+09  0.47091349    -39414434      -39414434       1233.0491     -39413201      -330.06356     -434.33464     -404.98517      19.384784      76.661135      81.332505      8015.5945    
      2400   463.65849      0.012          0.034878581    0.045108567    0.042222991   -402.0401       1102.8584      1102.8584      1102.8584      1.3414029e+09  0.47021584    -39367272      -39367272       1242.488      -39366030      -344.22484     -445.18695     -416.70852      19.085896      75.293983      79.677732      8022.1759    
      2500   467.22427      0.0125         0.036256998    0.04619477     0.043339695   -413.82174      1103.4033      1103.4033      1103.4033      1.3433921e+09  0.46951957    -39305212      -39305212       1252.0434     -39303960      -357.82875     -455.90694     -427.72954      19.258553      73.866819      77.646642      7937.8309    
      2600   470.57363      0.013          0.037611802    0.047265632    0.044467357   -425.51128      1103.9482      1103.9482      1103.9482      1.3453833e+09  0.46882467    -39264647      -39264647       1261.0189     -39263386      -371.19963     -466.47552     -438.85869      19.230585      72.46125       75.711162      8032.9402    
      2700   474.10174      0.0135         0.03898359     0.048337622    0.045609874   -437.30927      1104.4931      1104.4931      1104.4931      1.3473765e+09  0.46813114    -39252852      -39252852       1270.4733     -39251582      -384.73812     -477.05524     -450.13446      19.237582      71.027022      73.386581      8395.5253    
      2800   477.72531      0.014          0.040280051    0.049357482    0.046706419   -448.53673      1105.0379      1105.0379      1105.0379      1.3493716e+09  0.46743898    -39218902      -39218902       1280.1835     -39217622      -397.5332      -487.12047     -460.95651      19.082682      69.446947      70.96421       8015.0876    
      2900   481.12554      0.0145         0.041433716    0.050307497    0.047712061   -458.7656       1105.5828      1105.5828      1105.5828      1.3513687e+09  0.46674819    -39133720      -39133720       1289.2953     -39132431      -408.91898     -496.49639     -470.88144      19.252152      67.791257      69.158331      8036.3261    
      3000   484.26612      0.015          0.04253544     0.051258738    0.048696081   -468.75651      1106.1277      1106.1277      1106.1277      1.3533678e+09  0.46605875    -39048241      -39048241       1297.7113     -39046944      -419.79215     -505.88441     -480.59296      19.399423      66.316436      67.490001      4973.0367    
      3100   487.56904      0.0155         0.043734011    0.052229431    0.049704061   -479.20883      1106.6726      1106.6726      1106.6726      1.3553688e+09  0.46537067    -39020665      -39020665       1306.5623     -39019359      -431.62113     -515.4644      -490.54094      19.528674      64.755808      65.425923      8003.7976    
      3200   490.64593      0.016          0.044910488    0.053117358    0.050593712   -488.92691      1107.2175      1107.2175      1107.2175      1.3573718e+09  0.46468395    -38963705      -38963705       1314.8076     -38962390      -443.23206     -524.22756     -499.32112      19.113696      63.325936      63.986891      7965.7987    
      3300   493.80163      0.0165         0.04600386     0.053997049    0.051532143   -498.50498      1107.7624      1107.7624      1107.7624      1.3593768e+09  0.46399857    -38906456      -38906456       1323.264      -38905133      -454.0228      -532.90944     -508.58271      19.18325       61.798959      62.273648      8070.9755    
      3400   497.14675      0.017          0.047175205    0.05489774     0.052468316   -508.40122      1108.3073      1108.3073      1108.3073      1.3613838e+09  0.46331455    -38878016      -38878016       1332.2281     -38876684      -465.58307     -541.79857     -517.82201      19.076742      60.4535        60.459506      8081.7603    
      3500   500.2527       0.0175         0.04822984     0.055662083    0.053317557   -517.17898      1108.8522      1108.8522      1108.8522      1.3633927e+09  0.46263186    -38791101      -38791101       1340.5513     -38789760      -475.99151     -549.34205     -526.20337      19.102347      59.281969      58.875623      8080.8375    
      3600   503.13081      0.018          0.049267515    0.056495797    0.054211362   -526.27576      1109.3971      1109.3971      1109.3971      1.3654036e+09  0.46195052    -38747580      -38747580       1348.2639     -38746232      -486.23256     -557.57017     -535.02454      19.072102      58.022584      56.87171       8095.7487    
      3700   505.94895      0.0185         0.050232286    0.057317248    0.055058886   -534.94011      1109.942       1109.942       1109.942       1.3674165e+09  0.46127052    -38689253      -38689253       1355.8158     -38687898      -495.75412     -565.67726     -543.38895      18.910299      56.509965      54.977839      8101.8388    
      3800   508.57338      0.019          0.051185335    0.05805589     0.055855535   -543.12611      1110.4868      1110.4868      1110.4868      1.3694313e+09  0.46059184    -38616125      -38616125       1362.8486     -38614763      -505.15998     -572.96708     -551.25127      18.613178      55.577784      53.26107       8097.9515    
      3900   510.92652      0.0195         0.052141571    0.05878513     0.056645952   -551.27117      1111.0317      1111.0317      1111.0317      1.3714482e+09  0.4599145     -38564583      -38564583       1369.1544     -38563214      -514.5973      -580.16413     -559.05208      18.268874      54.141864      51.345986      8116.142     
      4000   513.27359      0.02           0.053087051    0.059508088    0.057392069   -559.21444      1111.5766      1111.5766      1111.5766      1.373467e+09   0.45923849    -38520070      -38520070       1375.444      -38518695      -523.92846     -587.29917     -566.41568      18.138759      52.821137      49.432244      4870.6736    
      4100   515.68373      0.0205         0.054073508    0.060236439    0.058150791   -567.35172      1112.1215      1112.1215      1112.1215      1.3754878e+09  0.4585638     -38504426      -38504426       1381.9026     -38503044      -533.66403     -594.48744     -573.90368      18.167423      51.328667      47.495277      8504.8601    
      4200   518.18997      0.021          0.054999789    0.060903702    0.05885736    -574.9185       1112.6664      1112.6664      1112.6664      1.3775106e+09  0.45789043    -38452184      -38452184       1388.6187     -38450796      -542.80572     -601.07281     -580.87698      18.142013      50.054942      45.727972      8123.8629    
      4300   520.5021       0.0215         0.055867836    0.061553613    0.059583148   -582.29985      1113.2113      1113.2113      1113.2113      1.3795353e+09  0.45721838    -38392445      -38392445       1394.8146     -38391051      -551.37267     -607.48692     -588.03995      18.133353      48.91135       44.090077      8136.9891    
      4400   522.6545       0.022          0.056730213    0.062176132    0.060283788   -589.48971      1113.7562      1113.7562      1113.7562      1.381562e+09   0.45654765    -38347032      -38347032       1400.5825     -38345631      -559.88367     -613.63071     -594.95473      17.833956      47.88371       42.098766      8160.5107    
      4500   524.66361      0.0225         0.057542403    0.062747784    0.060892445   -596.04452      1114.3011      1114.3011      1114.3011      1.3835908e+09  0.45587822    -38286865      -38286865       1405.9664     -38285459      -567.89937     -619.27248     -600.96171      18.186294      46.469385      40.211474      8170.7397    
      4600   526.7154       0.023          0.058351359    0.063347419    0.061494448   -602.65886      1114.846       1114.846       1114.846       1.3856215e+09  0.4552101     -38248313      -38248313       1411.4647     -38246902      -575.88314     -625.19042     -606.90301      18.122982      45.01851       38.369426      8172.5794    
      4700   528.61801      0.0235         0.058983255    0.063849017    0.062044989   -608.1989       1115.3909      1115.3909      1115.3909      1.3876542e+09  0.45454329    -38144095      -38144095       1416.5632     -38142678      -582.11947     -630.14081     -612.33643      18.215551      43.848988      36.464202      8176.542     
      4800   530.48187      0.024          0.059744304    0.064395541    0.062616071   -614.3792       1115.9358      1115.9358      1115.9358      1.3896889e+09  0.45387778    -38083357      -38083357       1421.5579     -38081935      -589.63044     -635.53457     -617.97257      18.353647      42.541912      35.124574      8082.5846    
      4900   532.50802      0.0245         0.060509574    0.064962439    0.063214414   -620.73009      1116.4806      1116.4806      1116.4806      1.3917255e+09  0.45321357    -38044260      -38044260       1426.9874     -38042833      -597.18307     -641.12943     -623.87776      18.410215      41.118246      33.527304      8156.9848    
      5000   534.65402      0.025          0.061259425    0.065496232    0.063756598   -626.73659      1117.0255      1117.0255      1117.0255      1.3937642e+09  0.45255066    -38004976      -38004976       1432.7382     -38003543      -604.58352     -646.39756     -629.2287       18.282147      39.635353      32.260421      4685.9328    
      5100   536.71102      0.0255         0.06197572     0.065986444    0.06423647    -632.28434      1117.5704      1117.5704      1117.5704      1.3958048e+09  0.45188903    -37958230      -37958230       1438.2504     -37956792      -611.6528      -651.23556     -633.96467      18.024619      38.646838      30.99369       7216.45      
      5200   538.58505      0.026          0.062644663    0.066462545    0.064656773   -637.43394      1118.1153      1118.1153      1118.1153      1.3978475e+09  0.4512287     -37904040      -37904040       1443.2723     -37902597      -618.25475     -655.93432     -638.11274      17.763106      37.268686      29.014414      8178.9188    
      5300   540.22071      0.0265         0.063324299    0.066925094    0.065152943   -642.82371      1118.6602      1118.6602      1118.6602      1.3998921e+09  0.45056965    -37886062      -37886062       1447.6555     -37884614      -624.96224     -660.49933     -643.00955      17.679829      36.017486      27.299286      8546.4074    
      5400   541.61363      0.027          0.063856876    0.067320607    0.0655961     -647.33476      1119.2051      1119.2051      1119.2051      1.4019387e+09  0.44991188    -37809744      -37809744       1451.3882     -37808293      -630.21837     -664.40273     -647.38317      17.417413      35.190708      25.579647      8206.1618    
      5500   542.89646      0.0275         0.064473955    0.067683816    0.066059113   -652.08285      1119.75        1119.75        1119.75        1.4039874e+09  0.4492554     -37755109      -37755109       1454.8258     -37753654      -636.30846     -667.98733     -651.95276      17.358975      34.240257      23.875412      8115.4807    
      5600   544.16262      0.028          0.065037238    0.068049583    0.066496668   -656.57863      1120.2949      1120.2949      1120.2949      1.406038e+09   0.44860019    -37700338      -37700338       1458.2188     -37698880      -641.86763     -671.59717     -656.27109      17.24478       33.099906      22.326267      8222.1311    
      5700   545.43109      0.0285         0.065584147    0.068389316    0.066833129   -660.60233      1120.8398      1120.8398      1120.8398      1.4080906e+09  0.44794625    -37638143      -37638143       1461.618      -37636682      -647.26521     -674.95007     -659.5917       17.389222      32.046548      21.46468       8184.8921    
      5800   546.62001      0.029          0.066133582    0.068743337    0.067160528   -664.65153      1121.3847      1121.3847      1121.3847      1.4101452e+09  0.44729359    -37590360      -37590360       1464.804      -37588895      -652.68771     -678.44399     -662.82288      17.326802      31.09136       20.448245      8232.4108    
      5900   547.62548      0.0295         0.066626718    0.069029818    0.067466707   -668.22352      1121.9295      1121.9295      1121.9295      1.4122018e+09  0.44664219    -37520620      -37520620       1467.4984     -37519152      -657.55458     -681.27134     -665.84463      17.30385       29.980363      19.177113      8220.8522    
      6000   548.5599       0.03           0.067055298    0.069252912    0.067752439   -671.30734      1122.4744      1122.4744      1122.4744      1.4142604e+09  0.44599205    -37436215      -37436215       1470.0024     -37434745      -661.78434     -683.4731      -668.66458      17.366538      28.771768      18.250055      4469.3319    
      6100   549.51602      0.0305         0.067510259    0.069447718    0.068098179   -674.5823       1123.0193      1123.0193      1123.0193      1.416321e+09   0.44534318    -37373531      -37373531       1472.5646     -37372059      -666.27446     -685.39568     -672.07677      17.429329      27.736104      17.046834      7915.2912    
      6200   550.48676      0.031          0.068020541    0.069716721    0.068371571   -678.04534      1123.5642      1123.5642      1123.5642      1.4183836e+09  0.44469557    -37325291      -37325291       1475.1659     -37323816      -671.31055     -688.05054     -674.77494      17.303052      26.580059      15.758284      8244.5315    
      6300   551.40949      0.0315         0.068462434    0.070011309    0.06864724    -681.37506      1124.1091      1124.1091      1124.1091      1.4204482e+09  0.44404921    -37276950      -37276950       1477.6386     -37275472      -675.67169     -690.9579      -677.49558      17.181368      25.652272      14.407469      8154.1899    
      6400   552.19232      0.032          0.068881397    0.070244545    0.068904835   -684.36805      1124.654       1124.654       1124.654       1.4225148e+09  0.4434041     -37228502      -37228502       1479.7364     -37227022      -679.80654     -693.25976     -680.03785      17.225484      24.496171      13.404806      8271.8083    
      6500   552.98632      0.0325         0.069268025    0.070495212    0.069180717   -687.37216      1125.1989      1125.1989      1125.1989      1.4245834e+09  0.44276024    -37209054      -37209054       1481.8641     -37207573      -683.62225     -695.73365     -682.76059      17.217875      23.448735      12.114078      8667.8397    
      6600   553.54714      0.033          0.069582334    0.070708244    0.069392829   -689.80478      1125.7438      1125.7438      1125.7438      1.426654e+09   0.44211763    -37160411      -37160411       1483.367      -37158927      -686.72424     -697.83611     -684.85398      16.991292      22.364412      10.800187      8295.9869    
      6700   554.17134      0.0335         0.0699777      0.070893585    0.069571492   -692.30291      1126.2887      1126.2887      1126.2887      1.4287267e+09  0.44147626    -37118945      -37118945       1485.0397     -37117460      -690.6262      -699.66528     -686.61724      16.702549      21.28337       9.425197       8258.5542    
      6800   554.71383      0.034          0.070312575    0.071078047    0.069769191   -694.66177      1126.8336      1126.8336      1126.8336      1.4308013e+09  0.44083613    -37077393      -37077393       1486.4934     -37075906      -693.93116     -701.48578     -688.56837      16.578096      20.073074      8.0182302      8310.8753    
      6900   555.12901      0.0345         0.070582215    0.071260988    0.069964945   -696.79463      1127.3785      1127.3785      1127.3785      1.4328779e+09  0.44019723    -37035767      -37035767       1487.606      -37034279      -696.5923      -703.29127     -690.50032      16.4565        19.237695      6.6194155      8310.9036    
      7000   555.29115      0.035          0.070814969    0.071404075    0.070124722   -698.55668      1127.9233      1127.9233      1127.9233      1.4349566e+09  0.43955958    -36979523      -36979523       1488.0405     -36978035      -698.88941     -704.70343     -692.0772       16.76545       18.449276      5.3167043      4869.6431    
      7100   555.39088      0.0355         0.0710908      0.071523645    0.070255837   -700.28878      1128.4682      1128.4682      1128.4682      1.4370372e+09  0.43892315    -36937761      -36937761       1488.3077     -36936273      -701.61164     -705.8835      -693.3712       16.578553      17.228642      4.036491       8236.2357    
      7200   555.4541       0.036          0.071319894    0.071605012    0.07037554    -701.70391      1129.0131      1129.0131      1129.0131      1.4391199e+09  0.43828795    -36895939      -36895939       1488.4771     -36894450      -703.87263     -706.68653     -694.55258      16.048368      16.092847      2.8319797      8320.2823    
      7300   555.36743      0.0365         0.071522815    0.071644386    0.070428788   -702.67617      1129.558       1129.558       1129.558       1.4412046e+09  0.43765397    -36839505      -36839505       1488.2449     -36838017      -705.87531     -707.07511     -695.07809      15.6108        15.026078      2.011867       8329.4941    
      7400   555.21395      0.037          0.071737586    0.071666777    0.070530149   -703.78982      1130.1029      1130.1029      1130.1029      1.4432912e+09  0.43702122    -36797564      -36797564       1487.8336     -36796077      -707.99492     -707.29609     -696.07845      15.17755       13.947545      1.2239464      8327.0221    
      7500   555.15055      0.0375         0.071956401    0.071734964    0.070625229   -705.04678      1130.6478      1130.6478      1130.6478      1.4453799e+09  0.43638969    -36770124      -36770124       1487.6637     -36768637      -710.15446     -707.96905     -697.01682      15.295392      12.991312      0.10424751     8340.6189    
      7600   555.12797      0.038          0.072109495    0.07171387     0.070668598   -705.62369      1131.1927      1131.1927      1131.1927      1.4474707e+09  0.43575937    -36706255      -36706255       1487.6032     -36704768      -711.66538     -707.76086     -697.44483      15.260848      12.090359     -1.2960734      8338.9628    
      7700   554.97621      0.0385         0.07228444     0.071785116    0.07071108    -706.57336      1131.7376      1131.7376      1131.7376      1.4495634e+09  0.43513027    -36686004      -36686004       1487.1965     -36684516      -713.39196     -708.46401     -697.8641       15.253648      11.181162     -2.5685368      8731.4549    
      7800   554.63371      0.039          0.072375724    0.071747538    0.070696343   -706.70155      1132.2825      1132.2825      1132.2825      1.4516581e+09  0.43450237    -36622085      -36622085       1486.2787     -36620599      -714.29286     -708.09314     -697.71866      14.900678      10.274904     -3.5513411      8357.5745    
      7900   554.34792      0.0395         0.072483066    0.07171121     0.070675616   -706.86699      1132.8274      1132.8274      1132.8274      1.4537549e+09  0.43387569    -36579975      -36579975       1485.5129     -36578489      -715.35224     -707.73462     -697.5141       14.944201      9.2825511     -4.5404663      8250.2832    
      8000   553.72159      0.04           0.072544628    0.071600735    0.070650765   -706.62432      1133.3723      1133.3723      1133.3723      1.4558537e+09  0.43325021    -36523294      -36523294       1483.8345     -36521810      -715.95981     -706.64431     -697.26883      14.815147      8.31957       -5.340616       5105.2183    
      8100   553.21456      0.0405         0.072593392    0.071550627    0.070655751   -706.6363       1133.9171      1133.9171      1133.9171      1.4579545e+09  0.43262593    -36495690      -36495690       1482.4757     -36494208      -716.44107     -706.14979     -697.31805      14.718368      7.394439      -6.4726606      8295.3531    
      8200   552.57196      0.041          0.072561923    0.071477444    0.070623834   -706.18702      1134.462       1134.462       1134.462       1.4600573e+09  0.43200284    -36446245      -36446245       1480.7537     -36444765      -716.1305      -705.42752     -697.00305      14.502155      6.6108783     -7.5328239      8323.4562    
      8300   551.71142      0.0415         0.072579663    0.071315723    0.070549884   -705.47009      1135.0069      1135.0069      1135.0069      1.4621621e+09  0.43138096    -36382248      -36382248       1478.4477     -36380770      -716.30558     -703.83146     -696.27322      13.695702      5.7758767     -8.6477238      8352.4242    
      8400   550.6223       0.042          0.072599994    0.071164241    0.070463579   -704.75471      1135.5518      1135.5518      1135.5518      1.464269e+09   0.43076027    -36318247      -36318247       1475.5291     -36316772      -716.50623     -702.33645     -695.42145      13.675852      5.0588203     -9.858789       8369.7767    
      8500   549.6755       0.0425         0.072586793    0.071085547    0.070368352   -704.13913      1136.0967      1136.0967      1136.0967      1.4663779e+09  0.43014077    -36268799      -36268799       1472.9919     -36267326      -716.37594     -701.5598      -694.48164      13.569217      4.3444536     -10.865778      8386.0698    
      8600   548.96958      0.043          0.072585638    0.070958556    0.070280886   -703.42982      1136.6416      1136.6416      1136.6416      1.4684888e+09  0.42952245    -36233905      -36233905       1471.1003     -36232434      -716.36455     -700.3065      -693.61842      13.44672       3.6227584     -11.976856      8392.7399    
      8700   548.14438      0.0435         0.072521727    0.070782979    0.070134762   -702.16126      1137.1865      1137.1865      1137.1865      1.4706017e+09  0.42890532    -36184478      -36184478       1468.8889     -36183010      -715.7338      -698.57369     -692.17629      13.334098      3.0349799     -12.788224      8293.4632    
      8800   547.09107      0.044          0.072442737    0.070588137    0.070008013   -700.84345      1137.7314      1137.7314      1137.7314      1.4727167e+09  0.42828937    -36149620      -36149620       1466.0663     -36148154      -714.95423     -696.65074     -690.92537      12.894647      2.1375567     -13.643729      8407.1036    
      8900   546.02998      0.0445         0.07238284     0.070402467    0.069879065   -699.61139      1138.2763      1138.2763      1138.2763      1.4748337e+09  0.4276746     -36129322      -36129322       1463.2229     -36127858      -714.36309     -694.81833     -689.65275      12.553122      1.1604576     -14.293412      8786.4792    
      9000   544.89323      0.045          0.072318912    0.07020429     0.069694557   -698.14214      1138.8212      1138.8212      1138.8212      1.4769527e+09  0.42706101    -36101762      -36101762       1460.1767     -36100302      -713.73217     -692.86247     -687.83179      12.347851      0.38260741    -14.909067      5097.2632    
      9100   543.75385      0.0455         0.072166519    0.069981032    0.069471641   -696.17301      1139.366       1139.366       1139.366       1.4790737e+09  0.42644859    -36045138      -36045138       1457.1234     -36043681      -712.22817     -690.65909     -685.63179      12.469663     -0.050800537   -15.934239      8322.271     
      9200   542.47288      0.046          0.072091797    0.069747404    0.069235361   -694.38132      1139.9109      1139.9109      1139.9109      1.4811968e+09  0.42583734    -36003103      -36003103       1453.6907     -36001650      -711.49072     -688.35336     -683.29988      12.417434     -0.57334887    -16.855374      8412.284     
      9300   541.07533      0.0465         0.071954016    0.069519632    0.068992058   -692.37834      1140.4558      1140.4558      1140.4558      1.4833219e+09  0.42522726    -35946562      -35946562       1449.9457     -35945113      -710.13092     -686.10542     -680.89868      12.429973     -1.0689172     -17.563118      8417.2448    
      9400   539.64485      0.047          0.071753304    0.069292382    0.068771887   -690.24615      1141.0007      1141.0007      1141.0007      1.485449e+09   0.42461834    -35897340      -35897340       1446.1123     -35895894      -708.15006     -683.86264     -678.72575      12.332266     -1.7920359     -18.339801      8318.2959    
      9500   538.01545      0.0475         0.071543242    0.068943322    0.068519821   -687.57755      1141.5456      1141.5456      1141.5456      1.4875782e+09  0.42401059    -35833619      -35833619       1441.746      -35832178      -706.0769      -680.41769     -676.23806      11.826163     -2.7421848     -18.613287      8431.6598    
      9600   536.3217       0.048          0.071333883    0.068650064    0.068217868   -684.93072      1142.0905      1142.0905      1142.0905      1.4897094e+09  0.42340399    -35799047      -35799047       1437.2071     -35797610      -704.01069     -677.52345     -673.25802      11.500296     -3.6214322     -19.386618      8444.1986    
      9700   534.57726      0.0485         0.07108894     0.068337094    0.067888766   -682.01266      1142.6354      1142.6354      1142.6354      1.4918426e+09  0.42279855    -35757253      -35757253       1432.5325     -35755820      -701.59329     -674.43468     -670.01002      11.078604     -4.3460988     -20.104289      8442.2183    
      9800   532.90463      0.049          0.070897573    0.068030343    0.067614773   -679.47262      1143.1803      1143.1803      1143.1803      1.4939779e+09  0.42219427    -35737339      -35737339       1428.0502     -35735911      -699.70464     -671.40729     -667.30593      10.943851     -5.0157153     -20.785852      8447.1859    
      9900   531.27299      0.0495         0.070649692    0.067713377    0.067343199   -676.72101      1143.7252      1143.7252      1143.7252      1.4961152e+09  0.42159113    -35695655      -35695655       1423.6778     -35694231      -697.25825     -668.27907     -664.6257       10.711402     -5.583609      -21.390542      8448.0808    
     10000   529.53741      0.05           0.070406725    0.06740156     0.067084086   -674.04349      1144.2701      1144.2701      1144.2701      1.4982545e+09  0.42098914    -35668588      -35668588       1419.0269     -35667169      -694.86035     -665.20168     -662.06845      10.628094     -6.3059317     -22.014795      4999.7178    
     10100   527.67649      0.0505         0.070139586    0.067059729    0.06676141    -670.97862      1144.815       1144.815       1144.815       1.5003959e+09  0.4203883     -35634317      -35634317       1414.0401     -35632903      -692.2239      -661.82806     -658.88389      10.339806     -6.8938345     -22.412904      8377.8266    
     10200   525.61098      0.051          0.069821849    0.06671678     0.066390638   -667.58538      1145.3598      1145.3598      1145.3598      1.5025394e+09  0.41978861    -35600127      -35600127       1408.5051     -35598718      -689.08807     -658.44342     -655.22466      9.9452756     -7.5393149     -22.962221      8309.4354    
     10300   523.6676       0.0515         0.069514088    0.066360453    0.066025873   -664.20072      1145.9047      1145.9047      1145.9047      1.5046848e+09  0.41919005    -35580569      -35580569       1403.2973     -35579166      -686.05071     -654.92675     -651.6247       9.661552      -8.1800586     -23.511991      8836.5186    
     10400   521.67556      0.052          0.069198979    0.065980782    0.065656964   -660.70146      1146.4496      1146.4496      1146.4496      1.5068323e+09  0.41859263    -35553813      -35553813       1397.9592     -35552415      -682.94082     -651.17969     -647.98386      9.2539393     -8.6786383     -24.086728      8437.7918    
     10500   519.31069      0.0525         0.068861639    0.065588449    0.065307975   -657.15293      1146.9945      1146.9945      1146.9945      1.5089819e+09  0.41799634    -35519863      -35519863       1391.6219     -35518471      -679.61153     -647.30766     -644.5396       8.7446399     -9.3920614     -24.463304      8437.171     
     10600   516.98203      0.053          0.068487476    0.065166213    0.064969819   -653.42054      1147.5394      1147.5394      1147.5394      1.5111335e+09  0.41740119    -35478721      -35478721       1385.3817     -35477335      -675.91883     -643.14052     -641.20226      8.1303507     -9.9326086     -24.733731      8442.2845    
     10700   514.72366      0.0535         0.068102297    0.064717112    0.064623783   -649.5376       1148.0843      1148.0843      1148.0843      1.5132871e+09  0.41680716    -35437675      -35437675       1379.3298     -35436295      -672.11741     -638.70824     -637.78715      7.6788575     -10.570963     -24.900127      8426.0891    
     10800   512.33472      0.054          0.067699645    0.064273496    0.064249531   -645.5224       1148.6292      1148.6292      1148.6292      1.5154428e+09  0.41621427    -35404002      -35404002       1372.9281     -35402629      -668.14354     -634.33009     -634.09357      7.7593728     -11.130222     -25.071888      8440.3528    
     10900   510.00413      0.0545         0.067266607    0.0638394      0.063823265   -641.26745      1149.1741      1149.1741      1149.1741      1.5176005e+09  0.41562249    -35363160      -35363160       1366.6827     -35361794      -663.8698      -630.04589     -629.88665      7.5727769     -11.551234     -25.230706      8448.8624    
     11000   507.73941      0.055          0.066846666    0.063427869    0.063411868   -637.17873      1149.719       1149.719       1149.719       1.5197603e+09  0.41503184    -35336973      -35336973       1360.6138     -35335612      -659.7253      -625.9844      -625.82648      7.3877577     -12.027442     -25.521382      5123.665     
     11100   505.3054       0.0555         0.066370908    0.062953364    0.062974816   -632.61481      1150.2639      1150.2639      1150.2639      1.5219221e+09  0.41444231    -35274510      -35274510       1354.0912     -35273156      -655.02993     -621.30139     -621.51311      6.8872885     -12.610302     -25.693042      8392.4378    
     11200   502.61929      0.056          0.06593835     0.062486494    0.062552345   -628.2661       1150.8087      1150.8087      1150.8087      1.524086e+09   0.41385389    -35233987      -35233987       1346.8932     -35232640      -650.76091     -616.69375     -617.34365      6.1303922     -13.12533      -25.73128       8449.0187    
     11300   499.79421      0.0565         0.065474911    0.062011226    0.062125603   -623.77413      1151.3536      1151.3536      1151.3536      1.5262519e+09  0.41326658    -35193576      -35193576       1339.3227     -35192236      -646.18713     -612.00321     -613.13203      5.5440073     -13.412878     -25.836158      8476.5115    
     11400   497.06359      0.057          0.065014323    0.061534249    0.061698401   -619.28439      1151.8985      1151.8985      1151.8985      1.5284199e+09  0.41268039    -35167833      -35167833       1332.0053     -35166501      -641.64149     -607.29582     -608.91587      5.1437069     -13.84097      -25.900868      8479.7403    
     11500   494.52596      0.0575         0.064523853    0.061027016    0.061271593   -614.59811      1152.4434      1152.4434      1152.4434      1.5305899e+09  0.41209531    -35134930      -35134930       1325.2051     -35133605      -636.80092     -602.28982     -604.7036       4.9510572     -14.328785     -25.821073      8456.4479    
     11600   492.00038      0.058          0.064071563    0.060559609    0.060844186   -610.16649      1152.9883      1152.9883      1152.9883      1.5327619e+09  0.41151133    -35116690      -35116690       1318.4371     -35115371      -632.33716     -597.67687     -600.48543      4.6601669     -14.792971     -25.696933      8866.5468    
     11700   489.35939      0.0585         0.063578243    0.060101473    0.060390925   -605.54533      1153.5332      1153.5332      1153.5332      1.5349361e+09  0.41092845    -35076744      -35076744       1311.36       -35075432      -627.46847     -593.15542     -596.01209      4.1237837     -15.022083     -25.600963      8482.2254    
     11800   486.68117      0.059          0.063107215    0.059654697    0.059907857   -600.93682      1154.0781      1154.0781      1154.0781      1.5371123e+09  0.41034667    -35044189      -35044189       1304.183      -35042884      -622.81978     -588.74608     -591.24458      3.5354347     -14.991081     -25.754578      8387.5385    
     11900   483.88552      0.0595         0.062598008    0.059171828    0.05943749    -596.12575      1154.623       1154.623       1154.623       1.5392905e+09  0.40976599    -35011760      -35011760       1296.6914     -35010464      -617.79431     -583.98054     -586.60241      2.8474237     -15.168325     -25.911315      8476.9728    
     12000   480.62959      0.06           0.061971843    0.058643967    0.058916659   -590.61591      1155.1679      1155.1679      1155.1679      1.5414708e+09  0.40918641    -34935821      -34935821       1287.9663     -34934533      -611.61454     -578.77096     -581.46222      2.3899765     -15.096823     -25.857518      4508.7037    
     12100   477.68059      0.0605         0.061458475    0.058137913    0.058445635   -585.71272      1155.7128      1155.7128      1155.7128      1.5436532e+09  0.40860792    -34903661      -34903661       1280.0637     -34902381      -606.54799     -573.77659     -576.81357      1.8935708     -15.380536     -25.624654      8437.4671    
     12200   474.95522      0.061          0.06093524     0.057637738    0.057960949   -580.75147      1156.2577      1156.2577      1156.2577      1.5458376e+09  0.40803051    -34857075      -34857075       1272.7604     -34855802      -601.38406     -568.84025     -572.03009      1.564934      -15.354417     -25.400016      8510.894     
     12300   472.25856      0.0615         0.060447083    0.057112752    0.057485602   -575.85472      1156.8025      1156.8025      1156.8025      1.548024e+09   0.4074542     -34810612      -34810612       1265.5341     -34809346      -596.56633     -563.65904     -567.33878      1.5027724     -15.583444     -25.159257      8495.4087    
     12400   469.57686      0.062          0.059973748    0.056646353    0.05702685    -571.25405      1157.3474      1157.3474      1157.3474      1.5502126e+09  0.40687897    -34786099      -34786099       1258.3478     -34784840      -591.89487     -559.05603     -562.81125      1.3245707     -15.65702      -25.089758      8506.3952    
     12500   466.93897      0.0625         0.059494031    0.056202325    0.056560758   -566.68185      1157.8923      1157.8923      1157.8923      1.5524032e+09  0.40630482    -34768986      -34768986       1251.2789     -34767735      -587.16043     -554.67382     -558.21128      0.98226279    -15.796974     -25.008816      8515.396     
     12600   464.27265      0.063          0.058973965    0.055761079    0.056063268   -561.88276      1158.4372      1158.4372      1158.4372      1.5545958e+09  0.40573176    -34744723      -34744723       1244.1338     -34743479      -582.02778     -550.31907     -553.30143      0.55544087    -15.955086     -24.824592      8377.3591    
     12700   461.51679      0.0635         0.058440507    0.055302203    0.055589867   -557.06087      1158.9821      1158.9821      1158.9821      1.5567906e+09  0.40515977    -34727861      -34727861       1236.7488     -34726624      -576.76296     -545.79031     -548.62933      0.1058244     -16.011956     -24.461296      8492.4377    
     12800   458.67916      0.064          0.057883818    0.054796635    0.055114571   -552.00271      1159.527       1159.527       1159.527       1.5589874e+09  0.40458885    -34696573      -34696573       1229.1447     -34695344      -571.26887     -540.80074     -543.93852     -0.28496516    -16.031092     -23.958835      8519.7337    
     12900   455.74094      0.0645         0.057336077    0.054300129    0.054635275   -546.99064      1160.0719      1160.0719      1160.0719      1.5611862e+09  0.40401901    -34665412      -34665412       1221.271      -34664191      -565.86308     -535.90061     -539.20824     -0.33862027    -16.261137     -23.449499      8534.1949    
     13000   452.9723       0.065          0.056832484    0.053835219    0.05419545    -542.35761      1160.6168      1160.6168      1160.6168      1.5633871e+09  0.40345023    -34648931      -34648931       1213.8517     -34647717      -560.89301     -531.3123      -534.86751     -0.40453199    -16.37242      -23.043238      5305.2877    
     13100   450.42652      0.0655         0.056340523    0.05339586     0.053754192   -537.84218      1161.1617      1161.1617      1161.1617      1.5655901e+09  0.40288253    -34625302      -34625302       1207.0297     -34624095      -556.03773     -526.97617     -530.51263     -0.3957335     -16.47534      -22.734299      8459.2278    
     13200   447.88456      0.066          0.055849855    0.052949399    0.053253705   -533.11278      1161.7066      1161.7066      1161.7066      1.5677952e+09  0.40231589    -34587251      -34587251       1200.2178     -34586050      -551.19521     -522.56994     -525.5732      -0.60978458    -16.300512     -22.322268      8535.2984    
     13300   445.22849      0.0665         0.055314387    0.052500608    0.052766801   -528.27304      1162.2514      1162.2514      1162.2514      1.5700023e+09  0.40175031    -34556600      -34556600       1193.1003     -34555406      -545.91056     -518.14071     -520.76784     -1.0782535     -16.154162     -22.152         8526.9505    
     13400   442.35682      0.067          0.054718264    0.052010257    0.052283002   -523.10724      1162.7963      1162.7963      1162.7963      1.5722115e+09  0.40118579    -34511529      -34511529       1185.4049     -34510343      -540.02728     -513.30132     -515.99311     -1.9323498     -16.105845     -21.713667      8440.9213    
     13500   439.57939      0.0675         0.054138286    0.05154975     0.051817377   -518.15252      1163.3412      1163.3412      1163.3412      1.5744228e+09  0.40062232    -34481136      -34481136       1177.9621     -34479958      -534.30334     -508.75647     -511.39775     -2.4120008     -16.019437     -21.155853      8556.6571    
     13600   436.96369      0.068          0.053609121    0.051109593    0.051373463   -513.50334      1163.8861      1163.8861      1163.8861      1.5766361e+09  0.40005991    -34458142      -34458142       1170.9527     -34456972      -529.08088     -504.41246     -507.01666     -2.4811441     -15.738464     -20.498146      8541.9542    
     13700   434.35044      0.0685         0.053077194    0.050676946    0.050950361   -508.93824      1164.431       1164.431       1164.431       1.5788515e+09  0.39949856    -34420725      -34420725       1163.9498     -34419561      -523.83117     -500.14257     -502.84096     -2.3265975     -15.436469     -19.749282      8562.4847    
     13800   431.88165      0.069          0.052605852    0.050236392    0.050545861   -504.60763      1164.9759      1164.9759      1164.9759      1.581069e+09   0.39893825    -34390711      -34390711       1157.3341     -34389554      -519.17939     -495.79464     -498.84886     -2.5270745     -15.403736     -19.083099      8568.5933    
     13900   429.53499      0.0695         0.05213045     0.049835046    0.050117337   -500.31362      1165.5208      1165.5208      1165.5208      1.5832886e+09  0.39837899    -34368085      -34368085       1151.0456     -34366934      -514.48754     -491.83366     -494.61966     -2.640475      -15.289456     -18.700092      8533.4549    
     14000   427.17437      0.07           0.051623294    0.049426956    0.049696393   -495.9179       1166.0657      1166.0657      1166.0657      1.5855102e+09  0.39782078    -34345577      -34345577       1144.7198     -34344432      -509.4823      -487.80613     -490.46527     -2.9157688     -14.910629     -18.306698      3884.6773    
     14100   424.84061      0.0705         0.051089105    0.049003143    0.049264162   -491.34439      1166.6106      1166.6106      1166.6106      1.5877339e+09  0.39726361    -34315911      -34315911       1138.4659     -34314772      -504.21027     -483.62342     -486.19947     -3.2491708     -14.479287     -17.914649      6879.3297    
     14200   422.47011      0.071          0.050585205    0.048602761    0.048847217   -486.99789      1167.1555      1167.1555      1167.1555      1.5899597e+09  0.39670747    -34300908      -34300908       1132.1135     -34299776      -499.23715     -479.67196     -482.08455     -3.3443467     -14.146869     -17.526701      8548.6737    
     14300   420.19639      0.0715         0.05011527     0.048217816    0.048469365   -482.94251      1167.7004      1167.7004      1167.7004      1.5921876e+09  0.39615238    -34286012      -34286012       1126.0205     -34284886      -494.59926     -475.87284     -478.35544     -3.5092197     -13.938476     -17.024784      8978.2952    
     14400   417.88612      0.072          0.049671629    0.04784067     0.048107356   -479.05142      1168.2452      1168.2452      1168.2452      1.5944175e+09  0.39559832    -34256673      -34256673       1119.8296     -34255553      -490.22086     -472.1507      -474.78269     -3.6185314     -13.83452      -16.46249       8572.6687    
     14500   415.66547      0.0725         0.049252249    0.047493524    0.047733376   -475.29945      1168.7901      1168.7901      1168.7901      1.5966496e+09  0.39504529    -34227440      -34227440       1113.8788     -34226326      -486.0819      -468.72464     -471.09179     -3.6762692     -13.541145     -15.850872      8553.39      
     14600   413.43429      0.073          0.048822345    0.047142697    0.047341255   -471.44106      1169.335       1169.335       1169.335       1.5988837e+09  0.3944933     -34198315      -34198315       1107.8998     -34197207      -481.83908     -465.26224     -467.22186     -3.5271769     -13.127381     -15.463205      8571.0044    
     14700   411.25361      0.0735         0.048362568    0.0467303      0.046929843   -467.21839      1169.8799      1169.8799      1169.8799      1.6011199e+09  0.39394233    -34154753      -34154753       1102.0561     -34153651      -477.30143     -461.19221     -463.16154     -3.4763975     -12.847286     -14.988225      8576.8729    
     14800   409.21584      0.074          0.047865422    0.046319349    0.04654583    -462.96768      1170.4248      1170.4248      1170.4248      1.6033582e+09  0.39339239    -34111299      -34111299       1096.5954     -34110202      -472.39498     -457.13644     -459.37163     -3.8224889     -12.507012     -14.428884      8586.9481    
     14900   407.16369      0.0745         0.047426668    0.045964122    0.04618879    -459.18112      1170.9697      1170.9697      1170.9697      1.6055985e+09  0.39284347    -34089771      -34089771       1091.0962     -34088680      -468.06482     -453.63061     -455.84792     -3.8657449     -12.117001     -13.951082      8589.6374    
     15000   405.10296      0.075          0.04699841     0.045635957    0.045839741   -455.5444       1171.5146      1171.5146      1171.5146      1.607841e+09   0.39229557    -34068337      -34068337       1085.5739     -34067251      -463.83824     -450.39188     -452.40307     -4.0767042     -11.596359     -13.516777      5274.5278    
     15100   403.08324      0.0755         0.046587268    0.045309665    0.045517871   -452.05956      1172.0595      1172.0595      1172.0595      1.6100855e+09  0.39174869    -34054274      -34054274       1080.1616     -34053194      -459.78059     -447.17163     -449.22646     -4.0665524     -11.15728      -12.986365      8388.2674    
     15200   401.12849      0.076          0.046192882    0.044987832    0.045201616   -448.66298      1172.6044      1172.6044      1172.6044      1.6123322e+09  0.39120282    -34040302      -34040302       1074.9234     -34039228      -455.8883      -443.99538     -446.10526     -3.8517179     -10.715105     -12.434139      8531.7498    
     15300   399.28087      0.0765         0.045823065    0.044680155    0.044891119   -445.41275      1173.1493      1173.1493      1173.1493      1.6145809e+09  0.39065797    -34026418      -34026418       1069.9722     -34025348      -452.23849     -440.95885     -443.0409      -3.5858984     -10.322339     -11.913297      8583.1856    
     15400   397.56779      0.077          0.045452374    0.044384309    0.044583384   -442.20764      1173.6941      1173.6941      1173.6941      1.6168317e+09  0.39011413    -34005340      -34005340       1065.3816     -34004275      -448.58005     -438.03908     -440.00379     -3.5614917     -10.058045     -11.435726      8564.965     
     15500   395.97863      0.0775         0.04508203     0.044105672    0.044269186   -439.03903      1174.239       1174.239       1174.239       1.6190846e+09  0.3895713     -33977069      -33977069       1061.123      -33976008      -444.92505     -435.28914     -436.90289     -3.7062779     -9.6433846     -11.09105       8548.2484    
     15600   394.42724      0.078          0.044743804    0.043819767    0.04397963    -436.03323      1174.7839      1174.7839      1174.7839      1.6213396e+09  0.38902948    -33956160      -33956160       1056.9657     -33955103      -441.58701     -432.46748     -434.0452      -3.642324      -9.2034115     -10.730747      8592.5749    
     15700   392.84862      0.0785         0.044409223    0.043547905    0.04369074    -433.08781      1175.3288      1175.3288      1175.3288      1.6235967e+09  0.38848866    -33942607      -33942607       1052.7354     -33941554      -438.28496     -429.78441     -431.19408     -3.4762779     -8.6786315     -10.230691      8967.2571    
     15800   391.14392      0.079          0.044051853    0.043242268    0.043394815   -429.93317      1175.8737      1175.8737      1175.8737      1.6258559e+09  0.38794884    -33914583      -33914583       1048.1672     -33913535      -434.75798     -426.76801     -428.27353     -3.3896609     -8.0701176     -9.6794189      8481.839     
     15900   389.47747      0.0795         0.043717384    0.042946449    0.043091315   -426.86125      1176.4186      1176.4186      1176.4186      1.6281171e+09  0.38741003    -33886634      -33886634       1043.7016     -33885590      -431.45703     -423.8485      -425.27821     -3.1360271     -7.4390663     -9.0561905      8599.4564    
     16000   388.0178       0.08           0.043419372    0.042659335    0.042826795   -424.06613      1176.9635      1176.9635      1176.9635      1.6303805e+09  0.3868722     -33866036      -33866036       1039.79       -33864996      -428.51588     -421.0149      -422.6676      -3.0672685     -7.0670141     -8.7220093      5447.6824    
     16100   386.64466      0.0805         0.043085108    0.042408815    0.04256641    -421.28574      1177.5084      1177.5084      1177.5084      1.632646e+09   0.38633538    -33830961      -33830961       1036.1103     -33829925      -425.21696     -418.54246     -420.09781     -2.9950121     -6.6158712     -8.2611309      8540.8912    
     16200   385.36433      0.081          0.042796736    0.04218192     0.042337551   -418.83776      1178.0533      1178.0533      1178.0533      1.6349135e+09  0.38579955    -33810508      -33810508       1032.6794     -33809475      -422.37094     -416.30318     -417.83914     -3.0328216     -6.3665822     -7.9099694      8609.0504    
     16300   384.12072      0.0815         0.042526066    0.041963789    0.042092839   -416.42469      1178.5982      1178.5982      1178.5982      1.6371832e+09  0.3852647     -33790120      -33790120       1029.3468     -33789091      -419.69964     -414.1504      -415.42402     -2.8740251     -5.9141766     -7.45634        8593.5644    
     16400   382.81544      0.082          0.042232333    0.041723311    0.041853796   -413.88088      1179.1431      1179.1431      1179.1431      1.639455e+09   0.38473085    -33762519      -33762519       1025.849      -33761493      -416.80072     -411.77706     -413.06485     -2.7321738     -5.4665258     -6.993409       8624.2836    
     16500   381.47664      0.0825         0.04198086     0.041472976    0.04160579    -411.41418      1179.6879      1179.6879      1179.6879      1.6417288e+09  0.38419798    -33742249      -33742249       1022.2613     -33741227      -414.31888     -409.30645     -410.61722     -2.6802888     -5.0554008     -6.4768597      8619.0387    
     16600   380.15415      0.083          0.041690873    0.041192811    0.041360914   -408.73295      1180.2328      1180.2328      1180.2328      1.6440048e+09  0.3836661     -33700213      -33700213       1018.7174     -33699194      -411.45693     -406.54144     -408.20049     -3.1122773     -4.911638      -5.9421006      8529.7056    
     16700   378.97361      0.0835         0.041445849    0.040958803    0.041108556   -406.32686      1180.7777      1180.7777      1180.7777      1.6462829e+09  0.38313519    -33672799      -33672799       1015.5539     -33671784      -409.03873     -404.23196     -405.7099      -2.9959454     -4.5710278     -5.839678       8639.2626    
     16800   377.99462      0.084          0.041192877    0.040736835    0.040848694   -403.90955      1181.3226      1181.3226      1181.3226      1.648563e+09   0.38260527    -33638181      -33638181       1012.9304     -33637168      -406.54209     -402.0413      -403.14527     -2.9254634     -4.3659197     -5.6804345      8648.0249    
     16900   377.07045      0.0845         0.040971638    0.040539714    0.040649704   -401.87863      1181.8675      1181.8675      1181.8675      1.6508453e+09  0.38207632    -33625450      -33625450       1010.4539     -33624439      -404.35863     -400.09587     -401.18138     -2.6868648     -3.9592729     -5.4795566      8632.3381    
     17000   376.20551      0.085          0.040757531    0.040351561    0.040466469   -399.9525       1182.4124      1182.4124      1182.4124      1.6531297e+09  0.38154835    -33612759      -33612759       1008.1361     -33611751      -402.24556     -398.23894     -399.373       -2.5394629     -3.5640224     -5.1989016      5546.8562    
     17100   375.26098      0.0855         0.040545455    0.040151796    0.040294661   -398.03244      1182.9573      1182.9573      1182.9573      1.6554162e+09  0.38102135    -33592831      -33592831       1005.6049     -33591826      -400.15253     -396.26741     -397.67738     -2.558446      -3.2976179     -4.8201327      8576.9016    
     17200   374.24171      0.086          0.040324673    0.039975127    0.040109478   -396.11573      1183.5022      1183.5022      1183.5022      1.6577048e+09  0.38049532    -33565679      -33565679       1002.8736     -33564677      -397.97358     -394.52383     -395.84977     -2.4518193     -3.0767312     -4.6243679      8640.7354    
     17300   373.38262      0.0865         0.040129556    0.039814709    0.039927386   -394.34707      1184.0471      1184.0471      1184.0471      1.6599955e+09  0.37997026    -33553131      -33553131       1000.5714     -33552131      -396.04793     -392.94062     -394.05266     -2.5462227     -2.8588212     -4.4510845      8638.2148    
     17400   372.50953      0.087          0.039897871    0.039635673    0.039720284   -392.31459      1184.592       1184.592       1184.592       1.6622883e+09  0.37944616    -33526089      -33526089       998.23175     -33525091      -393.76137     -391.17368     -392.00872     -2.8065488     -2.6736659     -4.1852439      8545.3835    
     17500   371.68185      0.0875         0.039709957    0.03945581     0.039508929   -390.4094       1185.1368      1185.1368      1185.1368      1.6645832e+09  0.37892303    -33513644      -33513644       996.01378     -33512648      -391.9068      -389.39857     -389.92281     -2.7616281     -2.380156      -3.8615554      8635.677     
     17600   370.85727      0.088          0.039523154    0.039269601    0.039307428   -388.5194       1185.6817      1185.6817      1185.6817      1.6668802e+09  0.37840085    -33501233      -33501233       993.80412     -33500240      -390.06321     -387.56083     -387.93416     -2.5304939     -2.0263454     -3.4755101      8637.2225    
     17700   370.03259      0.0885         0.039323354    0.03907943     0.039127076   -386.64318      1186.2266      1186.2266      1186.2266      1.6691794e+09  0.37787964    -33481582      -33481582       991.59417     -33480591      -388.09133     -385.68399     -386.15421     -2.3525776     -1.7022096     -3.1077944      8647.5238    
     17800   369.29552      0.089          0.039145609    0.038913563    0.038974642   -385.01131      1186.7715      1186.7715      1186.7715      1.6714806e+09  0.37735939    -33469251      -33469251       989.61902     -33468261      -386.33713     -384.04701     -384.64981     -2.1431188     -1.4028727     -2.9690995      8649.093     
     17900   368.66072      0.0895         0.03896116     0.038757076    0.038829755   -383.41308      1187.3164      1187.3164      1187.3164      1.673784e+09   0.37684008    -33449691      -33449691       987.91791     -33448704      -384.51675     -382.5026      -383.21989     -2.1503443     -1.273206      -2.9463081      8636.807     
     18000   368.12191      0.09           0.038806294    0.038628119    0.038691219   -382.02363      1187.8613      1187.8613      1187.8613      1.6760895e+09  0.37632173    -33437453      -33437453       986.47405     -33436467      -382.98835     -381.2299      -381.85264     -2.0812382     -1.1842326     -2.9666847      5476.8181    
     18100   367.67578      0.0905         0.038649902    0.038504107    0.038548948   -380.63313      1188.4062      1188.4062      1188.4062      1.6783971e+09  0.37580433    -33417971      -33417971       985.27852     -33416986      -381.44487     -380.00599     -380.44853     -2.1708929     -1.1787774     -2.7883287      8333.5201    
     18200   367.27009      0.091          0.038508479    0.0383507      0.03839296    -379.15006      1188.9511      1188.9511      1188.9511      1.6807068e+09  0.37528788    -33398519      -33398519       984.19138     -33397534      -380.04914     -378.49198     -378.90905     -2.22511       -1.0364865     -2.547899       8537.5443    
     18300   366.83509      0.0915         0.038346083    0.038188979    0.038201278   -377.45321      1189.496       1189.496       1189.496       1.6830186e+09  0.37477238    -33379100      -33379100       983.02568     -33378117      -378.44642     -376.89591     -377.0173      -2.2992907     -0.89008623    -2.2466292      8640.3315    
     18400   366.13742      0.092          0.038169541    0.038010121    0.038038684   -375.74914      1190.0409      1190.0409      1190.0409      1.6853326e+09  0.37425782    -33366998      -33366998       981.15611     -33366017      -376.70408     -375.13073     -375.41262     -2.3155278     -0.63217742    -1.9920367      9040.1625    
     18500   365.47378      0.0925         0.037993602    0.037826464    0.037892625   -374.08567      1190.5858      1190.5858      1190.5858      1.6876487e+09  0.3737442     -33347667      -33347667       979.37772     -33346687      -374.9677      -373.31817     -373.97113     -2.2284372     -0.38055398    -1.9198113      8653.3748    
     18600   364.91075      0.093          0.037836142    0.037698729    0.037760795   -372.71376      1191.1306      1191.1306      1191.1306      1.6899669e+09  0.37323152    -33335651      -33335651       977.86895     -33334673      -373.41369     -372.05753     -372.67007     -1.9725689     -0.20519693    -1.9219711      8652.3026    
     18700   364.22669      0.0935         0.037645677    0.037569292    0.037624548   -371.21315      1191.6755      1191.6755      1191.6755      1.6922872e+09  0.37271977    -33301848      -33301848       976.03584     -33300872      -371.53395     -370.78009     -371.32542     -1.8233079     -0.039901949   -1.8256128      8640.542     
     18800   363.70514      0.094          0.037522866    0.037437947    0.037492786   -369.94358      1192.2204      1192.2204      1192.2204      1.6946096e+09  0.37220896    -33282625      -33282625       974.63821     -33281650      -370.32189     -369.48381     -370.02502     -1.9328477     -0.04536944    -1.6466761      8659.2944    
     18900   363.33823      0.0945         0.037389803    0.037308621    0.037359913   -368.64326      1192.7653      1192.7653      1192.7653      1.6969342e+09  0.37169909    -33263425      -33263425       973.65497     -33262451      -369.00866     -368.20746     -368.71367     -2.2232028     -0.054288513   -1.4638733      8666.0257    
     19000   363.02346      0.095          0.037241076    0.037174355    0.037216683   -367.2411       1193.3102      1193.3102      1193.3102      1.6992609e+09  0.37119015    -33236981      -33236981       972.81147     -33236008      -367.54084     -366.88236     -367.3001      -2.436913      -0.12926093    -1.4055115      5374.7299    
     19100   362.72223      0.0955         0.037092637    0.037052531    0.037091857   -365.94136      1193.8551      1193.8551      1193.8551      1.7015897e+09  0.37068213    -33217844      -33217844       972.00427     -33216872      -366.07586     -365.68005     -366.06816     -2.5386591     -0.14374761    -1.2720242      8459.0396    
     19200   362.35903      0.096          0.036939049    0.036940915    0.036972324   -364.67567      1194.4         1194.4         1194.4         1.7039207e+09  0.37017504    -33198741      -33198741       971.03097     -33197770      -364.56007     -364.57849     -364.88847     -2.3405259     -0.024308226   -1.1844679      8663.3349    
     19300   361.92543      0.0965         0.036784103    0.036816068    0.036836733   -363.30917      1194.9449      1194.9449      1194.9449      1.7062537e+09  0.36966888    -33172399      -33172399       969.86903     -33171429      -363.03087     -363.34634     -363.55029     -2.1700361      0.35721486    -1.089348       8634.8091    
     19400   361.52168      0.097          0.036652323    0.036682805    0.036717601   -362.04533      1195.4898      1195.4898      1195.4898      1.7085889e+09  0.36916363    -33160638      -33160638       968.78709     -33159669      -361.7303      -362.03114     -362.37455     -2.1222754      0.53209652    -0.91422587     8667.5159    
     19500   361.1577       0.0975         0.036513416    0.036543113    0.036583247   -360.68682      1196.0347      1196.0347      1196.0347      1.7109263e+09  0.36865931    -33148906      -33148906       967.81172     -33147938      -360.35939     -360.65248     -361.04858     -2.16676        0.61919638    -0.80964547     8674.5677    
     19600   360.78062      0.098          0.036378703    0.03641172     0.036436374   -359.32823      1196.5795      1196.5795      1196.5795      1.7132657e+09  0.36815591    -33137202      -33137202       966.80122     -33136236      -359.02989     -359.35574     -359.59905     -2.195942       0.59548268    -0.81307952     8681.1418    
     19700   360.4055       0.0985         0.03626068     0.036299097    0.036296161   -358.10819      1197.1244      1197.1244      1197.1244      1.7156073e+09  0.36765342    -33125527      -33125527       965.796       -33124562      -357.86508     -358.24423     -358.21526     -2.153769       0.56953713    -0.83948358     9074.383     
     19800   360.06249      0.099          0.036158797    0.036198087    0.036164723   -357.00833      1197.6693      1197.6693      1197.6693      1.717951e+09   0.36715185    -33106606      -33106606       964.87683     -33105641      -356.85959     -357.24734     -356.91806     -2.0440733      0.71585534    -0.6606864      8684.3761    
     19900   359.74676      0.0995         0.036045093    0.036076132    0.036070281   -355.92238      1198.2142      1198.2142      1198.2142      1.7202969e+09  0.36665119    -33080441      -33080441       964.03075     -33079477      -355.7374      -356.04374     -355.98599     -2.0444115      0.8327001     -0.45944825     8589.7931    
     20000   359.57477      0.1            0.0359255      0.03596053     0.03596525    -354.80313      1198.7591      1198.7591      1198.7591      1.7226449e+09  0.36615143    -33061577      -33061577       963.56985     -33060613      -354.55712     -354.90284     -354.94942     -2.0403371      0.92352359    -0.16492244     5132.6181    
     20100   359.40366      0.1005         0.035783683    0.035835493    0.035859974   -353.57891      1199.304       1199.304       1199.304       1.724995e+09   0.36565259    -33050013      -33050013       963.11132     -33049050      -353.15749     -353.66881     -353.91043     -2.0732895      0.88884339    -0.12165425     8643.8387    
     20200   359.16549      0.101          0.035644863    0.035712153    0.03573365    -352.3009       1199.8489      1199.8489      1199.8489      1.7273473e+09  0.36515465    -33038472      -33038472       962.4731      -33037509      -351.78744     -352.45154     -352.66371     -2.1274165      0.7779138     -0.17259413     8693.4395    
     20300   358.77924      0.1015         0.035524107    0.035584728    0.035568226   -350.94024      1200.3938      1200.3938      1200.3938      1.7297017e+09  0.36465762    -33005135      -33005135       961.43803     -33004174      -350.59567     -351.19396     -351.03109     -2.0632979      0.9280261      0.070215536    8694.4788    
     20400   358.42534      0.102          0.035424979    0.035489159    0.035449044   -349.90766      1200.9387      1200.9387      1200.9387      1.7320582e+09  0.36416148    -32986379      -32986379       960.48967     -32985418      -349.61736     -350.25076     -349.85486     -2.0246581      1.1387796      0.16518356     8707.3283    
     20500   358.05534      0.1025         0.035317652    0.035380843    0.03533412    -348.82018      1201.4836      1201.4836      1201.4836      1.7344169e+09  0.36366625    -32960380      -32960380       959.49816     -32959420      -348.55812     -349.18177     -348.72065     -2.1022623      1.2543319      0.19903341     8717.8068    
     20600   357.75606      0.103          0.035202009    0.035272697    0.035251389   -347.81181      1202.0285      1202.0285      1202.0285      1.7367777e+09  0.36317192    -32948956      -32948956       958.69618     -32947997      -347.41681     -348.11445     -347.90416     -2.0912326      1.3754304      0.31625341     8720.0387    
     20700   357.54743      0.1035         0.035036661    0.035148521    0.035137387   -346.48431      1202.5733      1202.5733      1202.5733      1.7391407e+09  0.36267848    -32915729      -32915729       958.13709     -32914771      -345.78496     -346.88893     -346.77905     -2.2766707      1.5182926      0.29533624     8611.6623    
     20800   357.27849      0.104          0.034880431    0.035038363    0.035021509   -345.22676      1203.1182      1203.1182      1203.1182      1.7415058e+09  0.36218593    -32889805      -32889805       957.4164      -32888848      -344.24309     -345.80176     -345.63542     -2.1478082      1.5941029      0.33128239     8707.3336    
     20900   356.95373      0.1045         0.034766188    0.034915885    0.034879994   -343.98245      1203.6631      1203.6631      1203.6631      1.7438731e+09  0.36169427    -32863912      -32863912       956.54614     -32862955      -343.1156      -344.59299     -344.23877     -2.1821942      1.6045688      0.38097184     8734.4819    
     21000   356.67504      0.105          0.034666251    0.034770138    0.03474713    -342.73713      1204.208       1204.208       1204.208       1.7462425e+09  0.36120351    -32838048      -32838048       955.79931     -32837092      -342.12929     -343.15458     -342.92751     -2.3668199      1.5814748      0.45424863     5219.1187    
     21100   356.47539      0.1055         0.034582229    0.034657641    0.034631816   -341.71128      1204.7529      1204.7529      1204.7529      1.748614e+09   0.36071363    -32826768      -32826768       955.26431     -32825812      -341.30007     -342.04433     -341.78945     -2.408374       1.71202        0.45421659     9104.5046    
     21200   356.32825      0.106          0.034487818    0.034571123    0.034540177   -340.8146       1205.2978      1205.2978      1205.2978      1.7509877e+09  0.36022464    -32815510      -32815510       954.87001     -32814556      -340.3683      -341.19046     -340.88504     -2.5011229      1.8082949      0.46969891     8712.3268    
     21300   356.03322      0.1065         0.034383716    0.034495519    0.03443561    -339.87942      1205.8427      1205.8427      1205.8427      1.7533635e+09  0.35973653    -32789723      -32789723       954.07939     -32788769      -339.3409      -340.4443      -339.85305     -2.6027545      1.799092       0.75314945     8739.0175    
     21400   355.8845       0.107          0.034278736    0.034429249    0.03437447    -339.11491      1206.3876      1206.3876      1206.3876      1.7557415e+09  0.3592493     -32778500      -32778500       953.68086     -32777546      -338.30482     -339.79027     -339.24964     -2.6800488      1.7202462      0.86557837     8739.96      
     21500   355.68202      0.1075         0.03417278     0.034321341    0.034299106   -338.16342      1206.9325      1206.9325      1206.9325      1.7581216e+09  0.35876295    -32760018      -32760018       953.13827     -32759065      -337.25912     -338.7253      -338.50585     -2.7759205      1.7517004      0.94492364     8635.7255    
     21600   355.46141      0.108          0.034049191    0.034181806    0.034190968   -336.94207      1207.4774      1207.4774      1207.4774      1.7605039e+09  0.35827748    -32734285      -32734285       952.5471      -32733333      -336.03938     -337.3482      -337.43862     -2.7079194      1.8033144      1.0277829      8748.4364    
     21700   355.151        0.1085         0.033928497    0.034039808    0.034060004   -335.64704      1208.0222      1208.0222      1208.0222      1.7628883e+09  0.35779289    -32715861      -32715861       951.71527     -32714910      -334.84823     -335.94678     -336.14611     -2.5146072      1.9131125      1.0258245      8747.2602    
     21800   354.83259      0.109          0.033792824    0.033907437    0.033921144   -334.30843      1208.5671      1208.5671      1208.5671      1.7652749e+09  0.35730917    -32697473      -32697473       950.86201     -32696522      -333.50924     -334.64038     -334.77567     -2.5799043      1.9002592      1.0104601      8739.3787    
     21900   354.60719      0.1095         0.033672726    0.033772849    0.033800406   -333.07338      1209.112       1209.112       1209.112       1.7676636e+09  0.35682632    -32671840      -32671840       950.25799     -32670889      -332.32397     -333.3121      -333.58407     -2.7210628      1.7911606      1.1360843      8753.5075    
[...]
    244700   312.3382       1.2235         2.2551599e-05  2.4064742e-05  2.2355841e-05 -0.22690084     2423.1281      2423.1281      2423.1281      1.4227517e+10  0.044333028   -239302.63     -239302.63      836.98775     -238465.64     -0.22256697    -0.23750054    -0.220635      -0.058472929    0.0094438192   0.063343808    29090.029    
    244800   312.30565      1.224          2.2606746e-05  2.3923592e-05  2.2446685e-05 -0.22691676     2423.673       2423.673       2423.673       1.4237117e+10  0.044303134   -239338.55     -239338.55      836.90053     -238501.65     -0.22311123    -0.2361075     -0.22153156    -0.058671282    0.011108741    0.063036799    29049.981    
    244900   312.4145       1.2245         2.2670905e-05  2.3863159e-05  2.2697152e-05 -0.22775299     2424.2179      2424.2179      2424.2179      1.4246722e+10  0.044273266   -239374.66     -239374.66      837.19219     -238537.47     -0.22374444    -0.23551106    -0.22400347    -0.058693549    0.013451008    0.063013265    29102.508    
    245000   312.66112      1.225          2.2691476e-05  2.3882076e-05  2.2950176e-05 -0.22871528     2424.7627      2424.7627      2424.7627      1.425633e+10   0.044243426   -239411.12     -239411.12      837.85307     -238573.27     -0.22394745    -0.23569777    -0.22650063    -0.058621978    0.015273073    0.063383175    8641.6666    
    245100   312.89895      1.2255         2.2661317e-05  2.391972e-05   2.3048761e-05 -0.22906423     2425.3076      2425.3076      2425.3076      1.4265944e+10  0.044213612   -239448.12     -239448.12      838.4904      -238609.63     -0.22364981    -0.23606928    -0.22747359    -0.058684017    0.015728946    0.063921671    27481.98     
    245200   313.00425      1.226          2.2653347e-05  2.3960306e-05  2.3055426e-05 -0.22919345     2425.8525      2425.8525      2425.8525      1.4275561e+10  0.044183825   -239485.71     -239485.71      838.77259     -238646.94     -0.22357115    -0.23646983    -0.22753937    -0.058738239    0.015449981    0.064209463    29021.561    
    245300   313.0654       1.2265         2.2736385e-05  2.4040932e-05  2.3185905e-05 -0.2301611      2426.3974      2426.3974      2426.3974      1.4285183e+10  0.044154065   -239523.84     -239523.84      838.93645     -238684.9      -0.22439067    -0.23726555    -0.22882709    -0.058565373    0.015857459    0.064237451    29033.948    
    245400   313.2781       1.227          2.2888707e-05  2.4186577e-05  2.3551852e-05 -0.23234521     2426.9423      2426.9423      2426.9423      1.4294809e+10  0.044124332   -239562.42     -239562.42      839.50643     -238722.92     -0.22589397    -0.23870295    -0.23243871    -0.058210249    0.017500486    0.064371784    28994.954    
    245500   313.66376      1.2275         2.2976978e-05  2.4323668e-05  2.3952966e-05 -0.23440616     2427.4872      2427.4872      2427.4872      1.430444e+10   0.044094625   -239601.51     -239601.51      840.53992     -238760.97     -0.22676514    -0.24005594    -0.2363974     -0.057935531    0.019167975    0.06473389     31741.266    
    245600   313.98625      1.228          2.2915416e-05  2.4351923e-05  2.4133125e-05 -0.23488926     2428.0321      2428.0321      2428.0321      1.4314074e+10  0.044064945   -239641.23     -239641.23      841.4041      -238799.83     -0.22615757    -0.2403348     -0.23817542    -0.057932103    0.019635785    0.065066885    29020.854    
    245700   314.02267      1.2285         2.2796111e-05  2.4285372e-05  2.4103054e-05 -0.23417892     2428.577       2428.577       2428.577       1.4323713e+10  0.044035292   -239681.59     -239681.59      841.50169     -238840.09     -0.22498012    -0.23967799    -0.23787865    -0.058024364    0.019377001    0.064990695    29171.98     
    245800   313.86574      1.229          2.2791375e-05  2.4240083e-05  2.4113677e-05 -0.2340493      2429.1219      2429.1219      2429.1219      1.4333357e+10  0.044005665   -239722.41     -239722.41      841.08115     -238881.33     -0.22493338    -0.23923102    -0.23798349    -0.058042247    0.01990342     0.064763319    28986.322    
    245900   313.81471      1.2295         2.2964781e-05  2.428622e-05   2.4320768e-05 -0.23545281     2429.6668      2429.6668      2429.6668      1.4343005e+10  0.043976065   -239763.62     -239763.62      840.94442     -238922.68     -0.22664476    -0.23968635    -0.24002732    -0.057986796    0.021837614    0.064922622    29099.095    
    246000   314.00411      1.23           2.319024e-05   2.4388682e-05  2.4598704e-05 -0.23744593     2430.2117      2430.2117      2430.2117      1.4352657e+10  0.043946491   -239805.42     -239805.42      841.45196     -238963.97     -0.22886987    -0.24069757    -0.24277033    -0.057865236    0.024025796    0.065587291    8648.4407    
    246100   314.2922       1.2305         2.333546e-05   2.4473367e-05  2.4772319e-05 -0.23877341     2430.7565      2430.7565      2430.7565      1.4362313e+10  0.043916944   -239848.02     -239848.02      842.22397     -239005.8      -0.23030309    -0.24153336    -0.24448378    -0.057714111    0.02527674     0.066390796    27739.744    
    246200   314.47272      1.231          2.3350498e-05  2.4508928e-05  2.4831679e-05 -0.23913514     2431.3014      2431.3014      2431.3014      1.4371974e+10  0.043887423   -239891.16     -239891.16      842.70772     -239048.45     -0.2304515     -0.24188431    -0.24506962    -0.057363054    0.025605493    0.066885579    28887.416    
    246300   314.49688      1.2315         2.3289039e-05  2.4516688e-05  2.4884188e-05 -0.23913123     2431.8463      2431.8463      2431.8463      1.4381639e+10  0.043857929   -239934.33     -239934.33      842.77247     -239091.55     -0.22984495    -0.2419609     -0.24558784    -0.056932009    0.025820639    0.067086751    29056.371    
    246400   314.45605      1.232          2.3228208e-05  2.4540943e-05  2.4977653e-05 -0.23931838     2432.3912      2432.3912      2432.3912      1.4391308e+10  0.043828461   -239977.52     -239977.52      842.66304     -239134.86     -0.22924459    -0.24220027    -0.24651027    -0.056811595    0.026265464    0.067250947    29137.631    
    246500   314.42609      1.2325         2.3208629e-05  2.4578992e-05  2.5066844e-05 -0.23967256     2432.9361      2432.9361      2432.9361      1.4400982e+10  0.04379902    -240021.3      -240021.3       842.58276     -239178.71     -0.22905136    -0.24257579    -0.24739051    -0.057130738    0.026728848    0.06740096     29048.496    
    246600   314.42357      1.233          2.3268499e-05  2.4629953e-05  2.5119943e-05 -0.24021184     2433.481       2433.481       2433.481       1.441066e+10   0.043769605   -240065.91     -240065.91      842.57602     -239223.33     -0.22964223    -0.24307874    -0.24791456    -0.057830377    0.027102794    0.067407438    29132.114    
    246700   314.46261      1.2335         2.3405302e-05  2.4703285e-05  2.5161597e-05 -0.24104017     2434.0259      2434.0259      2434.0259      1.4420343e+10  0.043740216   -240110.83     -240110.83      842.68062     -239268.15     -0.23099238    -0.24380247    -0.24832566    -0.058643672    0.027562768    0.067292541    29098.832    
    246800   314.55115      1.234          2.3568965e-05  2.4779398e-05  2.5212824e-05 -0.24199749     2434.5708      2434.5708      2434.5708      1.4430029e+10  0.043710854   -240155.62     -240155.62      842.91789     -239312.7      -0.2326076     -0.24455365    -0.24883123    -0.059272177    0.028228669    0.067209579    31826.983    
    246900   314.65562      1.2345         2.368337e-05   2.4823213e-05  2.525278e-05  -0.24264944     2435.1157      2435.1157      2435.1157      1.443972e+10   0.043681518   -240200.49     -240200.49      843.19784     -239357.29     -0.23373669    -0.24498606    -0.24922556    -0.05952371     0.028938878    0.067267345    29011.971    
    247000   314.70252      1.235          2.3687037e-05  2.4813732e-05  2.5252145e-05 -0.24262822     2435.6606      2435.6606      2435.6606      1.4449416e+10  0.043652208   -240245.73     -240245.73      843.32353     -239402.4      -0.23377287    -0.24489249    -0.2492193     -0.059305227    0.029448849    0.067440189    8371.7296    
    247100   314.6419       1.2355         2.3593227e-05  2.4764218e-05  2.5208059e-05 -0.24201169     2436.2054      2436.2054      2436.2054      1.4459116e+10  0.043622924   -240291.16     -240291.16      843.16109     -239447.99     -0.23284705    -0.24440383    -0.2487842     -0.058817526    0.029563089    0.067581339    27701.882    
    247200   314.47759      1.236          2.3441351e-05  2.4687122e-05  2.5130271e-05 -0.24100253     2436.7503      2436.7503      2436.7503      1.446882e+10   0.043593666   -240336.44     -240336.44      842.72077     -239493.72     -0.23134814    -0.24364295    -0.24801649    -0.058314633    0.029217633    0.067545916    27238.108    
    247300   314.25812      1.2365         2.3288035e-05  2.4604145e-05  2.5040953e-05 -0.23993135     2437.2952      2437.2952      2437.2952      1.4478528e+10  0.043564435   -240381.52     -240381.52      842.13265     -239539.39     -0.22983504    -0.24282403    -0.24713499    -0.058046818    0.028523326    0.067225022    26103.567    
    247400   314.05648      1.237          2.3176122e-05  2.4535427e-05  2.4956844e-05 -0.23906042     2437.8401      2437.8401      2437.8401      1.4488241e+10  0.04353523    -240426.45     -240426.45      841.59231     -239584.86     -0.22873054    -0.24214584    -0.2463049     -0.05804718     0.027777158    0.066744307    27589.076    
    247500   313.92671      1.2375         2.3116573e-05  2.4486471e-05  2.4885265e-05 -0.238468       2438.385       2438.385       2438.385       1.4497958e+10  0.043506051   -240471.28     -240471.28      841.24455     -239630.04     -0.22814284    -0.24166268    -0.24559847    -0.058200805    0.027231312    0.06632171     29076.403    
    247600   313.88558      1.238          2.3096462e-05  2.4457105e-05  2.4819395e-05 -0.23808853     2438.9299      2438.9299      2438.9299      1.450768e+10   0.043476898   -240516.07     -240516.07      841.13434     -239674.93     -0.22794436    -0.24137286    -0.24494838    -0.058385211    0.026954868    0.066168724    29151.697    
    247700   313.8975       1.2385         2.3082483e-05  2.4440037e-05  2.4720088e-05 -0.2376597      2439.4748      2439.4748      2439.4748      1.4517405e+10  0.043447771   -240560.84     -240560.84      841.16626     -239719.67     -0.2278064     -0.24120441    -0.2439683     -0.058631718    0.026645542    0.06639598     28999.065    
    247800   313.87677      1.239          2.3049293e-05  2.4433576e-05  2.4540167e-05 -0.23693737     2440.0197      2440.0197      2440.0197      1.4527136e+10  0.04341867    -240605.59     -240605.59      841.11073     -239764.48     -0.22747883    -0.24114065    -0.24219262    -0.05895363     0.025863468    0.066684421    29097.74     
    247900   313.78909      1.2395         2.3043269e-05  2.4458678e-05  2.4347575e-05 -0.23636655     2440.5646      2440.5646      2440.5646      1.453687e+10   0.043389595   -240650.3      -240650.3       840.87576     -239809.42     -0.22741938    -0.24138838    -0.24029189    -0.059134254    0.024955754    0.066506854    29018.462    
    248000   313.75972      1.24           2.3128555e-05  2.4547989e-05  2.4290868e-05 -0.23675438     2441.1095      2441.1095      2441.1095      1.4546609e+10  0.043360546   -240694.89     -240694.89      840.79705     -239854.09     -0.22826109    -0.24226982    -0.23973223    -0.059224994    0.024618785    0.065995646    8775.8728    
    248100   313.87998      1.2405         2.3251642e-05  2.4637732e-05  2.4311734e-05 -0.23752318     2441.6544      2441.6544      2441.6544      1.4556352e+10  0.043331523   -240739.37     -240739.37      841.11933     -239898.25     -0.22947586    -0.24315551    -0.23993816    -0.059595042    0.024468504    0.065875648    27629.79     
    248200   313.97343      1.241          2.3310646e-05  2.4610327e-05  2.4192124e-05 -0.23723364     2442.1992      2442.1992      2442.1992      1.45661e+10    0.043302525   -240783.8      -240783.8       841.36974     -239942.43     -0.23005819    -0.24288504    -0.2387577     -0.060138768    0.023570215    0.065918648    31657.862    
    248300   313.84268      1.2415         2.3313184e-05  2.4458876e-05  2.3964757e-05 -0.23599578     2442.7441      2442.7441      2442.7441      1.4575852e+10  0.043273554   -240828.02     -240828.02      841.01937     -239987        -0.23008324    -0.24139034    -0.23651376    -0.059900759    0.022595533    0.065237871    29178.942    
    248400   313.63628      1.242          2.3307558e-05  2.430928e-05   2.3898617e-05 -0.23526755     2443.289       2443.289       2443.289       1.4585608e+10  0.043244609   -240871.81     -240871.81      840.46628     -240031.34     -0.23002772    -0.23991394    -0.23586101    -0.058714416    0.022868431    0.064280507    28990.995    
    248500   313.56742      1.2425         2.320136e-05   2.419607e-05   2.3947103e-05 -0.23470526     2443.8339      2443.8339      2443.8339      1.4595368e+10  0.043215689   -240915.18     -240915.18      840.28175     -240074.9      -0.22897962    -0.23879664    -0.23633953    -0.057612807    0.023408277    0.064191631    29153.958    
    248600   313.47945      1.243          2.2943137e-05  2.4057734e-05  2.3785618e-05 -0.23286944     2444.3788      2444.3788      2444.3788      1.4605133e+10  0.043186795   -240958.29     -240958.29      840.04601     -240118.25     -0.22643116    -0.23743137    -0.2347458     -0.057182182    0.022402502    0.064369516    28928.824    
    248700   313.17149      1.2435         2.268356e-05   2.3931627e-05  2.3432324e-05 -0.23043839     2444.9237      2444.9237      2444.9237      1.4614903e+10  0.043157927   -241001.24     -241001.24      839.22076     -240162.02     -0.22386933    -0.23618679    -0.23125905    -0.056955574    0.020555096    0.063486017    29043.561    
    248800   312.84259      1.244          2.2600515e-05  2.3927828e-05  2.3204126e-05 -0.22940199     2445.4686      2445.4686      2445.4686      1.4624676e+10  0.043129084   -241043.97     -241043.97      838.33939     -240205.63     -0.22304974    -0.2361493     -0.22900692    -0.05692272     0.019788038    0.062225156    29107.463    
    248900   312.77861      1.2445         2.2656934e-05  2.4023121e-05  2.3139405e-05 -0.22968817     2446.0135      2446.0135      2446.0135      1.4634454e+10  0.043100268   -241086.27     -241086.27      838.16794     -240248.1      -0.22360655    -0.23708977    -0.22836818    -0.057668231    0.019974121    0.061963657    28998.451    
    249000   312.8928       1.245          2.2722387e-05  2.409107e-05   2.3013695e-05 -0.22971347     2446.5584      2446.5584      2446.5584      1.4644237e+10  0.043071476   -241127.97     -241127.97      838.47393     -240289.5      -0.22425252    -0.23776037    -0.22712752    -0.058929763    0.01985317     0.062490143    8662.0494    
    249100   312.95293      1.2455         2.2780271e-05  2.4103141e-05  2.2795901e-05 -0.22922712     2447.1033      2447.1033      2447.1033      1.4654024e+10  0.043042711   -241169.4      -241169.4       838.63507     -240330.76     -0.2248238     -0.23787951    -0.22497805    -0.059985701    0.019326505    0.062870596    27648.261    
    249200   312.93103      1.246          2.2850809e-05  2.4103039e-05  2.2636653e-05 -0.22893495     2447.6481      2447.6481      2447.6481      1.4663815e+10  0.043013971   -241211.11     -241211.11      838.57637     -240372.53     -0.22551995    -0.2378785     -0.2234064     -0.060535871    0.018982571    0.063099767    28761.724    
    249300   312.91665      1.2465         2.2918958e-05  2.4087694e-05  2.2581562e-05 -0.22892742     2448.193       2448.193       2448.193       1.467361e+10   0.042985257   -241252.85     -241252.85      838.53783     -240414.32     -0.22619253    -0.23772706    -0.22286269    -0.060749301    0.018819248    0.063394192    28942.58     
    249400   312.92727      1.247          2.2948937e-05  2.4022672e-05  2.2569201e-05 -0.22877148     2448.7379      2448.7379      2448.7379      1.468341e+10   0.042956568   -241293.88     -241293.88      838.5663      -240455.32     -0.2264884     -0.23708534    -0.2227407     -0.060803895    0.018456341    0.063568397    29067.537    
    249500   312.90575      1.2475         2.2901289e-05  2.388881e-05   2.25394e-05   -0.22807632     2449.2828      2449.2828      2449.2828      1.4693214e+10  0.042927905   -241334.15     -241334.15      838.50864     -240495.64     -0.22601815    -0.23576422    -0.22244658    -0.060850402    0.017624137    0.06346538     31539.215    
    249600   312.78523      1.248          2.2762625e-05  2.370669e-05   2.245552e-05  -0.22674508     2449.8277      2449.8277      2449.8277      1.4703023e+10  0.042899267   -241374.15     -241374.15      838.18568     -240535.96     -0.22464964    -0.23396684    -0.22161875    -0.060972022    0.016206784    0.063035371    29045.712    
    249700   312.56933      1.2485         2.2591738e-05  2.3547068e-05  2.2327663e-05 -0.22523717     2450.3726      2450.3726      2450.3726      1.4712836e+10  0.042870655   -241413.97     -241413.97      837.6071      -240576.36     -0.22296312    -0.2323915     -0.2203569     -0.061093944    0.014538675    0.062310557    27797.282    
    249800   312.34935      1.249          2.2448867e-05  2.3472311e-05  2.2191207e-05 -0.22407232     2450.9175      2450.9175      2450.9175      1.4722653e+10  0.042842068   -241453.26     -241453.26      837.01762     -240616.24     -0.22155309    -0.2316537     -0.21901019    -0.061137126    0.013074223    0.061630655    29081.146    
    249900   312.2055       1.2495         2.234894e-05   2.348635e-05   2.2025937e-05 -0.22324608     2451.4624      2451.4624      2451.4624      1.4732475e+10  0.042813507   -241491.94     -241491.94      836.63215     -240655.3      -0.22056689    -0.23179225    -0.2173791     -0.061266285    0.011773749    0.061462132    28862.961    
    250000   312.08887      1.25           2.2260407e-05  2.3505091e-05  2.1747793e-05 -0.22210146     2452.0073      2452.0073      2452.0073      1.4742301e+10  0.042784971   -241530.15     -241530.15      836.31961     -240693.83     -0.21969314    -0.23197721    -0.21463403    -0.061478973    0.010317795    0.061554675    8604.9137    
Loop time of 18.091 on 1 procs for 250000 steps with 900 atoms

Performance: 1193.967 ns/day, 0.020 hours/ns, 13819.057 timesteps/s
91.8% CPU use with 1 MPI tasks x 1 OpenMP threads

MPI task timing breakdown:
Section |  min time  |  avg time  |  max time  |%varavg| %total
---------------------------------------------------------------
Pair    | 7.489      | 7.489      | 7.489      |   0.0 | 41.40
Neigh   | 0.747      | 0.747      | 0.747      |   0.0 |  4.13
Comm    | 0.81621    | 0.81621    | 0.81621    |   0.0 |  4.51
Output  | 2.4986     | 2.4986     | 2.4986     |   0.0 | 13.81
Modify  | 5.7141     | 5.7141     | 5.7141     |   0.0 | 31.59
Other   |            | 0.826      |            |       |  4.57

Nlocal:            900 ave         900 max         900 min
Histogram: 1 0 0 0 0 0 0 0 0 0
Nghost:            441 ave         441 max         441 min
Histogram: 1 0 0 0 0 0 0 0 0 0
Neighs:             28 ave          28 max          28 min
Histogram: 1 0 0 0 0 0 0 0 0 0

Total # of neighbors = 28
Ave neighs/atom = 0.031111111
Neighbor list builds = 2310
Dangerous builds = 0

# restart file
write_restart ./tensile/restart/restart_${usic}_${trial}.tensile.restart
write_restart ./tensile/restart/restart_1_${trial}.tensile.restart
write_restart ./tensile/restart/restart_1_1.tensile.restart
System init for write_restart ...
Generated 0 of 1 mixed pair_coeff terms from geometric mixing rule
Total wall time: 0:00:18
