LAMMPS (23 Jun 2022 - Update 1)
OMP_NUM_THREADS environment is not set. Defaulting to 1 thread. (src/comm.cpp:98)
  using 1 OpenMP thread(s) per MPI task
###

# Read restart info
read_restart ${read_res}
read_restart ./500500/equpmf71.res
Reading restart file ...
  restart file = 23 Jun 2022, LAMMPS = 23 Jun 2022
WARNING: Restart file used different # of processors: 4 vs. 1 (src/read_restart.cpp:654)
  restoring atom style atomic from restart
  orthogonal box = (2174.6326 2174.6326 2174.6326) to (2825.3674 2825.3674 2825.3674)
  1 by 1 by 1 MPI processor grid
  restoring pair style table from restart
  1000 atoms
  read_restart CPU = 0.043 seconds

# Settings
pair_style table/pgn spline 9941
pair_coeff 1 1 N20.txt DE_GNP 147.89 75.6
pair_coeff 2 2 N100.txt DE_GNP 473.9 115.92
WARNING: 3 of 9941 force values in table DE_GNP are inconsistent with -dE/dr.
WARNING:  Should only be flagged at inflection points (src/pair_table_pgn.cpp:478)
pair_coeff 1 2 mixed_potential.txt DE_GNP 391.2 95.66
WARNING: 1562 of 9941 force values in table DE_GNP are inconsistent with -dE/dr.
WARNING:  Should only be flagged at inflection points (src/pair_table_pgn.cpp:478)

# Neighbor list
neighbor 2.0 bin
neigh_modify delay 0 every 1 check yes

# Temperature
variable T equal ${Temp}
variable T equal 300

# Deformation
reset_timestep 0
variable tmp equal "lx"
variable L0 equal ${tmp}
variable L0 equal 650.734842525819
variable strain equal "(lx - v_L0)/v_L0"
variable stp equal "step"
variable tmpe equal "temp"
variable p1 equal "v_strain"
variable p2 equal "-pxx*1.01325/10000"
variable p3 equal "-pyy*1.01325/10000"
variable p4 equal "-pzz*1.01325/10000"
variable p5 equal "lx"
variable p6 equal "ly"
variable p7 equal "lz"
variable p8 equal "press"
variable p9 equal "epair"
variable p10 equal "etotal"

# Thermo
thermo_style custom step temp v_p1 v_p2 v_p3 v_p4 press lx ly lz vol density epair pe ke etotal pxx pyy pzz pxy pxz pyz spcpu
thermo ${ts_save}
thermo 100

# Dump
dump 1 all custom 1000 ./tensile/trajectory/trajectory_${usic}_${trial}_*.tensile.custom id type x y z ix iy iz
dump 1 all custom 1000 ./tensile/trajectory/trajectory_1_${trial}_*.tensile.custom id type x y z ix iy iz
dump 1 all custom 1000 ./tensile/trajectory/trajectory_1_1_*.tensile.custom id type x y z ix iy iz
dump_modify 1 sort id
dump 2 all cfg 1000 ./tensile/trajectory/ovito/dumpten.tens_*.cfg mass type xs ys zs fx fy fz
dump_modify 2 element N20 N100

fix 1 all nvt temp ${T} ${T} 100
fix 1 all nvt temp 300 ${T} 100
fix 1 all nvt temp 300 300 100
fix 2 all deform 1 x erate ${strain_rate} y erate ${strain_rate} z erate ${strain_rate} units box
fix 2 all deform 1 x erate 5e-6 y erate ${strain_rate} z erate ${strain_rate} units box
fix 2 all deform 1 x erate 5e-6 y erate 5e-6 z erate ${strain_rate} units box
fix 2 all deform 1 x erate 5e-6 y erate 5e-6 z erate 5e-6 units box
fix             def1 all print ${ts_save} "${p1} ${p2} ${p3} ${p4}" file tensile${N20}${N100}_${usic}_${trial}.txt screen no
fix             def1 all print 100 "${p1} ${p2} ${p3} ${p4}" file tensile${N20}${N100}_${usic}_${trial}.txt screen no
fix             def1 all print 100 "${p1} ${p2} ${p3} ${p4}" file tensile500${N100}_${usic}_${trial}.txt screen no
fix             def1 all print 100 "${p1} ${p2} ${p3} ${p4}" file tensile500500_${usic}_${trial}.txt screen no
fix             def1 all print 100 "${p1} ${p2} ${p3} ${p4}" file tensile500500_1_${trial}.txt screen no
fix             def1 all print 100 "${p1} ${p2} ${p3} ${p4}" file tensile500500_1_1.txt screen no

timestep       		${ts}
timestep       		1
run				${steps_tensile}
run				250000
Generated 0 of 1 mixed pair_coeff terms from geometric mixing rule
Unused restart file global fix info:
  fix style: npt, fix ID: 5
Neighbor list info ...
  update every 1 steps, delay 0 steps, check yes
  max neighbors/atom: 2000, page size: 100000
  master list distance cutoff = 117.92
  ghost atom cutoff = 117.92
  binsize = 58.96, bins = 12 12 12
  1 neighbor lists, perpetual/occasional/extra = 1 0 0
  (1) pair table/pgn, perpetual
      attributes: half, newton on
      pair build: half/bin/atomonly/newton
      stencil: half/bin/3d
      bin: standard
Per MPI rank memory allocation (min/avg/max) = 5.815 | 5.815 | 5.815 Mbytes
   Step          Temp           v_p1           v_p2           v_p3           v_p4          Press            Lx             Ly             Lz           Volume        Density         E_pair         PotEng         KinEng         TotEng          Pxx            Pyy            Pzz            Pxy            Pxz            Pyz           S/CPU     
         0   296.74884     -3.4941064e-16  0.013217622    0.022795284    0.025808695   -203.37726      650.73484      650.73484      650.73484      2.7555747e+08  1.9401113     -30520567      -30520567       883.66737     -30519683      -130.44779     -224.97196     -254.71202      32.494935      58.902788     -2.2780535      0            
       100   340.28523      0.0005         0.022592619    0.032172312    0.035288366   -296.25231      651.06021      651.06021      651.06021      2.7597101e+08  1.9372041     -30519227      -30519227       1013.3113     -30518213      -222.97181     -317.51603     -348.26909      31.649181      57.631573      0.050186415    5631.6108    
       200   418.10709      0.001          0.031056787    0.040504987    0.043628126   -378.94531      651.38558      651.38558      651.38558      2.7638497e+08  1.9343026     -30509472      -30509472       1245.0515     -30508226      -306.50666     -399.75314     -430.57613      29.849196      54.683345      0.060321467    5460.3242    
       300   490.48443      0.0015         0.038817805    0.048045458    0.050973058   -453.44624      651.71094      651.71094      651.71094      2.7679934e+08  1.931407      -30507513      -30507513       1460.5789     -30506052      -383.10195     -474.1718      -503.06497      29.419313      53.143327     -1.8476565      5756.8999    
       400   531.32617      0.002          0.045990123    0.055177322    0.057889694   -523.2573       652.03631      652.03631      652.03631      2.7721412e+08  1.9285171     -30475030      -30475030       1582.1986     -30473448      -453.88722     -544.55783     -571.32686      28.472701      52.529118     -1.5155436      5496.7664    
       500   542.06239      0.0025         0.05371646     0.062796022    0.065345836   -598.26735      652.36168      652.36168      652.36168      2.7762932e+08  1.925633      -30472353      -30472353       1614.1692     -30470739      -530.14024     -619.74855     -644.91326      27.229744      51.289432     -2.219238       5768.702     
       600   534.16183      0.003          0.061200103    0.070418905    0.072848316   -672.6452       652.68705      652.68705      652.68705      2.7804493e+08  1.9227546     -30412030      -30412030       1590.6427     -30410440      -603.99806     -694.98056     -718.95698      26.035352      48.012645     -2.9573557      5507.9188    
       700   517.25824      0.0035         0.069253672    0.078652661    0.08067687    -751.98027      653.01241      653.01241      653.01241      2.7846096e+08  1.9198819     -30408419      -30408419       1540.3067     -30406879      -683.4806      -776.24142     -796.2188       23.820016      47.484976     -3.2719788      5726.4766    
       800   497.77955      0.004          0.076054674    0.086129527    0.087706695   -822.07713      653.33778      653.33778      653.33778      2.788774e+08   1.917015      -30341227      -30341227       1482.3025     -30339745      -750.60128     -850.03234     -865.59778      22.878085      48.835859     -2.0492147      5530.9071    
       900   479.43546      0.0045         0.083608518    0.093625031    0.095032828   -895.68674      653.66315      653.66315      653.66315      2.7929426e+08  1.9141538     -30336662      -30336662       1427.6769     -30335234      -825.15191     -924.00721     -937.90109      22.622873      48.616045     -2.23516        5792.7993    
      1000   462.73297      0.005          0.091374901    0.10087986     0.10214053    -968.4852       653.98852      653.98852      653.98852      2.7971153e+08  1.9112983     -30307138      -30307138       1377.9398     -30305760      -901.80016     -995.60678     -1008.0487      24.173172      46.881145     -2.118074       3857.1781    
      1100   448.20651      0.0055         0.098875705    0.107621       0.10916958    -1038.4613      654.31388      654.31388      654.31388      2.8012922e+08  1.9084484     -30271904      -30271904       1334.6825     -30270569      -975.82734     -1062.1367     -1077.42        22.821999      44.453452     -3.6523349      5491.7889    
      1200   436.1077       0.006          0.10560129     0.11439518     0.11597067    -1105.246       654.63925      654.63925      654.63925      2.8054732e+08  1.9056043     -30265953      -30265953       1298.6543     -30264654      -1042.2037     -1128.9927     -1144.5416      21.202625      42.06857      -3.6953102      5753.0064    
      1300   426.21783      0.0065         0.11169478     0.12074979     0.12236406    -1167.2296      654.96462      654.96462      654.96462      2.8096584e+08  1.9027657     -30234911      -30234911       1269.2039     -30233642      -1102.3418     -1191.7078     -1207.6394      19.298447      41.15369      -5.3828397      5538.105     
      1400   417.63644      0.007          0.11831455     0.1271995      0.12882189    -1231.4695      655.28999      655.28999      655.28999      2.8138477e+08  1.8999328     -30228138      -30228138       1243.65       -30226894      -1167.6738     -1255.3615     -1271.3732      18.118743      40.962261     -6.0957752      5809.976     
      1500   410.13816      0.0075         0.12475683     0.13337703     0.13514209    -1293.7773      655.61535      655.61535      655.61535      2.8180413e+08  1.8971055     -30189870      -30189870       1221.3214     -30188648      -1231.2542     -1316.3289     -1333.7487      19.356204      40.139269     -5.7249498      5546.2557    
      1600   403.98337      0.008          0.13109533     0.139965       0.14139448    -1356.8708      655.94072      655.94072      655.94072      2.8222389e+08  1.8942839     -30182272      -30182272       1202.9935     -30181069      -1293.8103     -1381.3472     -1395.4551      20.955136      39.916877     -4.8738207      5816.8602    
      1700   399.32383      0.0085         0.13704973     0.14624409     0.14695839    -1415.4197      656.26609      656.26609      656.26609      2.8264408e+08  1.8914678     -30148688      -30148688       1189.1182     -30147499      -1352.5756     -1443.3169     -1450.3665      20.715479      38.870805     -3.200459       5558.5179    
      1800   395.47059      0.009          0.14349567     0.15244613     0.15274315    -1476.0587      656.59146      656.59146      656.59146      2.8306468e+08  1.8886573     -30140315      -30140315       1177.6439     -30139137      -1416.1922     -1504.5264     -1507.4576      17.854837      36.624217     -2.9938844      5771.3219    
      1900   392.15988      0.0095         0.14947737     0.15817196     0.15852206    -1533.5847      656.91682      656.91682      656.91682      2.834857e+08   1.8858523     -30112853      -30112853       1167.7852     -30111685      -1475.227      -1561.0359     -1564.4911      15.958079      32.949864     -3.8167427      5544.7236    
      2000   389.65833      0.01           0.15534513     0.16368071     0.16447831    -1590.605       657.24219      657.24219      657.24219      2.8390713e+08  1.883053      -30103740      -30103740       1160.336      -30102580      -1533.1373     -1615.403      -1623.2747      14.512131      32.404888     -4.6583633      3162.9692    
      2100   387.55583      0.0105         0.16088433     0.16867272     0.16994928    -1643.2481      657.56756      657.56756      657.56756      2.8432899e+08  1.8802591     -30059233      -30059233       1154.0751     -30058079      -1587.8049     -1664.6703     -1677.269       12.900759      32.053739     -4.3702233      4726.3621    
      2200   386.23201      0.011          0.16645193     0.17423882     0.1751906     -1697.1177      657.89293      657.89293      657.89293      2.8475126e+08  1.8774708     -30049424      -30049424       1150.133      -30048273      -1642.7528     -1719.6035     -1728.9968      12.942029      31.404147     -3.7271675      5820.5991    
      2300   385.40299      0.0115         0.17173928     0.1796588      0.18029159    -1749.123       658.21829      658.21829      658.21829      2.8517395e+08  1.874688      -30027219      -30027219       1147.6643     -30026071      -1694.9349     -1773.0945     -1779.3397      15.544907      32.654416     -0.88583025     5523.4224    
      2400   385.26382      0.012          0.17649336     0.18469084     0.18475633    -1796.0047      658.54366      658.54366      658.54366      2.8559705e+08  1.8719107     -29979564      -29979564       1147.2499     -29978417      -1741.8541     -1822.7568     -1823.4032      15.847242      32.012213     -0.49081849     5567.2093    
      2500   385.79213      0.0125         0.18159765     0.18971816     0.18966843    -1845.4947      658.86903      658.86903      658.86903      2.8602058e+08  1.8691388     -29968800      -29968800       1148.8231     -29967651      -1792.2294     -1872.3727     -1871.8819      14.236669      31.133866     -0.026465945    5835.8386    
      2600   386.77757      0.013          0.18683658     0.19459212     0.19447865    -1894.5879      659.1944       659.1944       659.1944       2.8644452e+08  1.8663725     -29933431      -29933431       1151.7576     -29932279      -1843.9337     -1920.4749     -1919.355       12.662318      29.445821     -0.42662613     5576.2686    
      2700   387.54604      0.0135         0.19200232     0.19961001     0.19943696    -1944.401       659.51976      659.51976      659.51976      2.8686888e+08  1.8636116     -29922042      -29922042       1154.0459     -29920888      -1894.9156     -1969.9976     -1968.2897      11.560518      27.102235     -2.2612609      5844.1255    
      2800   388.38254      0.014          0.19644117     0.20385854     0.20390984    -1987.6949      659.84513      659.84513      659.84513      2.8729366e+08  1.8608561     -29883738      -29883738       1156.5369     -29882581      -1938.7236     -2011.9274     -2012.4337      10.562899      24.875593     -1.810648       5584.1573    
      2900   389.74928      0.0145         0.20089767     0.20816343     0.20839549    -2031.2743      660.1705       660.1705       660.1705       2.8771886e+08  1.8581061     -29871772      -29871772       1160.6068     -29870611      -1982.7058     -2054.4133     -2056.7036      9.7645083      24.687699     -0.98915938     5803.1994    
      3000   391.38826      0.015          0.20539285     0.21231485     0.21280712    -2074.2325      660.49587      660.49587      660.49587      2.8814448e+08  1.8553614     -29858859      -29858859       1165.4874     -29857693      -2027.0698     -2095.3846     -2100.2429      8.7587771      26.134902     -0.16917719     3544.3122    
      3100   392.81401      0.0155         0.20979628     0.2164548      0.21699138    -2116.1032      660.82123      660.82123      660.82123      2.8857052e+08  1.8526222     -29846353      -29846353       1169.7331     -29845183      -2070.5283     -2136.2428     -2141.5384      8.2455978      26.523993      0.49578621     5841.7743    
      3200   394.34019      0.016          0.21357544     0.22036703     0.22076865    -2153.8321      661.1466       661.1466       661.1466       2.8899698e+08  1.8498884     -29815374      -29815374       1174.2778     -29814200      -2107.8257     -2174.8535     -2178.8172      9.0558892      23.5694        1.2718547      5575.436     
      3300   396.40916      0.0165         0.21765395     0.22445185     0.22456769    -2193.1852      661.47197      661.47197      661.47197      2.8942386e+08  1.84716       -29802376      -29802376       1180.4388     -29801195      -2148.0775     -2215.1675     -2216.3107      10.240347      21.308868      1.353187       5854.6912    
      3400   398.51459      0.017          0.22169806     0.22833881     0.22830154    -2231.5599      661.79733      661.79733      661.79733      2.8985116e+08  1.8444369     -29776536      -29776536       1186.7084     -29775350      -2187.9898     -2253.5288     -2253.161       10.508211      20.746873      1.810176       5555.8895    
      3500   400.52767      0.0175         0.22575132     0.23227441     0.2322552     -2270.8477      662.1227       662.1227       662.1227       2.9027888e+08  1.8417191     -29763033      -29763033       1192.703      -29761840      -2227.9923     -2292.3702     -2292.1806      8.9146238      21.200076      3.2093908      5854.6724    
      3600   402.50179      0.018          0.22977095     0.23605541     0.23603417    -2308.9416      662.44807      662.44807      662.44807      2.9070702e+08  1.8390067     -29745120      -29745120       1198.5816     -29743922      -2267.6629     -2329.6858     -2329.4762      6.3353173      20.853883      3.3298365      5602.1392    
      3700   404.57719      0.0185         0.23366626     0.2398103      0.23968669    -2346.1247      662.77344      662.77344      662.77344      2.9113558e+08  1.8362997     -29716435      -29716435       1204.7618     -29715230      -2306.1067     -2366.7437     -2365.5237      4.6499297      17.692026      2.5254648      5596.5619    
      3800   406.78547      0.019          0.23735713     0.24337476     0.24331989    -2381.9452      663.0988       663.0988       663.0988       2.9156456e+08  1.8335979     -29702212      -29702212       1211.3377     -29701000      -2342.5327     -2401.9222     -2401.3806      5.1610756      16.228048      2.7185934      5870.4008    
      3900   409.00104      0.0195         0.24030702     0.24655254     0.24649939    -2412.5633      663.42417      663.42417      663.42417      2.9199396e+08  1.8309014     -29672890      -29672890       1217.9353     -29671673      -2371.6459     -2433.2843     -2432.7598      8.4010778      16.124162      4.8703218      5561.044     
      4000   410.88035      0.02           0.24337561     0.24951617     0.24956381    -2442.489       663.74954      663.74954      663.74954      2.9242379e+08  1.8282103     -29658260      -29658260       1223.5315     -29657036      -2401.9305     -2462.5331     -2463.0033      9.6588468      15.998659      5.9361395      3100.3339    
      4100   412.55799      0.0205         0.24670324     0.25231866     0.25251722    -2472.3715      664.07491      664.07491      664.07491      2.9285403e+08  1.8255243     -29643286      -29643286       1228.5273     -29642058      -2434.7716     -2490.1915     -2492.1512      9.2935259      15.495967      5.5888246      4866.9299    
      4200   414.37984      0.021          0.24992626     0.25535621     0.25540579    -2502.4698      664.40027      664.40027      664.40027      2.932847e+08   1.8228437     -29628267      -29628267       1233.9524     -29627033      -2466.5804     -2520.1699     -2520.6591      7.9416072      14.484043      5.4650328      5871.0277    
      4300   416.23709      0.0215         0.25293074     0.25862489     0.25844085    -2533.0915      664.72564      664.72564      664.72564      2.9371579e+08  1.8201683     -29613048      -29613048       1239.483      -29611809      -2496.2324     -2552.4292     -2550.6128      7.4690443      12.731156      5.4449779      5479.386     
      4400   418.12455      0.022          0.25584919     0.26164461     0.26151962    -2562.7549      665.05101      665.05101      665.05101      2.941473e+08   1.8174981     -29597627      -29597627       1245.1035     -29596382      -2525.0352     -2582.2315     -2580.998       6.0505974      12.002279      5.7296972      5804.0363    
      4500   420.21112      0.0225         0.25898421     0.26438328     0.26439836    -2591.5482      665.37638      665.37638      665.37638      2.9457924e+08  1.8148332     -29581533      -29581533       1251.317      -29580282      -2555.9755     -2609.2601     -2609.4089      4.6813398      13.083029      7.6697819      5603.2328    
      4600   422.09915      0.023          0.26224833     0.26727151     0.26704032    -2620.4792      665.70174      665.70174      665.70174      2.9501159e+08  1.8121734     -29565736      -29565736       1256.9392     -29564479      -2588.1897     -2637.7648     -2635.483       4.5320504      13.60239       8.437685       5868.6917    
      4700   423.77813      0.0235         0.26485808     0.26990835     0.26923361    -2644.9545      666.02711      666.02711      666.02711      2.9544437e+08  1.8095189     -29522081      -29522081       1261.9389     -29520819      -2613.946      -2663.7883     -2657.1291      5.7619132      12.702443      7.5910125      5608.3903    
      4800   425.68232      0.024          0.26722602     0.27194238     0.27170992    -2667.5823      666.35248      666.35248      666.35248      2.9587758e+08  1.8068695     -29496207      -29496207       1267.6092     -29494940      -2637.3158     -2683.8626     -2681.5684      5.5697746      11.1799        7.6492936      5610.2653    
      4900   427.87159      0.0245         0.26948217     0.27405212     0.27421501    -2690.186       666.67785      666.67785      666.67785      2.963112e+08   1.8042253     -29479929      -29479929       1274.1285     -29478655      -2659.5822     -2704.6841     -2706.2917      4.7657631      11.312838      8.22661        5871.5396    
      5000   430.24712      0.025          0.27114809     0.2760616      0.27609789    -2708.4714      667.00321      667.00321      667.00321      2.9674525e+08  1.8015863     -29413866      -29413866       1281.2025     -29412585      -2676.0236     -2724.5162     -2724.8743      5.1050086      11.330581      9.159647       3528.1452    
      5100   432.65236      0.0255         0.27325712     0.27826741     0.27803312    -2729.0325      667.32858      667.32858      667.32858      2.9717973e+08  1.7989524     -29397319      -29397319       1288.3649     -29396031      -2696.8381     -2746.2859     -2743.9736      5.3281223      9.7186943      9.4291772      5851.7784    
      5200   433.94238      0.026          0.27518722     0.28019704     0.27998315    -2748.1451      667.65395      667.65395      667.65395      2.9761462e+08  1.7963236     -29351593      -29351593       1292.2063     -29350301      -2715.8867     -2765.3298     -2763.2188      7.2403308      7.3781701      7.3272382      5593.6314    
      5300   434.13936      0.0265         0.27743471     0.2820122      0.28219931    -2768.8008      667.97932      667.97932      667.97932      2.9804994e+08  1.7936999     -29334766      -29334766       1292.7929     -29333473      -2738.0677     -2783.244      -2785.0907      7.6712379      6.4154048      7.7202052      5356.9901    
      5400   434.9183       0.027          0.27954565     0.28349088     0.2839854     -2786.4855      668.30468      668.30468      668.30468      2.9848569e+08  1.7910814     -29303120      -29303120       1295.1124     -29301825      -2758.9011     -2797.8375     -2802.718       6.4621408      7.6873049      8.2701384      5595.3904    
      5500   436.38226      0.0275         0.28169551     0.28544799     0.28574676    -2805.7908      668.63005      668.63005      668.63005      2.9892186e+08  1.788468      -29286046      -29286046       1299.4719     -29284747      -2780.1185     -2817.1527     -2820.1012      4.9045266      7.9830167      7.6328392      5828.4823    
      5600   437.52629      0.028          0.28365535     0.28734893     0.28724078    -2823.4067      668.95542      668.95542      668.95542      2.9935845e+08  1.7858596     -29246351      -29246351       1302.8786     -29245048      -2799.4606     -2835.9134     -2834.8461      4.5189215      6.0226478      6.0428066      5610.0431    
      5700   438.50781      0.0285         0.28552052     0.28919965     0.28890016    -2841.09        669.28079      669.28079      669.28079      2.9979547e+08  1.7832563     -29229022      -29229022       1305.8014     -29227716      -2817.8685     -2854.1787     -2851.2229      5.635519       3.6438293      7.095019       5888.2668    
      5800   439.63025      0.029          0.28714863     0.29053741     0.29056634    -2856.3282      669.60615      669.60615      669.60615      3.0023292e+08  1.7806581     -29192868      -29192868       1309.1438     -29191559      -2833.9367     -2867.3813     -2867.6668      4.6226189      4.8139298      7.8410656      5631.1662    
      5900   440.70732      0.0295         0.28873923     0.29179091     0.29219802    -2871.0524      669.93152      669.93152      669.93152      3.0067079e+08  1.7780649     -29175313      -29175313       1312.3511     -29174001      -2849.6346     -2879.7524     -2883.7702      3.7243512      6.835152       8.1296305      5850.2026    
      6000   441.76493      0.03           0.29002234     0.29283575     0.293128      -2881.7702      670.25689      670.25689      670.25689      3.0110908e+08  1.7754767     -29142492      -29142492       1315.5005     -29141177      -2862.298      -2890.0642     -2892.9485      2.4827624      5.8116829      8.9614986      3752.3247    
      6100   443.12882      0.0305         0.29118886     0.29367956     0.294268      -2892.134       670.58226      670.58226      670.58226      3.015478e+08   1.7728936     -29111979      -29111979       1319.562      -29110659      -2873.8106     -2898.3919     -2904.1994      2.3123527      4.1416108      10.582006      5582.2605    
      6200   444.16492      0.031          0.2924889      0.29502849     0.29560462    -2905.2455      670.90762      670.90762      670.90762      3.0198695e+08  1.7703154     -29094170      -29094170       1322.6473     -29092848      -2886.641      -2911.7048     -2917.3907      2.9929162      3.2072602      9.3739788      5907.5814    
      6300   444.61253      0.0315         0.29355654     0.29642228     0.29681259    -2917.3169      671.23299      671.23299      671.23299      3.0242653e+08  1.7677423     -29052990      -29052990       1323.9802     -29051666      -2897.1778     -2925.4605     -2929.3125      4.1710348      2.609112       6.8897287      5636.0842    
      6400   444.50247      0.032          0.29485081     0.29763952     0.2980743     -2929.7299      671.55836      671.55836      671.55836      3.0286653e+08  1.7651742     -29034988      -29034988       1323.6525     -29033664      -2909.9513     -2937.4737     -2941.7646      4.152324       2.3995462      6.5112128      5910.0045    
      6500   444.46812      0.0325         0.29594773     0.2982554      0.29879135    -2937.7234      671.88372      671.88372      671.88372      3.0330695e+08  1.762611      -28981615      -28981615       1323.5502     -28980291      -2920.777      -2943.5519     -2948.8413      2.8633468      1.0720892      9.250407       5641.2852    
      6600   444.85306      0.033          0.29723925     0.29921272     0.2997404     -2948.2437      672.20909      672.20909      672.20909      3.037478e+08   1.7600528     -28963459      -28963459       1324.6965     -28962134      -2933.5233     -2953          -2958.2077      2.0521859     -0.16537234     10.973514      5862.1788    
      6700   445.4896       0.0335         0.29813687     0.2997546      0.30049184    -2955.4513      672.53446      672.53446      672.53446      3.0418908e+08  1.7574995     -28922304      -28922304       1326.592      -28920978      -2942.3821     -2958.3479     -2965.6239      1.7558536     -0.0011011943   11.134548      5619.6056    
      6800   446.35216      0.034          0.29885269     0.30029663     0.30117062    -2961.8223      672.85983      672.85983      672.85983      3.0463079e+08  1.7549512     -28904027      -28904027       1329.1605     -28902698      -2949.4467     -2963.6973     -2972.3229      0.85684163     0.44211502     9.6695645      5914.4402    
      6900   447.19302      0.0345         0.29957735     0.3007956      0.30167146    -2967.4954      673.18519      673.18519      673.18519      3.0507293e+08  1.7524078     -28862043      -28862043       1331.6645     -28860711      -2956.5985     -2968.6217     -2977.2658     -0.6998758     -0.93279541     9.4467505      5649.2736    
      7000   447.69219      0.035          0.30046847     0.30168834     0.30245819    -2975.952       673.51056      673.51056      673.51056      3.0551549e+08  1.7498693     -28843659      -28843659       1333.1509     -28842326      -2965.3932     -2977.4325     -2985.0302     -1.5240169     -2.9358795      10.211985      3696.0146    
      7100   448.46483      0.0355         0.30100135     0.30226035     0.30288193    -2980.9808      673.83593      673.83593      673.83593      3.0595848e+08  1.7473357     -28802623      -28802623       1335.4517     -28801287      -2970.6524     -2983.0777     -2989.2122     -0.83218512    -2.6458399      10.706155      5265.9305    
      7200   449.65216      0.036          0.30139573     0.30261499     0.3033242     -2984.8998      674.1613       674.1613       674.1613       3.064019e+08   1.744807      -28784139      -28784139       1338.9873     -28782800      -2974.5446     -2986.5777     -2993.5771      0.72907231    -2.3473309      10.219095      5922.9899    
      7300   450.16395      0.0365         0.30161573     0.30283143     0.30357022    -2987.1449      674.48666      674.48666      674.48666      3.0684574e+08  1.7422831     -28754382      -28754382       1340.5114     -28753041      -2976.7158     -2988.7138     -2996.0051      1.2979365     -1.8762135      9.0098339      5646.8702    
      7400   449.20437      0.037          0.3017884      0.30291294     0.30371928    -2988.4715      674.81203      674.81203      674.81203      3.0729002e+08  1.7397642     -28704067      -28704067       1337.6539     -28702729      -2978.42       -2989.5183     -2997.4762      2.2520525     -3.815343       7.6483463      5666.3022    
      7500   447.99997      0.0375         0.30234861     0.30309937     0.3038884     -2991.4841      675.1374       675.1374       675.1374       3.0773472e+08  1.7372501     -28685472      -28685472       1334.0674     -28684138      -2983.9488     -2991.3582     -2999.1453      2.5748687     -6.1396682      6.0638859      5932.8896    
      7600   447.75223      0.038          0.30207168     0.30326581     0.30394753    -2991.3152      675.46277      675.46277      675.46277      3.0817985e+08  1.7347408     -28627676      -28627676       1333.3297     -28626342      -2981.2156     -2993.0009     -2999.7289      2.4710074     -5.0324639      5.2998652      5652.9023    
      7700   448.22456      0.0385         0.30207844     0.30358418     0.30443883    -2994.001       675.78813      675.78813      675.78813      3.0862541e+08  1.7322364     -28609039      -28609039       1334.7362     -28607704      -2981.2824     -2996.1429     -3004.5777      0.3031815     -2.9256508      7.5486772      5893.7483    
      7800   448.95197      0.039          0.30199682     0.30368334     0.30436553    -2993.8176      676.1135       676.1135       676.1135       3.090714e+08   1.7297367     -28558679      -28558679       1336.9023     -28557342      -2980.4769     -2997.1216     -3003.8542     -1.508943      -1.3574504      10.457702      5669.6545    
      7900   449.43874      0.0395         0.30223671     0.30366543     0.30426744    -2994.2251      676.43887      676.43887      676.43887      3.0951782e+08  1.7272419     -28540018      -28540018       1338.3518     -28538679      -2982.8444     -2996.9448     -3002.8862     -0.33126098    -3.4026927      11.533532      5948.484     
      8000   450.03528      0.04           0.3020976      0.303189       0.3036927     -2990.3094      676.76424      676.76424      676.76424      3.0996467e+08  1.7247519     -28498523      -28498523       1340.1282     -28497183      -2981.4715     -2992.2428     -2997.214       0.77816855    -5.8666207      9.9197677      3628.8376    
      8100   450.40829      0.0405         0.30192746     0.30287834     0.30361001    -2988.4557      677.0896       677.0896       677.0896       3.1041195e+08  1.7222667     -28479863      -28479863       1341.239      -28478522      -2979.7923     -2989.1769     -2996.3978     -0.62336012    -6.0907564      7.3788546      5838.8501    
      8200   449.68237      0.041          0.30145454     0.30247537     0.30324373    -2984.3692      677.41497      677.41497      677.41497      3.1085966e+08  1.7197862     -28441474      -28441474       1339.0773     -28440135      -2975.125      -2985.1998     -2992.7829     -4.2620821     -7.3812087      6.6407141      5615.2608    
      8300   448.45727      0.0415         0.30105871     0.30216513     0.30279554    -2980.572       677.74034      677.74034      677.74034      3.113078e+08   1.7173105     -28422800      -28422800       1335.4292     -28421464      -2971.2184     -2982.138      -2988.3597     -4.7963973     -7.8758965      7.0174197      5937.4677    
      8400   447.24289      0.042          0.30074928     0.30163157     0.30239396    -2976.4777      678.06571      678.06571      678.06571      3.1175637e+08  1.7148396     -28399487      -28399487       1331.813      -28398156      -2968.1646     -2976.8722     -2984.3963     -3.0376242     -7.7936071      8.2652621      5684.7361    
      8500   446.56461      0.0425         0.30054091     0.30080083     0.30174961    -2970.9395      678.39107      678.39107      678.39107      3.1220537e+08  1.7123734     -28364791      -28364791       1329.7931     -28363461      -2966.1082     -2968.6734     -2978.0371     -0.55361476    -8.8848716      10.179245      5681.4011    
      8600   446.51607      0.043          0.30014699     0.30034885     0.30133839    -2966.8039      678.71644      678.71644      678.71644      3.1265481e+08  1.7099119     -28346169      -28346169       1329.6486     -28344839      -2962.2205     -2964.2126     -2973.9787     -0.19835428    -11.16585       9.918238       5953.8148    
      8700   446.50088      0.0435         0.29925364     0.2996788      0.30061676    -2959.2868      679.04181      679.04181      679.04181      3.1310467e+08  1.7074551     -28282760      -28282760       1329.6034     -28281430      -2953.4038     -2957.5998     -2966.8567     -0.65127125    -14.712952      8.2953899      5671.2931    
      8800   446.36969      0.044          0.29863821     0.29924964     0.30023561    -2954.5965      679.36718      679.36718      679.36718      3.1355496e+08  1.705003      -28264182      -28264182       1329.2127     -28262853      -2947.33       -2953.3643     -2963.0951     -0.45234462    -15.383131      7.5854921      5920.4181    
      8900   445.95106      0.0445         0.2977715      0.2984518      0.29937504    -2946.2894      679.69254      679.69254      679.69254      3.1400569e+08  1.7025557     -28219644      -28219644       1327.9661     -28218316      -2938.7762     -2945.4902     -2954.6019      0.59865852    -14.1466        8.8079696      5700.9361    
      9000   445.23453      0.045          0.29704634     0.29746233     0.2983296     -2937.2096      680.01791      680.01791      680.01791      3.1445685e+08  1.700113      -28201123      -28201123       1325.8324     -28199797      -2931.6195     -2935.7249     -2944.2843      1.08273       -13.407086      8.9399886      3932.7178    
      9100   444.04396      0.0455         0.29587713     0.29604948     0.29685991    -2923.8803      680.34328      680.34328      680.34328      3.1490844e+08  1.697675      -28134511      -28134511       1322.2871     -28133188      -2920.0802     -2921.7812     -2929.7796      1.3392323     -12.823511      9.2072161      5664.2535    
      9200   442.56594      0.046          0.29510841     0.29502248     0.29584872    -2914.6463      680.66865      680.66865      680.66865      3.1536046e+08  1.6952416     -28116088      -28116088       1317.8858     -28114770      -2912.4936     -2911.6455     -2919.7999     -0.80992949    -13.737669      8.3481142      5971.5885    
      9300   441.34952      0.0465         0.29403883     0.29399187     0.29496292    -2904.8232      680.99401      680.99401      680.99401      3.1581291e+08  1.6928129     -28060723      -28060723       1314.2635     -28059409      -2901.9376     -2901.4742     -2911.0576     -2.8516849     -16.290715      8.656439       5663.0548    
      9400   440.9662       0.047          0.29313029     0.29323455     0.29434256    -2897.3021      681.31938      681.31938      681.31938      3.162658e+08   1.6903888     -28042389      -28042389       1313.122      -28041076      -2892.9711     -2894          -2904.9352     -3.0602912     -17.932336      9.3473651      5987.9393    
      9500   440.58837      0.0475         0.29218987     0.29219865     0.29363781    -2888.482       681.64475      681.64475      681.64475      3.1671912e+08  1.6879694     -28012660      -28012660       1311.9969     -28011348      -2883.6898     -2883.7765     -2897.9798     -2.3880388     -18.662613      9.5576184      5715.4177    
      9600   439.76635      0.048          0.29134419     0.29104949     0.29262088    -2878.5741      681.97011      681.97011      681.97011      3.1717287e+08  1.6855545     -27994410      -27994410       1309.5491     -27993100      -2875.3436     -2872.4351     -2887.9436      0.063531105   -19.397328      10.182851      5997.4871    
      9700   438.7985       0.0485         0.29000758     0.28956552     0.29105742    -2864.1517      682.29548      682.29548      682.29548      3.1762705e+08  1.6831443     -27971864      -27971864       1306.667      -27970558      -2862.1523     -2857.7895     -2872.5134      1.8089787     -19.259643      9.25228        5718.8072    
      9800   437.85339      0.049          0.2884987      0.28790981     0.28937459    -2848.205       682.62085      682.62085      682.62085      3.1808167e+08  1.6807387     -27931102      -27931102       1303.8526     -27929798      -2847.2608     -2841.449      -2855.9051      0.54302649    -18.776528      6.3572618      5729.1074    
      9900   436.61943      0.0495         0.28734806     0.28652272     0.28823053    -2836.0928      682.94622      682.94622      682.94622      3.1853673e+08  1.6783376     -27913053      -27913053       1300.1781     -27911753      -2835.9049     -2827.7594     -2844.6142     -1.8875295     -18.04145       5.4900866      5957.4167    
     10000   435.39802      0.05           0.28614973     0.28514935     0.2871177     -2823.9717      683.27158      683.27158      683.27158      3.1899221e+08  1.6759411     -27865492      -27865492       1296.5409     -27864196      -2824.0783     -2814.2053     -2833.6314     -1.8357094     -18.726174      4.7395343      3872.7608    
     10100   434.75846      0.0505         0.28488786     0.28388939     0.28601109    -2812.035       683.59695      683.59695      683.59695      3.1944813e+08  1.6735492     -27847574      -27847574       1294.6364     -27846279      -2811.6246     -2801.7704     -2822.71       -0.11420333    -19.136785      5.2865561      5971.2166    
     10200   434.66198      0.051          0.28340906     0.28229789     0.28449135    -2796.9349      683.92232      683.92232      683.92232      3.1990449e+08  1.6711618     -27821640      -27821640       1294.3492     -27820346      -2797.0299     -2786.0635     -2807.7113      0.26848683    -19.447226      5.5883606      5712.2929    
     10300   433.90012      0.0515         0.28202163     0.28089646     0.28294241    -2782.6647      684.24769      684.24769      684.24769      3.2036128e+08  1.668779      -27803880      -27803880       1292.0805     -27802587      -2783.337      -2772.2326     -2792.4245      0.16966432    -20.369247      5.6834731      5997.9443    
     10400   431.70775      0.052          0.28067392     0.27961683     0.28104476    -2767.7786      684.57305      684.57305      684.57305      3.208185e+08   1.6664007     -27778083      -27778083       1285.552      -27776798      -2770.0362     -2759.6035     -2773.6961      0.12766685    -21.298385      6.305005       5683.3621    
     10500   429.24543      0.0525         0.27927907     0.27800659     0.27933938    -2752.2824      684.89842      684.89842      684.89842      3.2127616e+08  1.6640269     -27760456      -27760456       1278.2196     -27759177      -2756.2701     -2743.7117     -2756.8654     -0.037066502   -21.351987      5.98232        5974.7464    
     10600   426.9868       0.053          0.27759375     0.27572949     0.27777289    -2734.0937      685.22379      685.22379      685.22379      3.2173425e+08  1.6616576     -27704710      -27704710       1271.4938     -27703439      -2739.6373     -2721.2385     -2741.4053      1.355471      -20.968777      4.6439833      5725.197     
     10700   425.41742      0.0535         0.27596103     0.27394353     0.27620573    -2717.6915      685.54916      685.54916      685.54916      3.2219278e+08  1.6592928     -27687266      -27687266       1266.8204     -27685999      -2723.5236     -2703.6124     -2725.9386      1.3981963     -21.194256      4.01134        6010.7998    
     10800   424.45295      0.054          0.27412915     0.27224266     0.27437243    -2700.0386      685.87452      685.87452      685.87452      3.2265174e+08  1.6569325     -27635998      -27635998       1263.9484     -27634734      -2705.4444     -2686.8262     -2707.8454      2.2091379     -22.877878      4.3218027      5749.4034    
     10900   423.72999      0.0545         0.27234867     0.27074962     0.27295775    -2684.6156      686.19989      686.19989      686.19989      3.2311114e+08  1.6545767     -27596443      -27596443       1261.7956     -27595182      -2687.8724     -2672.091      -2693.8835      2.7012546     -22.238426      4.0772709      5741.2328    
     11000   422.7786       0.055          0.27057266     0.26906234     0.27141097    -2668.1338      686.52526      686.52526      686.52526      3.2357098e+08  1.6522253     -27579281      -27579281       1258.9625     -27578022      -2670.3445     -2655.4389     -2678.618       3.4166887     -20.898757      4.717497       2250.3491    
     11100   421.673        0.0555         0.26871168     0.26724999     0.26941523    -2649.484       686.85063      686.85063      686.85063      3.2403125e+08  1.6498784     -27552325      -27552325       1255.6702     -27551070      -2651.9781     -2637.5523     -2658.9216      2.9242572     -20.576323      6.3432909      4119.0359    
     11200   419.8852       0.056          0.26711538     0.26546005     0.26751093    -2632.0795      687.17599      687.17599      687.17599      3.2449196e+08  1.647536      -27535348      -27535348       1250.3464     -27534097      -2636.2238     -2619.8869     -2640.1276      4.1843287     -21.256754      5.970188       6024.8451    
     11300   417.98418      0.0565         0.26517751     0.26341514     0.26567555    -2612.9392      687.50136      687.50136      687.50136      3.249531e+08   1.6451979     -27488894      -27488894       1244.6855     -27487650      -2617.0986     -2599.7053     -2622.0139      6.5589175     -22.686928      3.1343622      5746.7295    
     11400   416.45149      0.057          0.2636158      0.26152729     0.26408415    -2596.3558      687.82673      687.82673      687.82673      3.2541468e+08  1.6428643     -27472122      -27472122       1240.1214     -27470882      -2601.6857     -2581.0737     -2606.3079      6.6317713     -22.116148      0.95937589     5986.7567    
     11500   414.66312      0.0575         0.26192379     0.25957774     0.26232152    -2578.5773      688.1521       688.1521       688.1521       3.258767e+08   1.6405351     -27429469      -27429469       1234.796      -27428234      -2584.9868     -2561.8331     -2588.9121      4.1606517     -20.714964      1.1840593      5744.1781    
     11600   412.60711      0.058          0.26024168     0.25769471     0.2606438     -2561.3297      688.47746      688.47746      688.47746      3.2633916e+08  1.6382103     -27412888      -27412888       1228.6735     -27411659      -2568.3857     -2543.249      -2572.3543      2.1647883     -18.73692       2.4327988      6040.3321    
     11700   411.17529      0.0585         0.25804506     0.25562635     0.25836968    -2539.8177      688.80283      688.80283      688.80283      3.2680205e+08  1.6358899     -27380566      -27380566       1224.4098     -27379342      -2546.7067     -2522.8359     -2549.9105      2.705314      -18.730712      2.3930586      5766.6129    
     11800   410.59927      0.059          0.25579922     0.25370639     0.2560362     -2518.4367      689.1282       689.1282       689.1282       3.2726538e+08  1.6335739     -27364219      -27364219       1222.6945     -27362996      -2524.542      -2503.8873     -2526.8809      4.4541052     -19.736682      0.6912391      6046.4566    
     11900   409.47362      0.0595         0.25371738     0.25194998     0.25421771    -2499.8275      689.45357      689.45357      689.45357      3.2772915e+08  1.6312622     -27332806      -27332806       1219.3425     -27331586      -2503.9958     -2486.553      -2508.9338      6.3700976     -21.095178     -0.48327914     5769.4922    
     12000   407.22298      0.06           0.25189484     0.25014818     0.25263459    -2482.6963      689.77893      689.77893      689.77893      3.2819335e+08  1.6289549     -27294208      -27294208       1212.6405     -27292995      -2486.0087     -2468.7706     -2493.3096      5.7962369     -20.719543     -0.6489154      3853.8986    
     12100   405.0438       0.0605         0.24997496     0.24825125     0.25088306    -2464.3779      690.1043       690.1043       690.1043       3.2865799e+08  1.6266519     -27278167      -27278167       1206.1513     -27276961      -2467.0611     -2450.0494     -2476.0233      5.704645      -19.985829     -1.5687248      6029.0028    
     12200   403.52226      0.061          0.24783984     0.24601259     0.24880255    -2443.1449      690.42967      690.42967      690.42967      3.2912308e+08  1.6243533     -27254682      -27254682       1201.6204     -27253481      -2445.989      -2427.9554     -2455.4902      4.9667735     -18.95951      -2.1956359      5769.5687    
     12300   402.10667      0.0615         0.2459944      0.24372461     0.24680717    -2422.9827      690.75504      690.75504      690.75504      3.295886e+08   1.622059      -27238887      -27238887       1197.405      -27237690      -2427.776      -2405.3749     -2435.7974      3.774244      -20.005664     -2.7371961      6066.6823    
     12400   400.42506      0.062          0.2439452      0.24161066     0.24469356    -2402.3338      691.0804       691.0804       691.0804       3.3005456e+08  1.6197691     -27198906      -27198906       1192.3975     -27197714      -2407.5519     -2384.5118     -2414.9377      3.6447872     -20.730837     -2.8029037      5785.1053    
     12500   399.18685      0.0625         0.24203533     0.23992314     0.24283524    -2384.3859      691.40577      691.40577      691.40577      3.3052096e+08  1.6174834     -27183319      -27183319       1188.7103     -27182130      -2388.703      -2367.8573     -2396.5974      3.987417      -20.446987     -2.1253223      6018.8585    
     12600   398.21742      0.063          0.24046777     0.23861902     0.24111959    -2369.2948      691.73114      691.73114      691.73114      3.3098779e+08  1.6152021     -27165841      -27165841       1185.8235     -27164655      -2373.2324     -2354.9866     -2379.6653      5.3474128     -19.586719     -1.284126       5782.2382    
     12700   396.83936      0.0635         0.23896865     0.23732195     0.23951952    -2354.8322      692.05651      692.05651      692.05651      3.3145507e+08  1.612925      -27150435      -27150435       1181.7199     -27149253      -2358.4372     -2342.1855     -2363.8739      7.0486524     -19.009502     -1.6954305      6057.7868    
     12800   395.29642      0.064          0.23667597     0.23552004     0.23764357    -2335.1907      692.38187      692.38187      692.38187      3.3192279e+08  1.6106522     -27103722      -27103722       1177.1252     -27102545      -2335.8103     -2324.4021     -2345.3597      7.7075036     -17.154857     -2.5524897      5786.3747    
     12900   393.83953      0.0645         0.23439635     0.2334846      0.23575265    -2314.7745      692.70724      692.70724      692.70724      3.3239094e+08  1.6083837     -27088541      -27088541       1172.7869     -27087368      -2313.3121     -2304.3138     -2326.6977      7.385955      -15.522227     -2.8001494      6077.3826    
     13000   391.90437      0.065          0.23238713     0.23122411     0.2338503     -2294.47        693.03261      693.03261      693.03261      3.3285954e+08  1.6061194     -27065564      -27065564       1167.0243     -27064397      -2293.4826     -2282.0045     -2307.923       6.3485634     -14.819608     -2.810977       3534.3176    
     13100   389.81485      0.0655         0.23061124     0.22907928     0.23170146    -2274.5028      693.35797      693.35797      693.35797      3.3332857e+08  1.6038594     -27039642      -27039642       1160.8021     -27038481      -2275.956      -2260.8367     -2286.7156      4.9808181     -16.762415     -3.8557833      5701.4142    
     13200   388.095        0.066          0.22904627     0.2273961      0.22969473    -2257.2156      693.68334      693.68334      693.68334      3.3379805e+08  1.6016036     -27024779      -27024779       1155.6807     -27023623      -2260.511      -2244.225      -2266.9107      4.071512      -18.285481     -4.8926062      6070.6572    
     13300   386.47024      0.0665         0.22737054     0.22575673     0.22763037    -2239.5185      694.00871      694.00871      694.00871      3.3426797e+08  1.5993521     -26980710      -26980710       1150.8424     -26979559      -2243.9727     -2228.0457     -2246.5371      4.3068817     -17.339733     -5.6863854      5789.1007    
     13400   384.60211      0.067          0.22585177     0.22423286     0.22592452    -2223.8972      694.33408      694.33408      694.33408      3.3473833e+08  1.5971047     -26966047      -26966047       1145.2794     -26964901      -2228.9837     -2213.0063     -2229.7017      5.4098436     -15.146047     -5.2812608      6079.883     
     13500   383.14212      0.0675         0.22410033     0.22221594     0.22414623    -2205.6501      694.65944      694.65944      694.65944      3.3520913e+08  1.5948616     -26943864      -26943864       1140.9318     -26942723      -2211.6983     -2193.1008     -2212.1513      6.7764121     -13.846324     -3.8754445      5784.3725    
     13600   382.15697      0.068          0.22221384     0.22024989     0.22256686    -2187.7805      694.98481      694.98481      694.98481      3.3568037e+08  1.5926227     -26929402      -26929402       1137.9982     -26928264      -2193.0801     -2173.6974     -2196.5642      6.1519458     -14.36383      -1.8848342      6029.592     
     13700   381.06307      0.0685         0.22017112     0.21840887     0.2209237     -2169.5985      695.31018      695.31018      695.31018      3.3615205e+08  1.5903879     -26888453      -26888453       1134.7407     -26887319      -2172.92       -2155.528      -2180.3474      2.8614718     -14.455543     -2.3294621      5803.7864    
     13800   379.66946      0.069          0.21850163     0.21700842     0.21947417    -2154.7306      695.63555      695.63555      695.63555      3.3662417e+08  1.5881574     -26874193      -26874193       1130.5908     -26873063      -2156.4434     -2141.7066     -2166.0417      0.95655994    -13.114388     -5.3448732      6075.5272    
     13900   378.47604      0.0695         0.21661526     0.21540297     0.21789414    -2138.0455      695.96091      695.96091      695.96091      3.3709674e+08  1.585931      -26843008      -26843008       1127.037      -26841881      -2137.8264     -2125.8621     -2150.448       1.7254907     -11.485833     -7.7379294      5802.6441    
     14000   377.39519      0.07           0.21489592     0.21375133     0.21626603    -2121.5997      696.28628      696.28628      696.28628      3.3756975e+08  1.5837088     -26828934      -26828934       1123.8184     -26827810      -2120.8578     -2109.5616     -2134.3797      2.2399046     -10.880546     -8.5294053      3697.7684    
     14100   375.71348      0.0705         0.21298502     0.21188424     0.21432274    -2102.7782      696.61165      696.61165      696.61165      3.3804319e+08  1.5814907     -26774769      -26774769       1118.8106     -26773650      -2101.9987     -2091.1349     -2115.201       2.2415227     -10.806884     -7.2051736      5604.2336    
     14200   373.89653      0.071          0.21147174     0.21044301     0.21258559    -2087.3438      696.93702      696.93702      696.93702      3.3851709e+08  1.5792768     -26760878      -26760878       1113.4        -26759765      -2087.0638     -2076.911      -2098.0567      3.3372404     -11.119163     -4.9294427      6038.3192    
     14300   372.22146      0.0715         0.20998795     0.20906919     0.21094326    -2072.5402      697.26238      697.26238      697.26238      3.3899142e+08  1.5770669     -26730398      -26730398       1108.412      -26729290      -2072.4199     -2063.3525     -2081.8481      3.8771978     -10.333209     -4.0714923      5812.8149    
     14400   370.87421      0.072          0.20844306     0.20767846     0.20943306    -2057.9146      697.58775      697.58775      697.58775      3.394662e+08   1.5748613     -26697681      -26697681       1104.4001     -26696576      -2057.173      -2049.627      -2066.9436      2.91163       -8.747875      -4.6646978      5818.4977    
     14500   370.04356      0.0725         0.2070183      0.20612033     0.20809131    -2043.6876      697.91312      697.91312      697.91312      3.3994142e+08  1.5726597     -26684060      -26684060       1101.9265     -26682958      -2043.1118     -2034.2495     -2053.7015      1.3231947     -8.5946883     -5.4301719      6110.5321    
     14600   369.31641      0.073          0.20550847     0.20450046     0.20654899    -2028.3179      698.23849      698.23849      698.23849      3.4041709e+08  1.5704622     -26659963      -26659963       1099.7612     -26658863      -2028.2109     -2018.2626     -2038.4801      0.7203206     -8.6715202     -5.5635952      5828.0754    
     14700   368.00763      0.0735         0.20399022     0.20300499     0.20506487    -2013.5211      698.56385      698.56385      698.56385      3.4089319e+08  1.5682688     -26646512      -26646512       1095.8639     -26645416      -2013.2269     -2003.5035     -2023.8329      0.47259563    -7.9879852     -6.258425       6109.4577    
     14800   366.35878      0.074          0.20237983     0.20140629     0.20346564    -1997.703       698.88922      698.88922      698.88922      3.4136974e+08  1.5660795     -26613991      -26613991       1090.9539     -26612900      -1997.3336     -1987.7255     -2008.0498      0.95717789    -6.6989112     -6.9422252      5784.3109    
     14900   364.82844      0.0745         0.20094704     0.20010634     0.20228947    -1984.8437      699.21459      699.21459      699.21459      3.4184674e+08  1.5638943     -26600686      -26600686       1086.3968     -26599599      -1983.1931     -1974.8961     -1996.4419      1.6458864     -6.1612273     -7.2837666      6130.072     
     15000   363.50231      0.075          0.19946817     0.19872491     0.20106873    -1971.4181      699.53996      699.53996      699.53996      3.4232418e+08  1.5617131     -26572622      -26572622       1082.4478     -26571539      -1968.5977     -1961.2624     -1984.3941      2.4445325     -4.9062182     -7.0981287      2541.5745    
     15100   362.19914      0.0755         0.19832981     0.19744802     0.19993528    -1959.7438      699.86532      699.86532      699.86532      3.4280206e+08  1.559536      -26559472      -26559472       1078.5672     -26558394      -1957.3631     -1948.6605     -1973.2078      2.4806515     -3.721517      -5.6068545      4366.1363    
     15200   360.79429      0.076          0.19692286     0.19617889     0.19846733    -1946.1109      700.19069      700.19069      700.19069      3.4328039e+08  1.557363      -26510971      -26510971       1074.3838     -26509896      -1943.4775     -1936.1351     -1958.7202      1.8089143     -5.7101452     -4.051853       5777.7378    
     15300   359.59873      0.0765         0.19563789     0.19509433     0.19714913    -1933.9793      700.51606      700.51606      700.51606      3.4375916e+08  1.5551939     -26497970      -26497970       1070.8236     -26496900      -1930.7958     -1925.4314     -1945.7107      0.22068368    -7.3742776     -3.6260043      6153.5883    
     15400   358.66251      0.077          0.19394397     0.19376192     0.19560461    -1918.9424      700.84143      700.84143      700.84143      3.4423838e+08  1.5530289     -26452277      -26452277       1068.0357     -26451208      -1914.0782     -1912.2815     -1930.4674      0.70262312    -8.536807      -5.262946       5862.8352    
     15500   357.50769      0.0775         0.19252091     0.19252337     0.19426927    -1905.7934      701.16679      701.16679      701.16679      3.4471805e+08  1.5508679     -26422697      -26422697       1064.5969     -26421632      -1900.0337     -1900.0579     -1917.2886      2.0668294     -8.136746      -6.8930875      5861.8551    
     15600   355.90889      0.078          0.19136781     0.19127374     0.19323253    -1894.4784      701.49216      701.49216      701.49216      3.4519815e+08  1.548711      -26409908      -26409908       1059.8359     -26408848      -1888.6534     -1887.7251     -1907.0568      2.5457716     -7.1644076     -7.4334701      6016.2086    
     15700   354.60957      0.0785         0.19032395     0.19007078     0.19218446    -1883.6391      701.81753      701.81753      701.81753      3.4567871e+08  1.546558      -26389903      -26389903       1055.9667     -26388847      -1878.3513     -1875.8528     -1896.7131      2.7273827     -5.9599408     -6.3263126      5855.5017    
     15800   353.98869      0.079          0.18939384     0.18906415     0.19131376    -1874.4033      702.1429       702.1429       702.1429       3.4615971e+08  1.544409      -26377231      -26377231       1054.1179     -26376177      -1869.1719     -1865.9181     -1888.12        2.5786555     -4.7759906     -4.9714412      6096.4142    
     15900   353.3556       0.0795         0.18803195     0.18817245     0.19015949    -1863.1923      702.46826      702.46826      702.46826      3.4664115e+08  1.542264      -26337436      -26337436       1052.2326     -26336384      -1855.7311     -1857.1177     -1876.7283      2.7437412     -4.851954      -4.736785       5865.6926    
     16000   352.57652      0.08           0.18699125     0.18726569     0.18886696    -1852.5336      702.79363      702.79363      702.79363      3.4712305e+08  1.5401229     -26324887      -26324887       1049.9127     -26323837      -1845.4602     -1848.1686     -1863.972       2.7714443     -4.6129211     -4.9970268      2068.5154    
     16100   351.52756      0.0805         0.18571744     0.18631438     0.18764619    -1841.1975      703.119        703.119        703.119        3.4760539e+08  1.5379859     -26296884      -26296884       1046.789      -26295837      -1832.8886     -1838.78       -1851.924       3.0126273     -5.5508105     -4.1974496      3160.962     
     16200   349.94213      0.081          0.18468553     0.18542463     0.18664959    -1831.5972      703.44436      703.44436      703.44436      3.4808817e+08  1.5358527     -26284442      -26284442       1042.0679     -26283400      -1822.7045     -1829.9988     -1842.0882      2.6133961     -6.5294314     -2.8480904      6155.4189    
     16300   348.39945      0.0815         0.18350389     0.1842635      0.18568474    -1820.716       703.76973      703.76973      703.76973      3.485714e+08   1.5337235     -26249794      -26249794       1037.4741     -26248757      -1811.0426     -1818.5394     -1832.5659      1.5625797     -6.1844962     -1.6474768      5874.0484    
     16400   347.27673      0.082          0.18255612     0.18314575     0.18478465    -1810.9598      704.0951       704.0951       704.0951       3.4905508e+08  1.5315983     -26237458      -26237458       1034.1308     -26236424      -1801.6888     -1807.508      -1823.6827      1.3355079     -5.418406      -2.3787611      6172.9096    
     16500   346.49821      0.0825         0.18154982     0.1818508      0.183718      -1799.8804      704.42047      704.42047      704.42047      3.4953921e+08  1.529477      -26206470      -26206470       1031.8125     -26205439      -1791.7575     -1794.7279     -1813.1557      0.41863773    -5.8952483     -4.0446614      5882.3197    
     16600   346.19763      0.083          0.18060926     0.18076162     0.18276677    -1790.0737      704.74583      704.74583      704.74583      3.5002378e+08  1.5273596     -26171755      -26171755       1030.9174     -26170724      -1782.4748     -1783.9785     -1803.7678      0.53304774    -6.1376832     -6.0309574      5891.2498    
     16700   345.99873      0.0835         0.17995648     0.18024126     0.18220117    -1784.3537      705.0712       705.0712       705.0712       3.505088e+08   1.525246      -26159586      -26159586       1030.3251     -26158556      -1776.0324     -1778.8429     -1798.1858      1.6354639     -6.5843436     -5.9177137      6128.8754    
     16800   345.37637      0.084          0.17910695     0.17955921     0.18147302    -1776.9197      705.39657      705.39657      705.39657      3.5099427e+08  1.5231364     -26110247      -26110247       1028.4719     -26109219      -1767.6481     -1772.1117     -1790.9994      1.9756928     -5.0766909     -4.7646306      5893.8383    
     16900   344.48672      0.0845         0.17819056     0.17910195     0.18060301    -1769.5387      705.72194      705.72194      705.72194      3.5148019e+08  1.5210307     -26098141      -26098141       1025.8226     -26097115      -1758.6041     -1767.5988     -1782.4131      2.9721768     -3.4069893     -3.2189648      6187.9932    
     17000   343.55897      0.085          0.17709779     0.17806453     0.17954994    -1759.0666      706.0473       706.0473       706.0473       3.5196655e+08  1.5189289     -26070908      -26070908       1023.06       -26069885      -1747.8193     -1757.3603     -1772.0201      2.5198111     -3.1778334     -2.5031181      3677.2465    
     17100   342.70697      0.0855         0.17621084     0.17683922     0.17876511    -1749.5359      706.37267      706.37267      706.37267      3.5245337e+08  1.5168309     -26058909      -26058909       1020.5228     -26057888      -1739.0658     -1745.2675     -1764.2745      2.2901673     -3.466365      -2.829699       6179.2598    
     17200   342.15713      0.086          0.1753208      0.17556534     0.17792763    -1739.662       706.69804      706.69804      706.69804      3.5294063e+08  1.5147368     -26028246      -26028246       1018.8855     -26027227      -1730.2818     -1732.6952     -1756.0092      0.57078088    -4.6656175     -3.21911        5829.4551    
     17300   341.91634      0.0865         0.17470335     0.17489659     0.17721034    -1733.0711      707.02341      707.02341      707.02341      3.5342834e+08  1.5126466     -26016340      -26016340       1018.1685     -26015322      -1724.188      -1726.0951     -1748.9301      0.24173877    -6.6933616     -3.572561       6196.1712    
     17400   341.3527       0.087          0.17394123     0.17427864     0.17659172    -1726.4959      707.34877      707.34877      707.34877      3.539165e+08   1.5105601     -25984400      -25984400       1016.4901     -25983384      -1716.6665     -1719.9964     -1742.8248     -0.63495505    -7.3196658     -4.343439       5907.5696    
     17500   340.61977      0.0875         0.1731992      0.17377189     0.17590414    -1720.1258      707.67414      707.67414      707.67414      3.5440511e+08  1.5084776     -25972557      -25972557       1014.3075     -25971543      -1709.3432     -1714.9952     -1736.0389     -1.0942065     -6.7094104     -3.9905989      6201.3366    
     17600   333.42056      0.088          0.17275149     0.17311815     0.1749243     -1713.2789      707.99951      707.99951      707.99951      3.5489417e+08  1.5063988     -25995925      -25995925       992.86949     -25994932      -1704.9247     -1708.5433     -1726.3686      1.7113145     -1.3515676     -7.9053373      5848.0969    
     17700   333.53112      0.0885         0.17196746     0.17238265     0.17378444    -1704.5301      708.32488      708.32488      708.32488      3.5538368e+08  1.5043239     -25965489      -25965489       993.19871     -25964496      -1697.1869     -1701.2844     -1715.1191      1.5011013      1.1760325     -8.5959952      5858.666     
     17800   335.06038      0.089          0.17143092     0.17176967     0.17311241    -1698.5377      708.65024      708.65024      708.65024      3.5587364e+08  1.5022528     -25953751      -25953751       997.7526      -25952753      -1691.8916     -1695.2348     -1708.4866      1.9379143      2.164343      -9.0268868      6153.586     
     17900   335.52836      0.0895         0.17068204     0.17102787     0.17259012    -1691.9155      708.97561      708.97561      708.97561      3.5636405e+08  1.5001855     -25931823      -25931823       999.14616     -25930824      -1684.5007     -1687.9138     -1703.3321      2.6310246      2.2131109     -8.1925275      5808.7216    
     18000   335.44242      0.09           0.16991973     0.17034927     0.17218478    -1685.8419      709.30098      709.30098      709.30098      3.5685491e+08  1.4981219     -25920141      -25920141       998.89024     -25919142      -1676.9774     -1681.2166     -1699.3316      3.560047       0.61266624    -6.6311965      1357.6614    
     18100   335.25887      0.0905         0.16897654     0.16944823     0.1710451     -1676.0256      709.62635      709.62635      709.62635      3.5734622e+08  1.4960622     -25857001      -25857001       998.34368     -25856002      -1667.6688     -1672.324      -1688.0839      3.6335566     -1.7369487     -5.2206316      2974.7991    
     18200   335.41819      0.091          0.16837454     0.1687793      0.17028156    -1669.3327      709.95171      709.95171      709.95171      3.5783798e+08  1.4940062     -25845400      -25845400       998.81809     -25844401      -1661.7276     -1665.7221     -1680.5483      3.2346492     -2.1077854     -4.636229       6009.8624    
     18300   335.7766       0.0915         0.16790268     0.1681812      0.16956016    -1663.4396      710.27708      710.27708      710.27708      3.5833019e+08  1.491954      -25833512      -25833512       999.88538     -25832512      -1657.0706     -1659.8194     -1673.4287      2.3654098     -2.0060908     -5.5045299      5918.4037    
     18400   335.62531      0.092          0.16744855     0.16768951     0.16909394    -1658.7943      710.60245      710.60245      710.60245      3.5882286e+08  1.4899056     -25822002      -25822002       999.43485     -25821003      -1652.5887     -1654.9668     -1668.8274      1.7747495     -1.4217403     -7.1548179      6218.1696    
     18500   334.86937      0.0925         0.16682428     0.16707192     0.1684717     -1652.6619      710.92782      710.92782      710.92782      3.5931597e+08  1.4878609     -25788468      -25788468       997.1838      -25787471      -1646.4276     -1648.8716     -1662.6865      1.3021186     -1.9178842     -7.0851968      5927.5417    
     18600   334.38077      0.093          0.16622468     0.16647431     0.16789554    -1646.828       711.25318      711.25318      711.25318      3.5980954e+08  1.4858199     -25777000      -25777000       995.72884     -25776004      -1640.51       -1642.9737     -1657.0001      1.8542799     -2.7301445     -5.6974999      6158.9545    
     18700   334.33125      0.0935         0.16531867     0.16562057     0.16699066    -1638.062       711.57855      711.57855      711.57855      3.6030355e+08  1.4837827     -25735990      -25735990       995.58136     -25734995      -1631.5684     -1634.5479     -1648.0697      2.5493139     -3.2939222     -3.7340439      5935.6488    
     18800   334.22016      0.094          0.16450848     0.16516844     0.16638636    -1631.9213      711.90392      711.90392      711.90392      3.6079802e+08  1.4817492     -25724596      -25724596       995.25055     -25723600      -1623.5724     -1630.0857     -1642.1057      2.7845761     -2.3567582     -3.7267894      6226.9157    
     18900   333.85255      0.0945         0.16391449     0.16472922     0.16581615    -1626.6465      712.22929      712.22929      712.22929      3.6129294e+08  1.4797194     -25704992      -25704992       994.15588     -25703998      -1617.7102     -1625.751      -1636.4782      2.5345774     -2.3242724     -4.8412922      5941.0745    
     19000   333.64307      0.095          0.16342569     0.16427464     0.16502884    -1620.9529      712.55465      712.55465      712.55465      3.6178832e+08  1.4776933     -25677121      -25677121       993.53208     -25676127      -1612.8861     -1621.2647     -1628.708       1.6823578     -1.0705817     -5.7964481      3745.4446    
     19100   333.5913       0.0955         0.16310655     0.16359747     0.16440935    -1615.6374      712.88002      712.88002      712.88002      3.6228415e+08  1.4756709     -25665818      -25665818       993.37791     -25664824      -1609.7365     -1614.5815     -1622.5941      2.5942342     -0.12901781    -5.2351172      6218.3927    
     19200   333.44493      0.096          0.16240881     0.16227036     0.16365284    -1606.4874      713.20539      713.20539      713.20539      3.6278043e+08  1.4736522     -25598487      -25598487       992.94206     -25597494      -1602.8504     -1601.484      -1615.128       3.9666189     -2.1388923     -4.789103       5882.4291    
     19300   332.98744      0.0965         0.16197138     0.16159849     0.16333325    -1601.7867      713.53075      713.53075      713.53075      3.6327716e+08  1.4716372     -25587270      -25587270       991.57974     -25586278      -1598.5332     -1594.8531     -1611.9738      3.6703524     -3.4908775     -4.7351203      6240.5635    
     19400   332.18188      0.097          0.1613362      0.16100184     0.16283492    -1596.0949      713.85612      713.85612      713.85612      3.6377434e+08  1.4696258     -25543154      -25543154       989.1809      -25542165      -1592.2645     -1588.9646     -1607.0557      1.8667765     -4.785877      -4.4367054      5945.0159    
     19500   331.72362      0.0975         0.16064252     0.16060203     0.16226172    -1590.612       714.18149      714.18149      714.18149      3.6427198e+08  1.4676181     -25531977      -25531977       987.81629     -25530989      -1585.4184     -1585.0188     -1601.3987      1.4785734     -5.0135387     -3.772794       6245.1378    
     19600   331.8733       0.098          0.15983293     0.16008136     0.16154363    -1583.8734      714.50686      714.50686      714.50686      3.6477008e+08  1.4656141     -25518217      -25518217       988.26203     -25517229      -1577.4284     -1579.8802     -1594.3116      2.4489718     -4.2583843     -4.8387826      5944.1741    
     19700   331.88276      0.0985         0.15931759     0.15970564     0.16098135    -1579.0923      714.83222      714.83222      714.83222      3.6526862e+08  1.4636137     -25507100      -25507100       988.29017     -25506112      -1572.3423     -1576.1721     -1588.7624      3.4784735     -3.7742877     -6.1966892      6241.6432    
     19800   331.77197      0.099          0.15905887     0.15936055     0.16056734    -1575.7439      715.15759      715.15759      715.15759      3.6576762e+08  1.461617      -25495373      -25495373       987.96027     -25494385      -1569.789      -1572.7663     -1584.6765      3.6844159     -3.4216652     -5.7788376      5890.3104    
     19900   331.92119      0.0995         0.15865551     0.15902088     0.16011376    -1571.8074      715.48296      715.48296      715.48296      3.6626708e+08  1.4596239     -25484291      -25484291       988.40462     -25483303      -1565.8082     -1569.4141     -1580.2         3.7756085     -3.2253024     -5.0329419      6238.7173    
     20000   332.19159      0.1            0.15790229     0.15848342     0.15936102    -1565.0851      715.80833      715.80833      715.80833      3.6676699e+08  1.4576344     -25447383      -25447383       989.20983     -25446393      -1558.3745     -1564.1098     -1572.771       3.3762848     -3.6202796     -4.9287856      2495.4113    
     20100   332.18205      0.1005         0.15717763     0.15789124     0.15870246    -1558.5865      716.13369      716.13369      716.13369      3.6726735e+08  1.4556485     -25417170      -25417170       989.18142     -25416181      -1551.2226     -1558.2654     -1566.2715      3.3524435     -3.0786357     -3.7278801      4805.1361    
     20200   331.57804      0.101          0.15673299     0.15713979     0.15823649    -1553.1187      716.45906      716.45906      716.45906      3.6776817e+08  1.4536662     -25406194      -25406194       987.38278     -25405207      -1546.8343     -1550.8492     -1561.6727      2.4060195     -2.8801374     -3.6512759      6198.484     
     20300   330.7937       0.1015         0.15618269     0.1564096      0.15757825    -1546.7408      716.78443      716.78443      716.78443      3.6826944e+08  1.4516875     -25372651      -25372651       985.04714     -25371666      -1541.4033     -1543.6428     -1555.1765      0.98467908    -2.2394696     -4.0220803      5952.9787    
     20400   330.15407      0.102          0.15574714     0.15591067     0.15715381    -1542.2703      717.1098       717.1098       717.1098       3.6877117e+08  1.4497125     -25361726      -25361726       983.14246     -25360743      -1537.1048     -1538.7187     -1550.9875      0.83191967    -1.8125264     -3.8089626      6273.0708    
     20500   330.14295      0.1025         0.15522607     0.15543659     0.15660919    -1537.2049      717.43516      717.43516      717.43516      3.6927336e+08  1.447741      -25339721      -25339721       983.10932     -25338738      -1531.9622     -1534.0398     -1545.6126      1.7437518     -1.3236601     -3.9378833      5965.2496    
     20600   330.69969      0.103          0.15486621     0.1551755      0.15601537    -1533.2086      717.76053      717.76053      717.76053      3.69776e+08    1.445773      -25328833      -25328833       984.76722     -25327849      -1528.4107     -1531.4632     -1539.752       2.2946217     -1.0367774     -4.2544553      6266.3768    
     20700   330.86151      0.1035         0.15431158     0.15479243     0.15545919    -1528.2941      718.0859       718.0859       718.0859       3.702791e+08   1.4438087     -25302741      -25302741       985.24909     -25301756      -1522.9369     -1527.6825     -1534.2629      2.2654833     -1.4362033     -4.379973       5963.7643    
     20800   330.75895      0.104          0.15359954     0.15435647     0.15508956    -1523.3015      718.41127      718.41127      718.41127      3.7078265e+08  1.4418479     -25291906      -25291906       984.94367     -25290921      -1515.9096     -1523.3799     -1530.6149      2.20891       -1.8423693     -4.2666913      6213.2938    
     20900   330.95327      0.1045         0.15276487     0.15370638     0.15441796    -1516.2076      718.73663      718.73663      718.73663      3.7128666e+08  1.4398906     -25250041      -25250041       985.52232     -25249056      -1507.6721     -1516.964      -1523.9867      2.7297613     -1.6025834     -3.5421026      5976.1904    
     21000   331.10388      0.105          0.15234193     0.15330253     0.15411537    -1512.4922      719.062        719.062        719.062        3.7179112e+08  1.4379369     -25239278      -25239278       985.97082     -25238292      -1503.4979     -1512.9784     -1521.0004      3.2224346     -1.8591256     -2.751798       1878.7648    
     21100   330.37108      0.1055         0.15190305     0.1526553      0.15358901    -1507.1876      719.38737      719.38737      719.38737      3.7229605e+08  1.4359867     -25184519      -25184519       983.78867     -25183535      -1499.1665     -1506.5907     -1515.8057      2.3137885     -2.3419577     -3.9308262      3396.0402    
     21200   329.80038      0.106          0.15165425     0.1520623      0.15303055    -1502.5811      719.71274      719.71274      719.71274      3.7280142e+08  1.43404       -25156921      -25156921       982.08923     -25155939      -1496.7111     -1500.7382     -1510.2941      3.1092463     -1.6952657     -5.4444212      5911.5162    
     21300   329.58097      0.1065         0.15128444     0.15162325     0.15251206    -1498.2145      720.0381       720.0381       720.0381       3.7330726e+08  1.4320969     -25146217      -25146217       981.43585     -25145236      -1493.0613     -1496.4052     -1505.177       2.628471      -1.1904322     -5.3762227      6297.0734    
     21400   329.38689      0.107          0.15070701     0.15100001     0.15183176    -1492.0266      720.36347      720.36347      720.36347      3.7381356e+08  1.4301573     -25112179      -25112179       980.85792     -25111198      -1487.3626     -1490.2543     -1498.4629      1.6626427     -1.3260959     -5.5816075      5991.722     
     21500   329.23907      0.1075         0.1502942      0.15049668     0.15134847    -1487.4228      720.68884      720.68884      720.68884      3.7432031e+08  1.4282211     -25101532      -25101532       980.41772     -25100551      -1483.2884     -1485.2868     -1493.6933      1.0966792     -1.7603729     -4.3855262      6305.4835    
     21600   329.35921      0.108          0.14969682     0.14984621     0.15079803    -1481.5069      721.01421      721.01421      721.01421      3.7482752e+08  1.4262885     -25070705      -25070705       980.77549     -25069724      -1477.3927     -1478.8671     -1488.2608      1.9203657     -2.0607056     -4.4089626      5996.3542    
     21700   329.69823      0.1085         0.149152       0.14943797     0.15023533    -1476.5204      721.33957      721.33957      721.33957      3.7533518e+08  1.4243593     -25060117      -25060117       981.78502     -25059135      -1472.0158     -1474.8381     -1482.7074      2.4230251     -1.6822651     -5.2089006      6257.9723    
     21800   330.02822      0.109          0.14865954     0.14905018     0.14973334    -1471.9732      721.66494      721.66494      721.66494      3.7584331e+08  1.4224336     -25041993      -25041993       982.7677      -25041010      -1467.1556     -1471.011      -1477.7531      3.6382888     -0.96698779    -5.8327307      6003.8544    
     21900   329.77615      0.1095         0.14845967     0.14872722     0.14949829    -1469.48        721.99031      721.99031      721.99031      3.7635189e+08  1.4205114     -25031446      -25031446       982.01707     -25030464      -1465.183      -1467.8235     -1475.4334      4.1786588     -0.61934148    -6.0525725      6307.157     
[...]
    244700   312.21824      1.2235         0.0001214491   0.00012984855  0.0001411175  -1.2909455      1446.9089      1446.9089      1446.9089      3.0291696e+09  0.17648803    -142371.21     -142371.21      929.73259     -141441.48     -1.1986095     -1.2815055     -1.3927215     -0.10244425     0.080543322   -0.032740708    27082.238    
    244800   312.64073      1.224          0.00012167811  0.00012770421  0.00014228626 -1.2884895      1447.2343      1447.2343      1447.2343      3.0312135e+09  0.17636902    -142405.84     -142405.84      930.9907      -141474.85     -1.2008696     -1.2603426     -1.4042562     -0.093033418    0.078943563   -0.040443561    25039.186    
    244900   312.42092      1.2245         0.00012102528  0.00012710748  0.00014153715 -1.2819143      1447.5597      1447.5597      1447.5597      3.0332584e+09  0.17625012    -142439.7      -142439.7       930.33614     -141509.36     -1.1944267     -1.2544533     -1.396863      -0.075029547    0.073768671   -0.044357968    27096.467    
    245000   312.06936      1.225          0.00012017026  0.00012818923  0.00014150438 -1.2825524      1447.885       1447.885       1447.885       3.0353042e+09  0.17613133    -142473.48     -142473.48      929.28928     -141544.19     -1.1859882     -1.2651294     -1.3965396     -0.067715586    0.063327352   -0.04454973     7921.0029    
    245100   311.85414      1.2255         0.00011893874  0.00012954432  0.00014181103 -1.2839677      1448.2104      1448.2104      1448.2104      3.037351e+09   0.17601264    -142507.38     -142507.38      928.64837     -141578.73     -1.1738341     -1.278503      -1.399566      -0.074551132    0.064777238   -0.044230219    26982.579    
    245200   311.70233      1.226          0.00011868212  0.00012980421  0.00014250454 -1.28626        1448.5358      1448.5358      1448.5358      3.0393986e+09  0.17589406    -142540.81     -142540.81      928.19632     -141612.61     -1.1713015     -1.281068      -1.4064105     -0.088818948    0.077409404   -0.045036525    24704.509    
    245300   311.77173      1.2265         0.00011986658  0.00012902804  0.00014347999 -1.2908121      1448.8611      1448.8611      1448.8611      3.0414472e+09  0.17577559    -142574.55     -142574.55      928.40298     -141646.14     -1.1829912     -1.2734078     -1.4160374     -0.096919465    0.083656238   -0.04691479     27067.958    
    245400   311.72837      1.227          0.00012033019  0.00012798328  0.00014095765 -1.2806024      1449.1865      1449.1865      1449.1865      3.0434967e+09  0.17565722    -142608.38     -142608.38      928.27384     -141680.1      -1.1875667     -1.2630968     -1.3911438     -0.094260276    0.095619838   -0.049066995    24102.658    
    245500   311.39254      1.2275         0.00012084916  0.00012796089  0.00013835722 -1.2736813      1449.5119      1449.5119      1449.5119      3.0455471e+09  0.17553896    -142641.44     -142641.44      927.27382     -141714.17     -1.1926885     -1.2628758     -1.3654796     -0.081003293    0.095677748   -0.048723861    25084.113    
    245600   311.38873      1.228          0.00012184908  0.00012929607  0.00013820394 -1.2808589      1449.8372      1449.8372      1449.8372      3.0475984e+09  0.1754208     -142674.78     -142674.78      927.26248     -141747.52     -1.2025569     -1.276053      -1.3639668     -0.061097075    0.075482067   -0.049982795    27060.055    
    245700   311.61896      1.2285         0.00012174327  0.00012982801  0.0001379652  -1.2814754      1450.1626      1450.1626      1450.1626      3.0496507e+09  0.17530275    -142708.38     -142708.38      927.94805     -141780.44     -1.2015127     -1.2813028     -1.3616107     -0.062900065    0.063231406   -0.056513034    24987.113    
    245800   311.53704      1.229          0.00012126662  0.0001301298   0.00013731257 -1.2787531      1450.488       1450.488       1450.488       3.0517039e+09  0.17518481    -142741.07     -142741.07      927.70411     -141813.36     -1.1968085     -1.2842812     -1.3551697     -0.079820657    0.068933243   -0.067253745    27113.99     
    245900   311.51916      1.2295         0.00012166383  0.00013123032  0.00013835679 -1.2871155      1450.8133      1450.8133      1450.8133      3.053758e+09   0.17506697    -142773.95     -142773.95      927.65086     -141846.3      -1.2007286     -1.2951425     -1.3654753     -0.085881421    0.080484881   -0.074814709    25023.14     
    246000   311.83058      1.23           0.00012112925  0.000132139    0.00014041502 -1.2951173      1451.1387      1451.1387      1451.1387      3.055813e+09   0.17494924    -142808.01     -142808.01      928.57823     -141879.43     -1.1954527     -1.3041105     -1.3857885     -0.084601108    0.094375883   -0.075324628    4785.4677    
    246100   312.00622      1.2305         0.0001186636   0.00013112846  0.00014221343 -1.2895978      1451.4641      1451.4641      1451.4641      3.0578689e+09  0.17483162    -142841.98     -142841.98      929.10126     -141912.88     -1.1711187     -1.2941373     -1.4035375     -0.088545398    0.10148591    -0.0721359      16963.281    
    246200   311.7648       1.231          0.00011642407  0.00013021577  0.00014348475 -1.2834101      1451.7894      1451.7894      1451.7894      3.0599258e+09  0.1747141     -142874.65     -142874.65      928.38234     -141946.27     -1.1490162     -1.2851297     -1.4160844     -0.095631761    0.09882244    -0.068723096    17079.863    
    246300   311.58035      1.2315         0.00011604846  0.00013217233  0.00014327912 -1.2879345      1452.1148      1452.1148      1452.1148      3.0619836e+09  0.17459668    -142907.33     -142907.33      927.83308     -141979.5      -1.1453092     -1.3044395     -1.4140549     -0.095775393    0.097895636   -0.07008762     20822.154    
    246400   311.73124      1.232          0.00011724934  0.00013468902  0.00014195696 -1.2958148      1452.4402      1452.4402      1452.4402      3.0640423e+09  0.17447937    -142940.99     -142940.99      928.28241     -142012.71     -1.157161      -1.3292773     -1.4010062     -0.096236399    0.099418981   -0.076100577    25317.891    
    246500   311.93946      1.2325         0.00011835985  0.00013470996  0.00014111656 -1.2967723      1452.7655      1452.7655      1452.7655      3.0661019e+09  0.17436216    -142975.02     -142975.02      928.90246     -142046.12     -1.1681209     -1.3294839     -1.3927121     -0.1023389      0.094694043   -0.081426995    23830.767    
    246600   312.01447      1.233          0.00011888149  0.00013442803  0.00014035476 -1.2950548      1453.0909      1453.0909      1453.0909      3.0681625e+09  0.17424506    -143008.88     -143008.88      929.12581     -142079.76     -1.1732691     -1.3267015     -1.3851938     -0.095258405    0.091791846   -0.084364958    25119.853    
    246700   311.8908       1.2335         0.00011913635  0.00013369132  0.00013898242 -1.288955       1453.4163      1453.4163      1453.4163      3.0702239e+09  0.17412807    -143042.53     -143042.53      928.75754     -142113.77     -1.1757844     -1.3194308     -1.3716498     -0.082554078    0.10126855    -0.081532092    27098.538    
    246800   311.62118      1.234          0.00011981854  0.00013382631  0.00013762293 -1.2871709      1453.7416      1453.7416      1453.7416      3.0722863e+09  0.17401118    -143075.58     -143075.58      927.95466     -142147.62     -1.1825171     -1.320763      -1.3582327     -0.074278687    0.12005693    -0.074734437    25044.121    
    246900   311.65494      1.2345         0.0001211578   0.00013535026  0.00013832397 -1.2988964      1454.067       1454.067       1454.067       3.0743497e+09  0.17389439    -143108.87     -143108.87      928.0552      -142180.81     -1.1957345     -1.3358032     -1.3651515     -0.07677877     0.13367768    -0.070871956    27214.713    
    247000   311.93432      1.235          0.00012159325  0.00013594883  0.00013960193 -1.3065022      1454.3924      1454.3924      1454.3924      3.0764139e+09  0.17377771    -143142.76     -143142.76      928.88713     -142213.87     -1.2000321     -1.3417106     -1.377764      -0.092917913    0.14397417    -0.075847552    7964.5545    
    247100   312.27547      1.2355         0.0001218748   0.00013800246  0.00013998877 -1.315457       1454.7177      1454.7177      1454.7177      3.0784791e+09  0.17366113    -143177.02     -143177.02      929.90304     -142247.12     -1.2028108     -1.3619784     -1.3815817     -0.091798178    0.15133561    -0.088325695    25501.565    
    247200   312.62861      1.236          0.0001221443   0.00013733331  0.00013979938 -1.3135192      1455.0431      1455.0431      1455.0431      3.0805452e+09  0.17354466    -143212.22     -143212.22      930.95461     -142281.26     -1.2054705     -1.3553744     -1.3797126     -0.078472171    0.14942096    -0.1011005      23872.752    
    247300   312.29692      1.2365         0.0001216202   0.00013293405  0.00013914956 -1.2951848      1455.3685      1455.3685      1455.3685      3.0826122e+09  0.17342829    -143246.28     -143246.28      929.9669      -142316.31     -1.2002981     -1.3119571     -1.3732993     -0.074806018    0.13845776    -0.10725468     26184.906    
    247400   311.59575      1.237          0.00012170374  0.00013341593  0.00013866134 -1.2954388      1455.6938      1455.6938      1455.6938      3.0846801e+09  0.17331203    -143278.73     -143278.73      927.87894     -142350.85     -1.2011225     -1.3167129     -1.368481      -0.066811206    0.12572863    -0.1038624      25009.216    
    247500   311.71839      1.2375         0.00012260615  0.00013961525  0.00013838333 -1.3178871      1456.0192      1456.0192      1456.0192      3.086749e+09   0.17319587    -143312.6      -143312.6       928.24415     -142384.35     -1.2100286     -1.3778954     -1.3657373     -0.056021592    0.122268      -0.097011532    27089.773    
    247600   312.44891      1.238          0.0001231835   0.00014174485  0.00013870732 -1.3278581      1456.3446      1456.3446      1456.3446      3.0888188e+09  0.17307981    -143348.43     -143348.43      930.41951     -142418.01     -1.2157266     -1.3989129     -1.3689348     -0.066376311    0.12984055    -0.092506702    24972.081    
    247700   312.843        1.2385         0.00012373666  0.00013938078  0.00013957106 -1.3247422      1456.6699      1456.6699      1456.6699      3.0908895e+09  0.17296386    -143384.32     -143384.32      931.59304     -142452.73     -1.2211859     -1.3755813     -1.3774592     -0.078243397    0.13796289    -0.092828746    24990.397    
    247800   312.97835      1.239          0.0001241236   0.00013749637  0.00014011497 -1.3216052      1456.9953      1456.9953      1456.9953      3.0929611e+09  0.17284801    -143420.73     -143420.73      931.99607     -142488.73     -1.2250047     -1.3569837     -1.3828273     -0.076948673    0.14107765    -0.096218548    27079.972    
    247900   312.75408      1.2395         0.00012178211  0.00013501559  0.00013983306 -1.3048137      1457.3207      1457.3207      1457.3207      3.0950337e+09  0.17273226    -143457.05     -143457.05      931.32824     -142525.72     -1.2018959     -1.3325003     -1.380045      -0.07245256     0.13778674    -0.099754403    25039.331    
    248000   312.00438      1.24           0.00011873469  0.00013372787  0.00013889227 -1.2874573      1457.646       1457.646       1457.646       3.0971072e+09  0.17261662    -143491.45     -143491.45      929.09577     -142562.35     -1.1718203     -1.3197915     -1.3707601     -0.061971402    0.13100687    -0.10462718     8138.9441    
    248100   311.46282      1.2405         0.00011890533  0.00013432647  0.00013815605 -1.2875659      1457.9714      1457.9714      1457.9714      3.0991816e+09  0.17250108    -143525.16     -143525.16      927.4831      -142597.67     -1.1735044     -1.3256992     -1.3634942     -0.050810017    0.12789087    -0.11099214     24648.464    
    248200   311.44543      1.241          0.00012205715  0.00013352238  0.00013955574 -1.299894       1458.2968      1458.2968      1458.2968      3.101257e+09   0.17238564    -143559.4      -143559.4       927.4313      -142631.97     -1.2046104     -1.3177634     -1.3773081     -0.066838448    0.13487453    -0.10886847     27057.346    
    248300   311.87653      1.2415         0.00012574275  0.00013433106  0.00014299404 -1.3259901      1458.6221      1458.6221      1458.6221      3.1033332e+09  0.17227031    -143594.5      -143594.5       928.71504     -142665.79     -1.2409845     -1.3257445     -1.4112415     -0.085857352    0.14768426    -0.097143851    25062.845    
    248400   313.08545      1.242          0.00012674714  0.00013794598  0.00014593435 -1.3508594      1458.9475      1458.9475      1458.9475      3.1054104e+09  0.17215508    -143632.33     -143632.33      932.31502     -142700.02     -1.250897      -1.361421      -1.4402601     -0.072266701    0.1536249     -0.083972458    27066.53     
    248500   313.82137      1.2425         0.00012513277  0.00013598817  0.0001459946  -1.339306       1459.2729      1459.2729      1459.2729      3.1074886e+09  0.17203995    -143670.93     -143670.93      934.50646     -142736.42     -1.2349644     -1.3420989     -1.4408547     -0.073815205    0.14004967    -0.079142437    25090.829    
    248600   313.33524      1.243          0.00012389144  0.00013452283  0.00014338129 -1.3218046      1459.5983      1459.5983      1459.5983      3.1095676e+09  0.17192492    -143707.44     -143707.44      933.05883     -142774.38     -1.2227134     -1.3276371     -1.4150633     -0.068153681    0.11695587    -0.089425966    26954.098    
    248700   312.71836      1.2435         0.00012362064  0.00013500541  0.0001410402  -1.3147997      1459.9236      1459.9236      1459.9236      3.1116476e+09  0.17181       -143743.43     -143743.43      931.22188     -142812.2      -1.2200408     -1.3323998     -1.3919585     -0.057304809    0.10497982    -0.099849852    25032.812    
    248800   312.33938      1.244          0.00012432941  0.00013654524  0.00014093779 -1.3218601      1460.249       1460.249       1460.249       3.1137285e+09  0.17169518    -143779.3      -143779.3       930.09333     -142849.21     -1.2270359     -1.3475967     -1.3909478     -0.066792462    0.10920695    -0.099255479    25035.707    
    248900   312.86802      1.2445         0.00012628435  0.00014174703  0.00014286193 -1.3517339      1460.5744      1460.5744      1460.5744      3.1158103e+09  0.17158046    -143817.58     -143817.58      931.66755     -142885.91     -1.2463297     -1.3989344     -1.4099376     -0.075695389    0.12287463    -0.086713034    27064.823    
    249000   313.77543      1.245          0.00012707988  0.00014270723  0.00014394792 -1.3610824      1460.8997      1460.8997      1460.8997      3.1178931e+09  0.17146584    -143858.22     -143858.22      934.36966     -142923.85     -1.2541809     -1.4084108     -1.4206555     -0.083645064    0.12975088    -0.072438953    7591.1117    
    249100   314.04226      1.2455         0.00012663006  0.00014045208  0.00014301523 -1.3491154      1461.2251      1461.2251      1461.2251      3.1199768e+09  0.17135133    -143898.21     -143898.21      935.16423     -142963.04     -1.2497415     -1.3861543     -1.4114505     -0.075973378    0.12915124    -0.066674199    27074.979    
    249200   313.45624      1.246          0.00012507021  0.00013715615  0.00014128553 -1.3274509      1461.5505      1461.5505      1461.5505      3.1220614e+09  0.17123692    -143936.17     -143936.17      933.41915     -143002.75     -1.234347      -1.3536259     -1.3943797     -0.068149262    0.12672139    -0.06723769     24751.213    
    249300   312.70751      1.2465         0.00012417722  0.00013780855  0.00014062453 -1.3244849      1461.8758      1461.8758      1461.8758      3.1241469e+09  0.17112261    -143973.42     -143973.42      931.18956     -143042.23     -1.2255338     -1.3600647     -1.3878562     -0.064679195    0.12707933    -0.067626164    25974.39     
    249400   312.44654      1.247          0.00012458183  0.00013828753  0.00014209935 -1.3322435      1462.2012      1462.2012      1462.2012      3.1262334e+09  0.1710084     -144011.88     -144011.88      930.41244     -143081.47     -1.2295271     -1.3647919     -1.4024115     -0.083773262    0.13429458    -0.063656617    25016.267    
    249500   312.66661      1.2475         0.00012681099  0.00013954545  0.00014446183 -1.351487       1462.5266      1462.5266      1462.5266      3.1283208e+09  0.17089429    -144050.95     -144050.95      931.06778     -143119.88     -1.2515272     -1.3772066     -1.4257274     -0.097100405    0.14687191    -0.059100809    27055.318    
    249600   313.24287      1.248          0.00012930163  0.00013934325  0.00014555703 -1.3626183      1462.8519      1462.8519      1462.8519      3.1304091e+09  0.17078029    -144090.41     -144090.41      932.78379     -143157.63     -1.2761078     -1.375211      -1.4365362     -0.10547972     0.15501286    -0.053712523    25076.452    
    249700   313.4812       1.2485         0.00013105917  0.00014006398  0.0001452919  -1.369899       1463.1773      1463.1773      1463.1773      3.1324984e+09  0.17066638    -144129.27     -144129.27      933.4935      -143195.78     -1.2934534     -1.382324      -1.4339196     -0.10916771     0.15789806    -0.055202282    27096.078    
    249800   313.58215      1.249          0.00013137432  0.00014124146  0.00014568063 -1.3760882      1463.5027      1463.5027      1463.5027      3.1345886e+09  0.17055258    -144169.02     -144169.02      933.79409     -143235.22     -1.2965637     -1.3939449     -1.4377561     -0.11274442     0.16064475    -0.069782211    25101.195    
    249900   313.63962      1.2495         0.00013114501  0.00014223776  0.00014767938 -1.3851868      1463.828       1463.828       1463.828       3.1366797e+09  0.17043888    -144209.03     -144209.03      933.96523     -143275.06     -1.2943006     -1.4037775     -1.4574822     -0.10681267     0.16520416    -0.08567175     25047.848    
    250000   313.7569       1.25           0.00013036092  0.00013881826  0.00014885083 -1.3752118      1464.1534      1464.1534      1464.1534      3.1387718e+09  0.17032528    -144248.86     -144248.86      934.31446     -143314.55     -1.2865623     -1.3700297     -1.4690435     -0.10432148     0.16624263    -0.090582387    8183.6014    
Loop time of 24.4183 on 1 procs for 250000 steps with 1000 atoms

Performance: 884.582 ns/day, 0.027 hours/ns, 10238.212 timesteps/s
89.1% CPU use with 1 MPI tasks x 1 OpenMP threads

MPI task timing breakdown:
Section |  min time  |  avg time  |  max time  |%varavg| %total
---------------------------------------------------------------
Pair    | 11.408     | 11.408     | 11.408     |   0.0 | 46.72
Neigh   | 0.66827    | 0.66827    | 0.66827    |   0.0 |  2.74
Comm    | 0.95894    | 0.95894    | 0.95894    |   0.0 |  3.93
Output  | 3.8452     | 3.8452     | 3.8452     |   0.0 | 15.75
Modify  | 6.5833     | 6.5833     | 6.5833     |   0.0 | 26.96
Other   |            | 0.9543     |            |       |  3.91

Nlocal:           1000 ave        1000 max        1000 min
Histogram: 1 0 0 0 0 0 0 0 0 0
Nghost:            508 ave         508 max         508 min
Histogram: 1 0 0 0 0 0 0 0 0 0
Neighs:             95 ave          95 max          95 min
Histogram: 1 0 0 0 0 0 0 0 0 0

Total # of neighbors = 95
Ave neighs/atom = 0.095
Neighbor list builds = 1363
Dangerous builds = 0

# restart file
write_restart ./tensile/restart/restart_${usic}_${trial}.tensile.restart
write_restart ./tensile/restart/restart_1_${trial}.tensile.restart
write_restart ./tensile/restart/restart_1_1.tensile.restart
System init for write_restart ...
Generated 0 of 1 mixed pair_coeff terms from geometric mixing rule
Total wall time: 0:00:24
