LAMMPS (23 Jun 2022 - Update 1)
OMP_NUM_THREADS environment is not set. Defaulting to 1 thread. (src/comm.cpp:98)
  using 1 OpenMP thread(s) per MPI task
###

# Read restart info
read_restart ${read_res}
read_restart ./10000/equpmf71.res
Reading restart file ...
  restart file = 23 Jun 2022, LAMMPS = 23 Jun 2022
WARNING: Restart file used different # of processors: 4 vs. 1 (src/read_restart.cpp:654)
  restoring atom style atomic from restart
  orthogonal box = (2258.0531 2258.0531 2258.0531) to (2741.9469 2741.9469 2741.9469)
  1 by 1 by 1 MPI processor grid
  restoring pair style table from restart
  1000 atoms
  read_restart CPU = 0.038 seconds

# Settings
pair_style table/pgn spline 9941
pair_coeff 1 1 N20.txt DE_GNP 147.89 75.6
pair_coeff 2 2 N100.txt DE_GNP 473.9 115.92
WARNING: 3 of 9941 force values in table DE_GNP are inconsistent with -dE/dr.
WARNING:  Should only be flagged at inflection points (src/pair_table_pgn.cpp:478)
pair_coeff 1 2 mixed_potential.txt DE_GNP 391.2 95.66
WARNING: 1562 of 9941 force values in table DE_GNP are inconsistent with -dE/dr.
WARNING:  Should only be flagged at inflection points (src/pair_table_pgn.cpp:478)

# Neighbor list
neighbor 2.0 bin
neigh_modify delay 0 every 1 check yes

# Temperature
variable T equal ${Temp}
variable T equal 300

# Deformation
reset_timestep 0
variable tmp equal "lx"
variable L0 equal ${tmp}
variable L0 equal 483.893836390007
variable strain equal "(lx - v_L0)/v_L0"
variable stp equal "step"
variable tmpe equal "temp"
variable p1 equal "v_strain"
variable p2 equal "-pxx*1.01325/10000"
variable p3 equal "-pyy*1.01325/10000"
variable p4 equal "-pzz*1.01325/10000"
variable p5 equal "lx"
variable p6 equal "ly"
variable p7 equal "lz"
variable p8 equal "press"
variable p9 equal "epair"
variable p10 equal "etotal"

# Thermo
thermo_style custom step temp v_p1 v_p2 v_p3 v_p4 press lx ly lz vol density epair pe ke etotal pxx pyy pzz pxy pxz pyz spcpu
thermo ${ts_save}
thermo 100

# Dump
dump 1 all custom 1000 ./tensile/trajectory/trajectory_${usic}_${trial}_*.tensile.custom id type x y z ix iy iz
dump 1 all custom 1000 ./tensile/trajectory/trajectory_1_${trial}_*.tensile.custom id type x y z ix iy iz
dump 1 all custom 1000 ./tensile/trajectory/trajectory_1_1_*.tensile.custom id type x y z ix iy iz
dump_modify 1 sort id
dump 2 all cfg 1000 ./tensile/trajectory/ovito/dumpten.tens_*.cfg mass type xs ys zs fx fy fz
dump_modify 2 element N20 N100

fix 1 all nvt temp ${T} ${T} 100
fix 1 all nvt temp 300 ${T} 100
fix 1 all nvt temp 300 300 100
fix 2 all deform 1 x erate ${strain_rate} y erate ${strain_rate} z erate ${strain_rate} units box
fix 2 all deform 1 x erate 5e-6 y erate ${strain_rate} z erate ${strain_rate} units box
fix 2 all deform 1 x erate 5e-6 y erate 5e-6 z erate ${strain_rate} units box
fix 2 all deform 1 x erate 5e-6 y erate 5e-6 z erate 5e-6 units box
fix             def1 all print ${ts_save} "${p1} ${p2} ${p3} ${p4}" file tensile${N20}${N100}_${usic}_${trial}.txt screen no
fix             def1 all print 100 "${p1} ${p2} ${p3} ${p4}" file tensile${N20}${N100}_${usic}_${trial}.txt screen no
fix             def1 all print 100 "${p1} ${p2} ${p3} ${p4}" file tensile1000${N100}_${usic}_${trial}.txt screen no
fix             def1 all print 100 "${p1} ${p2} ${p3} ${p4}" file tensile10000_${usic}_${trial}.txt screen no
fix             def1 all print 100 "${p1} ${p2} ${p3} ${p4}" file tensile10000_1_${trial}.txt screen no
fix             def1 all print 100 "${p1} ${p2} ${p3} ${p4}" file tensile10000_1_1.txt screen no

timestep       		${ts}
timestep       		1
run				${steps_tensile}
run				250000
Generated 0 of 1 mixed pair_coeff terms from geometric mixing rule
Unused restart file global fix info:
  fix style: npt, fix ID: 5
Neighbor list info ...
  update every 1 steps, delay 0 steps, check yes
  max neighbors/atom: 2000, page size: 100000
  master list distance cutoff = 117.92
  ghost atom cutoff = 117.92
  binsize = 58.96, bins = 9 9 9
  1 neighbor lists, perpetual/occasional/extra = 1 0 0
  (1) pair table/pgn, perpetual
      attributes: half, newton on
      pair build: half/bin/atomonly/newton
      stencil: half/bin/3d
      bin: standard
Per MPI rank memory allocation (min/avg/max) = 5.851 | 5.851 | 5.851 Mbytes
   Step          Temp           v_p1           v_p2           v_p3           v_p4          Press            Lx             Ly             Lz           Volume        Density         E_pair         PotEng         KinEng         TotEng          Pxx            Pyy            Pzz            Pxy            Pxz            Pyz           S/CPU     
         0   304.60471      0              0.032839175    0.11446317     0.026130225   -570.5488       483.89384      483.89384      483.89384      1.1330531e+08  3.2513235     -6744392.5     -6744392.5      907.06082     -6743485.4     -324.09746     -1129.6637     -257.88527      8.7202611      24.046928      341.40586      0            
       100   299.85638      0.0005         0.048631896    0.1311303      0.043516019   -734.52823      484.13578      484.13578      484.13578      1.1347535e+08  3.2464514     -6742769.9     -6742769.9      892.9211      -6741876.9     -479.9595      -1294.1555     -429.46971      1.5978172      26.309996      335.3069       3042.9293    
       200   289.65923      0.001          0.062548257    0.14365571     0.058193287   -869.79934      484.37773      484.37773      484.37773      1.1364557e+08  3.241589      -6740766.2     -6740766.2      862.55573     -6739903.7     -617.3033      -1417.7716     -574.32309      0.19889001     29.386321      330.82691      4865.0733    
       300   286.61715      0.0015         0.075579156    0.1547719      0.070395376   -989.37883      484.61968      484.61968      484.61968      1.1381595e+08  3.2367363     -6738125.8     -6738125.8      853.49692     -6737272.3     -745.90828     -1527.4799     -694.74835      7.4872166      26.409839      328.94489      4652.1793    
       400   309.22847      0.002          0.08929582     0.16697229     0.082840364   -1115.5801      484.86162      484.86162      484.86162      1.139865e+08   3.2318933     -6735527.8     -6735527.8      920.82959     -6734607       -881.28122     -1647.8884     -817.57082      12.000302      20.868173      332.91313      4835.9264    
       500   314.21692      0.0025         0.10369765     0.18000646     0.097058704   -1252.6123      485.10357      485.10357      485.10357      1.1415723e+08  3.22706       -6731244.1     -6731244.1      935.68434     -6730308.4     -1023.4162     -1776.5256     -957.89493      9.2761455      21.070862      334.843        4654.2322    
       600   305.68517      0.003          0.11864502     0.19228986     0.1124296     -1392.7609      485.34552      485.34552      485.34552      1.1432812e+08  3.2222363     -6727969.9     -6727969.9      910.27823     -6727059.6     -1170.9353     -1897.7534     -1109.5939      6.0142497      22.980335      334.52654      4871.6398    
       700   305.17669      0.0035         0.13403662     0.20474862     0.12759426    -1534.2693      485.58746      485.58746      485.58746      1.1449919e+08  3.2174222     -6724349.1     -6724349.1      908.76408     -6723440.3     -1322.8386     -2020.7117     -1259.2575      6.5240751      24.611151      334.04221      4871.4037    
       800   304.04063      0.004          0.14848566     0.21616228     0.14061439    -1662.1839      485.82941      485.82941      485.82941      1.1467042e+08  3.2126176     -6718016.5     -6718016.5      905.38107     -6717111.1     -1465.4395     -2133.3559     -1387.7562      7.6445341      26.847661      337.49346      4631.198     
       900   304.86094      0.0045         0.16146785     0.22587421     0.1525102     -1775.9758      486.07136      486.07136      486.07136      1.1484183e+08  3.2078227     -6713752.8     -6713752.8      907.82382     -6712845       -1593.5638     -2229.2051     -1505.1586      4.4929908      22.36047       342.81929      4875.5187    
      1000   308.35126      0.005          0.17383223     0.23478418     0.16527255    -1887.9479      486.31331      486.31331      486.31331      1.150134e+08   3.2030373     -6706174.7     -6706174.7      918.2174      -6705256.5     -1715.5908     -2317.1397     -1631.1132      3.3344333      18.042793      331.17291      1910.1687    
      1100   311.71437      0.0055         0.1861914      0.24479389     0.17810924    -2003.7652      486.55525      486.55525      486.55525      1.1518515e+08  3.1982614     -6701349.3     -6701349.3      928.23215     -6700421.1     -1837.5663     -2415.9279     -1757.8016      6.8875955      23.219561      320.02751      3687.2236    
      1200   314.03652      0.006          0.19771891     0.2549025      0.18873619    -2109.9025      486.7972       486.7972       486.7972       1.1535707e+08  3.193495      -6696242.9     -6696242.9      935.14713     -6695307.7     -1951.3339     -2515.6921     -1862.6814      7.6916325      27.451071      313.21405      4870.7854    
      1300   315.50014      0.0065         0.20770935     0.26400127     0.19826764    -2204.0571      487.03915      487.03915      487.03915      1.1552916e+08  3.188738      -6688527.6     -6688527.6      939.50553     -6687588.1     -2049.9319     -2605.4899     -1956.7495      7.7360261      24.46139       299.15472      4656.211     
      1400   316.80261      0.007          0.21760905     0.27245821     0.20888463    -2299.373       487.28109      487.28109      487.28109      1.1570142e+08  3.1839905     -6682948.2     -6682948.2      943.38409     -6682004.8     -2147.6344     -2688.9535     -2061.531       8.0951433      19.257348      281.25171      4881.2823    
      1500   317.40796      0.0075         0.22811046     0.28135847     0.21960453    -2398.4652      487.52304      487.52304      487.52304      1.1587385e+08  3.1792525     -6675433.8     -6675433.8      945.18672     -6674488.6     -2251.2752     -2776.7922     -2167.3282      6.4686774      20.079796      272.85206      4666.1888    
      1600   317.52805      0.008          0.23902809     0.29165207     0.22971872    -2501.5178      487.76499      487.76499      487.76499      1.1604645e+08  3.1745238     -6669349.5     -6669349.5      945.5443      -6668403.9     -2359.0238     -2878.3821     -2267.1475      6.9315678      25.514889      269.92561      4847.0926    
      1700   317.90758      0.0085         0.24969305     0.30109789     0.23962366    -2600.2619      488.00693      488.00693      488.00693      1.1621923e+08  3.1698045     -6657936.2     -6657936.2      946.6745      -6656989.5     -2464.2788     -2971.6052     -2364.9016      8.1546997      24.045533      255.63158      4669.4667    
      1800   318.73285      0.009          0.26045877     0.31033771     0.25102411    -2703.5795      488.24888      488.24888      488.24888      1.1639217e+08  3.1650945     -6651339.6     -6651339.6      949.13201     -6650390.4     -2570.5282     -3062.795      -2477.4153      9.5327654      16.52079       246.70633      4883.4077    
      1900   320.4547       0.0095         0.27138557     0.31857938     0.2622333     -2803.5143      488.49083      488.49083      488.49083      1.1656529e+08  3.1603939     -6644486.3     -6644486.3      954.25937     -6643532       -2678.3674     -3144.134      -2588.0414      3.6235783      13.155272      247.86549      4425.0033    
      2000   322.51758      0.01           0.28180531     0.32563892     0.27135402    -2891.0215      488.73277      488.73277      488.73277      1.1673858e+08  3.1557025     -6626246.1     -6626246.1      960.40227     -6625285.7     -2781.2022     -3213.8063     -2678.0559     -6.2426464      20.372291      245.32102      2781.7127    
      2100   323.38713      0.0105         0.29121893     0.33540344     0.28057601    -2984.4506      488.97472      488.97472      488.97472      1.1691204e+08  3.1510205     -6618922.2     -6618922.2      962.99164     -6617959.2     -2874.1074     -3310.1746     -2769.0699     -4.7792096      26.342415      249.24347      4186.4764    
      2200   323.10096      0.011          0.30024442     0.34257502     0.28876452    -3064.6729      489.21667      489.21667      489.21667      1.1708567e+08  3.1463477     -6597175       -6597175        962.13948     -6596212.8     -2963.182      -3380.9526     -2849.8842      7.2981562      19.676597      240.08197      4681.2833    
      2300   323.66088      0.0115         0.3096008      0.35033698     0.2987374     -3153.7961      489.45862      489.45862      489.45862      1.1725947e+08  3.1416841     -6589408.9     -6589408.9      963.80682     -6588445.1     -3055.5223     -3457.5571     -2948.3089      14.500027      12.945317      240.47996      4911.9361    
      2400   326.14772      0.012          0.31829867     0.35696177     0.30839695    -3235.9812      489.70056      489.70056      489.70056      1.1743345e+08  3.1370298     -6581426.2     -6581426.2      971.21221     -6580454.9     -3141.3636     -3522.9387     -3043.6412      12.333956      13.64073       235.56489      4916.2575    
      2500   327.85604      0.0125         0.32685018     0.36213755     0.31642358    -3307.546       489.94251      489.94251      489.94251      1.1760759e+08  3.1323846     -6560418       -6560418        976.29931     -6559441.7     -3225.7605     -3574.0197     -3122.8579      6.1299564      19.081933      230.86587      4680.5076    
      2600   327.95063      0.013          0.3364673      0.36963753     0.32487293    -3391.6531      490.18446      490.18446      490.18446      1.1778191e+08  3.1277486     -6552035.6     -6552035.6      976.58097     -6551059.1     -3320.6741     -3648.0388     -3206.2465      2.8852176      20.694483      234.84662      4936.0266    
      2700   328.5761       0.0135         0.34527405     0.37502291     0.33190092    -3461.4619      490.4264       490.4264       490.4264       1.1795641e+08  3.1231218     -6529259.6     -6529259.6      978.44351     -6528281.2     -3407.5899     -3701.1883     -3275.6074      3.1186569      19.394009      239.17084      4726.7894    
      2800   330.39073      0.014          0.35371905     0.38269846     0.34001773    -3541.1966      490.66835      490.66835      490.66835      1.1813107e+08  3.1185041     -6520486.9     -6520486.9      983.84717     -6519503       -3490.9356     -3776.9401     -3355.7141      7.4667402      15.374927      228.60324      4956.4801    
      2900   331.70239      0.0145         0.36159673     0.39038616     0.34841747    -3620.0357      490.9103       490.9103       490.9103       1.1830591e+08  3.1138954     -6511509.2     -6511509.2      987.75306     -6510521.5     -3568.6822     -3852.8118     -3438.6131      10.642382      11.288732      207.74057      4864.9999    
      3000   331.66684      0.015          0.36893913     0.39444421     0.35548504    -3680.7908      491.15224      491.15224      491.15224      1.1848091e+08  3.1092959     -6479046.5     -6479046.5      987.6472      -6478058.9     -3641.1462     -3892.8617     -3508.3646      10.267171      10.403706      199.36811      3001.2705    
      3100   331.5251       0.0155         0.37814904     0.40070699     0.36417682    -3760.2857      491.39419      491.39419      491.39419      1.186561e+08   3.1047054     -6469696.9     -6469696.9      987.22513     -6468709.7     -3732.0409     -3954.6705     -3594.1458      6.9484566      17.538708      195.52063      4493.106     
      3200   331.39016      0.016          0.38567087     0.40218612     0.37017255    -3809.621       491.63614      491.63614      491.63614      1.1883145e+08  3.1001239     -6418610.4     -6418610.4      986.82331     -6417623.5     -3806.2756     -3969.2684     -3653.319       2.5583403      22.812015      211.56055      4783.843     
      3300   332.1401       0.0165         0.3948305      0.40934861     0.37932256    -3893.4178      491.87808      491.87808      491.87808      1.1900698e+08  3.0955515     -6408911.7     -6408911.7      989.0565      -6407922.6     -3896.6741     -4039.9567     -3743.6226      2.3943356      18.091091      206.17695      5036.7611    
      3400   332.97793      0.017          0.39789493     0.40853804     0.38087568    -3905.9418      492.12003      492.12003      492.12003      1.1918268e+08  3.090988      -6320623.8     -6320623.8      991.55141     -6319632.3     -3926.9177     -4031.957      -3758.9507      8.9562721      10.972092      222.08099      4794.121     
      3500   332.39499      0.0175         0.40417957     0.41520348     0.38622507    -3966.1424      492.36198      492.36198      492.36198      1.1935855e+08  3.0864335     -6310683       -6310683        989.81551     -6309693.2     -3988.9422     -4097.7398     -3811.7451      10.915479      9.1476272      229.55337      5131.0267    
      3600   333.076        0.018          0.40901476     0.41980493     0.39106655    -4013.1137      492.60393      492.60393      492.60393      1.1953459e+08  3.081888      -6300606.5     -6300606.5      991.84345     -6299614.6     -4036.6618     -4143.1525     -3859.5268      4.8880188      13.201599      241.1186       5135.7863    
      3700   333.53423      0.0185         0.40492576     0.41580932     0.38922234    -3980.4505      492.84587      492.84587      492.84587      1.1971081e+08  3.0773513     -6185126.9     -6185126.9      993.20799     -6184133.7     -3996.3066     -4103.7189     -3841.3259     -0.16999184     18.5677        236.69487      5000.0538    
      3800   335.1286       0.019          0.41148549     0.42050582     0.39735435    -4044.2328      493.08782      493.08782      493.08782      1.198872e+08   3.0728236     -6174993.5     -6174993.5      997.95575     -6173995.5     -4061.046      -4150.0697     -3921.5825      4.2862714      16.539232      228.25629      5286.9536    
      3900   335.76386      0.0195         0.40482299     0.41545477     0.39281179    -3990.7544      493.32977      493.32977      493.32977      1.2006377e+08  3.0683047     -6007636       -6007636        999.84745     -6006636.1     -3995.2923     -4100.2198     -3876.751       8.7594166      18.47925       192.02502      5067.058     
      4000   333.91353      0.02           0.4130865      0.42033345     0.40023921    -4058.4231      493.57171      493.57171      493.57171      1.202405e+08   3.0637947     -5997429.5     -5997429.5      994.33748     -5996435.2     -4076.8468     -4148.3686     -3950.0539      12.425232      19.560604      183.36668      2498.7866    
      4100   333.5596       0.0205         0.41948964     0.42332636     0.40508491    -4105.2748      493.81366      493.81366      493.81366      1.2041741e+08  3.0592936     -5987063.3     -5987063.3      993.28352     -5986070       -4140.0409     -4177.9063     -3997.8773      8.9951301      18.624296      178.56253      3952.1227    
      4200   331.07871      0.021          0.40979856     0.41796968     0.39666006    -4028.0559      494.05561      494.05561      494.05561      1.205945e+08   3.0548012     -5830560.9     -5830560.9      985.89587     -5829575       -4044.3973     -4125.04       -3914.7304      3.6452902      12.206782      141.22713      5452.3579    
      4300   330.52346      0.0215         0.41460585     0.42105708     0.40045654    -4066.5169      494.29755      494.29755      494.29755      1.2077176e+08  3.0503176     -5820278.7     -5820278.7      984.24243     -5819294.5     -4091.8416     -4155.5103     -3952.1988     -0.67579873     11.681144      134.70555      5728.076     
      4400   329.88639      0.022          0.41246568     0.4210585      0.39950583    -4056.3534      494.5395       494.5395       494.5395       1.2094919e+08  3.0458428     -5733585.5     -5733585.5      982.34533     -5732603.2     -4070.7198     -4155.5243     -3942.816       2.0341049      10.23068       110.77476      5545.1698    
      4500   328.90132      0.0225         0.41852258     0.42696929     0.40535281    -4114.9591      494.78145      494.78145      494.78145      1.2112679e+08  3.0413768     -5723174.9     -5723174.9      979.41196     -5722195.5     -4130.4967     -4213.8593     -4000.5212      8.3196503      11.572484      93.081707      5930.7077    
      4600   329.68165      0.023          0.42398862     0.4315882      0.41019108    -4164.0527      495.02339      495.02339      495.02339      1.2130457e+08  3.0369195     -5712609.1     -5712609.1      981.73566     -5711627.3     -4184.4424     -4259.4444     -4048.2712      10.865178      11.042748      81.552905      5923.4337    
      4700   329.83075      0.0235         0.42343689     0.43143171     0.41101053    -4164.4186      495.26534      495.26534      495.26534      1.2148253e+08  3.0324709     -5654038.7     -5654038.7      982.17967     -5653056.5     -4178.9972     -4257.8999     -4056.3586      8.7469583      9.2088799      88.657444      5705.3856    
      4800   330.82394      0.024          0.4262346      0.43432872     0.41536515    -4197.4783      495.50729      495.50729      495.50729      1.2166065e+08  3.0280309     -5643356.3     -5643356.3      985.1372      -5642371.1     -4206.6085     -4286.4912     -4099.3353      6.9079441      10.30181       92.086853      6029.411     
      4900   329.79887      0.0245         0.42542906     0.43394529     0.41616755    -4196.2066      495.74924      495.74924      495.74924      1.2183895e+08  3.0235997     -5592073.6     -5592073.6      982.08471     -5591091.5     -4198.6583     -4282.707      -4107.2544      8.0338832      12.032528      113.71844      5709.3238    
      5000   329.75147      0.025          0.42778297     0.43708602     0.41894269    -4223.4121      495.99118      495.99118      495.99118      1.2201743e+08  3.0191771     -5581291.5     -5581291.5      981.94356     -5580309.6     -4221.8897     -4313.7036     -4134.6428      6.1058134      8.5715408      117.33522      3705.2849    
      5100   330.68612      0.0255         0.42785561     0.43802529     0.41938929    -4228.2102      496.23313      496.23313      496.23313      1.2219608e+08  3.0147631     -5548141.7     -5548141.7      984.72679     -5547157       -4222.6066     -4322.9735     -4139.0504      1.0801917      8.6505086      128.55664      5463.6957    
      5200   330.86787      0.026          0.42973282     0.44084083     0.42100601    -4248.9667      496.47508      496.47508      496.47508      1.223749e+08   3.0103577     -5537269.9     -5537269.9      985.26801     -5536284.7     -4241.1332     -4350.7608     -4155.0063      0.42938961     7.7222978      128.79916      6166.0838    
      5300   331.83617      0.0265         0.4317897      0.44280997     0.42378827    -4271.3642      496.71702      496.71702      496.71702      1.225539e+08   3.0059608     -5526337.3     -5526337.3      988.15145     -5525349.1     -4261.433      -4370.1946     -4182.465       5.1076703      11.75494       123.82117      6172.404     
      5400   332.62961      0.027          0.43350563     0.44271836     0.42676564    -4286.5026      496.95897      496.95897      496.95897      1.2273307e+08  3.0015726     -5499136.9     -5499136.9      990.51418     -5498146.4     -4278.3679     -4369.2905     -4211.8494      10.086406      16.495634      123.83858      5285.2181    
      5500   334.29373      0.0275         0.43746521     0.44406229     0.43174179    -4320.3201      497.20092      497.20092      497.20092      1.2291242e+08  2.9971928     -5488078       -5488078        995.46964     -5487082.5     -4317.446      -4382.554      -4260.9602      10.957505      14.40173       118.51804      6207.8402    
      5600   334.82011      0.028          0.44085676     0.44439348     0.43521679    -4343.9988      497.44286      497.44286      497.44286      1.2309194e+08  2.9928216     -5465431.9     -5465431.9      997.03711     -5464434.9     -4350.9179     -4385.8226     -4295.2557      7.4778993      9.7369488      119.57893      5878.6539    
      5700   334.12571      0.0285         0.44397775     0.44437264     0.43739844    -4361.3746      497.68481      497.68481      497.68481      1.2327164e+08  2.9884589     -5454206.3     -5454206.3      994.9693      -5453211.3     -4381.7197     -4385.617      -4316.787       4.3452812      6.3895279      116.63514      6224.9861    
      5800   334.93408      0.029          0.44619079     0.44281555     0.43822702    -4366.2583      497.92676      497.92676      497.92676      1.2345151e+08  2.9841047     -5442952.7     -5442952.7      997.37649     -5441955.3     -4403.5608     -4370.2497     -4324.9645      2.3809598      7.664572       107.26243      6221.756     
      5900   336.68274      0.0295         0.44804899     0.4406416      0.43887315    -4367.3451      498.1687       498.1687       498.1687       1.2363155e+08  2.9797589     -5425956       -5425956        1002.5837     -5424953.5     -4421.8997     -4348.7945     -4331.3412      5.6544437      12.203379      93.769556      5878.7123    
      6000   337.94489      0.03           0.45060801     0.44069758     0.44053542    -4381.4163      498.41065      498.41065      498.41065      1.2381177e+08  2.9754216     -5414672.3     -5414672.3      1006.3422     -5413665.9     -4447.1553     -4349.347      -4347.7466      11.640446      14.795584      74.830209      3412.4521    
      6100   338.5793       0.0305         0.45307542     0.44133463     0.44216921    -4397.0039      498.6526       498.6526       498.6526       1.2399217e+08  2.9710926     -5398938.7     -5398938.7      1008.2313     -5397930.5     -4471.5068     -4355.6342     -4363.8708      14.919892      15.977569      59.35945       5449.5545    
      6200   339.95562      0.031          0.45580012     0.44191028     0.44429461    -4414.8532      498.89455      498.89455      498.89455      1.2417274e+08  2.9667721     -5387549.1     -5387549.1      1012.3298     -5386536.8     -4498.3974     -4361.3154     -4384.8469      9.7878746      14.751529      48.739972      6243.1322    
      6300   341.48543      0.0315         0.45709589     0.44230116     0.44582262    -4425.4286      499.13649      499.13649      499.13649      1.2435349e+08  2.9624599     -5371719.2     -5371719.2      1016.8853     -5370702.3     -4511.1857     -4365.173      -4399.9272     -2.7773625      13.6535        39.303113      5902.0105    
      6400   342.17715      0.032          0.45746553     0.44255983     0.44644891    -4429.5559      499.37844      499.37844      499.37844      1.2453441e+08  2.9581561     -5360250.9     -5360250.9      1018.9451     -5359232       -4514.8337     -4367.726      -4406.1081     -10.924866      15.355653      26.011357      6256.9433    
      6500   343.75289      0.0325         0.45667059     0.44097293     0.44562566    -4419.012       499.62039      499.62039      499.62039      1.2471551e+08  2.9538606     -5348784.4     -5348784.4      1023.6374     -5347760.8     -4506.9883     -4352.0645     -4397.9833     -7.5897188      18.235132      14.623364      6204.0928    
      6600   346.08545      0.033          0.45428529     0.43786879     0.44346605    -4393.8486      499.86233      499.86233      499.86233      1.2489678e+08  2.9495734     -5332973.9     -5332973.9      1030.5834     -5331943.3     -4483.4472     -4321.429      -4376.6696      5.65964        16.579712      10.733239      5914.3814    
      6700   347.63563      0.0335         0.45140663     0.43560573     0.44199456    -4372.0928      500.10428      500.10428      500.10428      1.2507823e+08  2.9452946     -5321618.5     -5321618.5      1035.1995     -5320583.3     -4455.0371     -4299.0943     -4362.1472      19.294471      10.966639      11.426886      6274.8299    
      6800   347.2805       0.034          0.44820848     0.43238169     0.44105067    -4347.8603      500.34623      500.34623      500.34623      1.2525985e+08  2.941024      -5306251.3     -5306251.3      1034.142      -5305217.2     -4423.4738     -4267.2755     -4352.8317      22.355229      9.2157727      17.788001      5942.2554    
      6900   347.42233      0.0345         0.44525021     0.42939426     0.44092203    -4327.8773      500.58817      500.58817      500.58817      1.2544165e+08  2.9367616     -5294997       -5294997        1034.5644     -5293962.4     -4394.2779     -4237.7919     -4351.5621      13.382299      11.720087      23.030859      6285.8111    
      7000   348.96105      0.035          0.44248262     0.42722502     0.44061261    -4310.6185      500.83012      500.83012      500.83012      1.2562362e+08  2.9325075     -5283785.5     -5283785.5      1039.1464     -5282746.4     -4366.964      -4216.3831     -4348.5083      0.99458132     14.915438      24.423155      3668.6162    
      7100   350.91128      0.0355         0.44048358     0.4255297      0.43847786    -4291.4422      501.07207      501.07207      501.07207      1.2580578e+08  2.9282616     -5270254.4     -5270254.4      1044.9539     -5269209.4     -4347.2349     -4199.6516     -4327.44       -7.6970716      14.380301      19.228502      5654.2537    
      7200   352.01072      0.036          0.43959051     0.42408039     0.43436719    -4270.2133      501.31401      501.31401      501.31401      1.259881e+08   2.9240239     -5259130.2     -5259130.2      1048.2278     -5258081.9     -4338.421      -4185.348      -4286.8709     -5.4390902      8.5846665      4.3573834      6284.9743    
      7300   353.38189      0.0365         0.4389688      0.42159073     0.42973017    -4244.7231      501.55596      501.55596      501.55596      1.2617061e+08  2.9197943     -5247051.8     -5247051.8      1052.3109     -5245999.5     -4332.2852     -4160.777      -4241.107       5.4607636      4.2848423     -15.255843      5946.5565    
      7400   354.7562       0.037          0.43866243     0.41903025     0.42760444    -4228.2988      501.79791      501.79791      501.79791      1.2635329e+08  2.9155729     -5236047.9     -5236047.9      1056.4034     -5234991.4     -4329.2616     -4135.507      -4220.1277      11.756977      9.2457246     -36.759185      6297.6286    
      7500   355.45426      0.0375         0.43867636     0.41652428     0.42912066    -4225.0886      502.03986      502.03986      502.03986      1.2653614e+08  2.9113597     -5225061.2     -5225061.2      1058.4821     -5224002.7     -4329.3991     -4110.775      -4235.0916      6.795759       17.016348     -52.335837      6298.5988    
      7600   356.26173      0.038          0.43781821     0.41366889     0.43216407    -4222.884       502.2818       502.2818       502.2818       1.2671917e+08  2.9071545     -5212374.6     -5212374.6      1060.8866     -5211313.7     -4320.9297     -4082.5946     -4265.1277     -0.62102467     17.711138     -58.80351       5919.0854    
      7700   356.286        0.0385         0.43521729     0.41078086     0.43260394    -4206.2738      502.52375      502.52375      502.52375      1.2690238e+08  2.9029575     -5201380.2     -5201380.2      1060.9589     -5200319.2     -4295.2607     -4054.0919     -4269.4689     -1.3733801      10.822546     -65.623902      6246.2835    
      7800   355.95796      0.039          0.43029521     0.40729332     0.42772975    -4162.5735      502.7657       502.7657       502.7657       1.2708577e+08  2.8987685     -5189777.6     -5189777.6      1059.982      -5188717.6     -4246.6835     -4019.6725     -4221.3644      4.6822072      3.116405      -60.111498      5970.8515    
      7900   357.13054      0.0395         0.42313241     0.40344488     0.41904331    -4097.7732      503.00764      503.00764      503.00764      1.2726933e+08  2.8945876     -5179003.6     -5179003.6      1063.4738     -5177940.2     -4175.9922     -3981.6914     -4135.636       10.767285      2.5745387     -38.461292      6303.5431    
      8000   359.60875      0.04           0.41603838     0.40010499     0.41088317    -4036.6035      503.24959      503.24959      503.24959      1.2745307e+08  2.8904147     -5167067.4     -5167067.4      1070.8535     -5165996.5     -4105.9796     -3948.7292     -4055.1016      10.602064      8.3516152     -16.756932      3617.5761    
      8100   360.95848      0.0405         0.41171743     0.39821524     0.4075099     -4005.0747      503.49154      503.49154      503.49154      1.2763698e+08  2.8862499     -5156609.5     -5156609.5      1074.8727     -5155534.7     -4063.3352     -3930.0788     -4021.81        4.6639664      11.437321     -15.507472      6281.0141    
      8200   360.24805      0.041          0.41009594     0.39609104     0.40811891    -3994.7558      503.73348      503.73348      503.73348      1.2782107e+08  2.882093      -5146180.9     -5146180.9      1072.7572     -5145108.1     -4047.3322     -3909.1146     -4027.8205     -4.6258115      8.574344      -34.80998       6251.7255    
      8300   360.06319      0.0415         0.40966959     0.39244166     0.40876117    -3983.4605      503.97543      503.97543      503.97543      1.2800534e+08  2.8779441     -5135423.5     -5135423.5      1072.2067     -5134351.3     -4043.1245     -3873.098      -4034.1591     -13.414261      3.3111398     -60.398484      5946.2043    
      8400   361.25803      0.042          0.40905113     0.38810741     0.40738444    -3962.6383      504.21738      504.21738      504.21738      1.2818979e+08  2.8738032     -5125039.1     -5125039.1      1075.7647     -5123963.4     -4037.0207     -3830.3224     -4020.5718     -10.564001      0.96168198    -79.880592      6317.9244    
      8500   361.68826      0.0425         0.40661822     0.38274458     0.4036811     -3924.8093      504.45932      504.45932      504.45932      1.2837441e+08  2.8696702     -5113371.3     -5113371.3      1077.0459     -5112294.3     -4013.0099     -3777.3953     -3984.0227      1.3322722      2.1643928     -86.7228        5932.033     
      8600   361.40387      0.043          0.40239048     0.37633146     0.39895444    -3874.2541      504.70127      504.70127      504.70127      1.2855921e+08  2.8655451     -5103173.6     -5103173.6      1076.199      -5102097.4     -3971.2853     -3714.1028     -3937.3742      10.656666      3.8395787     -79.906517      6318.1779    
      8700   360.99029      0.0435         0.39725657     0.37034905     0.39534007    -3825.7939      504.94322      504.94322      504.94322      1.2874419e+08  2.861428      -5093109.4     -5093109.4      1074.9674     -5092034.5     -3920.6175     -3655.061      -3901.7032      11.934317      5.4107815     -69.467269      6315.0565    
      8800   360.80532      0.044          0.39199911     0.36525437     0.39255515    -3782.5763      505.18517      505.18517      505.18517      1.2892934e+08  2.8573187     -5082482.3     -5082482.3      1074.4166     -5081407.8     -3868.7304     -3604.7804     -3874.2181      5.746993       6.5604738     -67.805183      5975.0224    
      8900   361.45413      0.0445         0.38747406     0.3610732      0.38889673    -3741.8998      505.42711      505.42711      505.42711      1.2911467e+08  2.8532173     -5072636.6     -5072636.6      1076.3487     -5071560.3     -3824.0717     -3563.5154     -3838.1124     -4.1797061      6.0555596     -75.049254      6232.6456    
      9000   362.43914      0.045          0.38340031     0.35769605     0.38343327    -3699.4149      505.66906      505.66906      505.66906      1.2930018e+08  2.8491237     -5061544.2     -5061544.2      1079.2819     -5060464.9     -3783.8669     -3530.1855     -3784.1922     -12.459107      3.3984233     -84.338598      3430.7545    
      9100   363.04495      0.0455         0.37946871     0.35455329     0.37674539    -3654.1406      505.91101      505.91101      505.91101      1.2948587e+08  2.845038      -5051915.1     -5051915.1      1081.0859     -5050834       -3745.065      -3499.1689     -3718.1879     -10.300455      1.3524687     -95.276188      6287.416     
      9200   362.194        0.046          0.37560608     0.35135084     0.37085927    -3611.5345      506.15295      506.15295      506.15295      1.2967174e+08  2.84096       -5042400       -5042400        1078.5519     -5041321.5     -3706.9438     -3467.5632     -3660.0964      2.3306671     -0.25972918    -107.63703      5971.5115    
      9300   360.8819       0.0465         0.37166715     0.34741332     0.36751066    -3574.6069      506.3949       506.3949       506.3949       1.2985778e+08  2.8368899     -5032982.3     -5032982.3      1074.6447     -5031907.7     -3668.0696     -3428.7028     -3627.0482      12.857411     -1.3829347     -117.67418      6284.684     
      9400   361.29821      0.047          0.36762941     0.3431559      0.36631591    -3543.3875      506.63685      506.63685      506.63685      1.30044e+08    2.8328275     -5023651.6     -5023651.6      1075.8844     -5022575.7     -3628.2202     -3386.6854     -3615.257       8.5784535      0.61207742    -122.66099      6260.6842    
      9500   362.87244      0.0475         0.36374655     0.33962949     0.36517068    -3515.2454      506.87879      506.87879      506.87879      1.302304e+08   2.8287729     -5012034.4     -5012034.4      1080.5722     -5010953.8     -3589.8993     -3351.8825     -3603.9544     -4.3214209      5.3825005     -118.29991      5911.8482    
      9600   363.18324      0.048          0.35882232     0.33688645     0.3625586     -3481.429       507.12074      507.12074      507.12074      1.3041697e+08  2.824726      -5002840.8     -5002840.8      1081.4977     -5001759.3     -3541.3009     -3324.8108     -3578.1752     -11.887958      5.8748479     -105.60969      6322.7699    
      9700   362.52909      0.0485         0.35151705     0.33312569     0.35549121    -3421.7746      507.36269      507.36269      507.36269      1.3060373e+08  2.8206869     -4990714.4     -4990714.4      1079.5497     -4989634.8     -3469.2036     -3287.6949     -3508.4255     -10.315049      2.8783511     -85.401961      5967.129     
      9800   362.97526      0.049          0.34300381     0.32889611     0.34542229    -3346.7298      507.60463      507.60463      507.60463      1.3079066e+08  2.8166554     -4981825.4     -4981825.4      1080.8783     -4980744.5     -3385.1844     -3245.9522     -3409.053      -4.295619       0.0090426886  -69.794323      6328.9901    
      9900   363.71214      0.0495         0.33512804     0.32526818     0.33624177    -3278.6841      507.84658      507.84658      507.84658      1.3097777e+08  2.8126316     -4973143.6     -4973143.6      1083.0727     -4972060.5     -3307.4566     -3210.1474     -3318.4483      1.5704677      0.41446455    -63.97279       6325.0639    
     10000   363.39229      0.05           0.32950881     0.32191919     0.33148569    -3233.5346      508.08853      508.08853      508.08853      1.3116506e+08  2.8086155     -4962248.7     -4962248.7      1082.1202     -4961166.6     -3251.9991     -3177.0954     -3271.5094      4.0497237      2.8874039     -66.432134      3553.8218    
     10100   362.05402      0.0505         0.32689269     0.31846808     0.33123493    -3212.75        508.33048      508.33048      508.33048      1.3135253e+08  2.804607      -4953791.1     -4953791.1      1078.135      -4952713       -3226.18       -3143.0356     -3269.0346      0.80122108     3.2761319     -73.502868      6031.1812    
     10200   360.7992       0.051          0.3256075      0.31489675     0.33192927    -3199.0575      508.57242      508.57242      508.57242      1.3154018e+08  2.8006061     -4943329.9     -4943329.9      1074.3984     -4942255.5     -3213.4962     -3107.7893     -3275.8872     -6.781715       0.084904745   -77.74811       5971.5931    
     10300   359.97667      0.0515         0.32399703     0.31171379     0.3304312     -3178.3601      508.81437      508.81437      508.81437      1.31728e+08    2.7966128     -4934923.8     -4934923.8      1071.9491     -4933851.8     -3197.6021     -3076.3759     -3261.1024     -10.518986     -5.3173327     -81.48268       6335.8777    
     10400   359.29302      0.052          0.32099044     0.30855676     0.32591417    -3143.2235      509.05632      509.05632      509.05632      1.31916e+08    2.7926272     -4926586       -4926586        1069.9133     -4925516.1     -3167.9293     -3045.2185     -3216.5228     -8.5791368     -9.5874441     -78.030579      6346.7261    
     10500   359.09933      0.0525         0.31626738     0.30524838     0.31972861    -3096.4532      509.29826      509.29826      509.29826      1.3210419e+08  2.7886491     -4917011.6     -4917011.6      1069.3365     -4915942.3     -3121.3164     -3012.5673     -3155.476      -2.6664648     -8.5511671     -64.561973      5995.3649    
     10600   359.15071      0.053          0.31102255     0.30201414     0.31423774    -3050.4957      509.54021      509.54021      509.54021      1.3229255e+08  2.7846785     -4908914.3     -4908914.3      1069.4895     -4907844.8     -3069.5539     -2980.6478     -3101.2853      4.7170472     -1.2840502     -51.78779       6286.535     
     10700   359.13223      0.0535         0.30683543     0.29898857     0.31079163    -3015.431       509.78216      509.78216      509.78216      1.3248109e+08  2.7807155     -4900925.1     -4900925.1      1069.4344     -4899855.7     -3028.2303     -2950.7878     -3067.2749      8.5062896      5.916427      -49.408316      5989.8428    
     10800   359.41458      0.054          0.30399276     0.29636413     0.30900556    -2991.5699      510.0241       510.0241       510.0241       1.3266981e+08  2.77676       -4893008.6     -4893008.6      1070.2752     -4891938.3     -3000.1753     -2924.8866     -3049.6478      6.5018582      4.9683773     -54.674304      6350.8717    
     10900   360.1989       0.0545         0.30201074     0.29397675     0.30763333    -2972.6814      510.26605      510.26605      510.26605      1.3285871e+08  2.772812      -4884464       -4884464        1072.6108     -4883391.4     -2980.6142     -2901.325      -3036.1049      1.1994652     -1.5599465     -59.119302      6005.2417    
     11000   361.01499      0.055          0.29972887     0.29210692     0.30583454    -2953.1058      510.508        510.508        510.508        1.3304779e+08  2.7688715     -4876641.1     -4876641.1      1075.041      -4875566       -2958.094      -2882.8712     -3018.3523     -2.5161996     -5.5284997     -59.107855      3476.0255    
     11100   360.49389      0.0555         0.29687417     0.29057434     0.30265914    -2928.2265      510.74994      510.74994      510.74994      1.3323704e+08  2.7649384     -4868866.9     -4868866.9      1073.4893     -4867793.4     -2929.9203     -2867.7457     -2987.0134     -3.4979381     -5.485344      -55.02125       5751.8449    
     11200   359.03485      0.056          0.29389078     0.2879504      0.29820199    -2895.1169      510.99189      510.99189      510.99189      1.3342648e+08  2.7610128     -4860488.1     -4860488.1      1069.1445     -4859419       -2900.4764     -2841.8495     -2943.0248     -4.3856716     -2.9060995     -49.477334      5986.1804    
     11300   357.98646      0.0565         0.2909948      0.28430633     0.29385469    -2859.3004      511.23384      511.23384      511.23384      1.3361609e+08  2.7570946     -4852875.5     -4852875.5      1066.0225     -4851809.5     -2871.8954     -2805.8853     -2900.1203     -4.965742      -0.77352857    -47.393976      6334.912     
     11400   357.42832      0.057          0.28774852     0.28066882     0.29093638    -2827.0539      511.47579      511.47579      511.47579      1.3380589e+08  2.7531839     -4844000.3     -4844000.3      1064.3605     -4842936       -2839.8571     -2769.9859     -2871.3188     -1.0994773     -2.397671      -49.991214      5995.1877    
     11500   356.44692      0.0575         0.28413975     0.27755443     0.28936288    -2799.7601      511.71773      511.71773      511.71773      1.3399587e+08  2.7492805     -4836546.9     -4836546.9      1061.4381     -4835485.4     -2804.2413     -2739.2493     -2855.7896      4.9565082     -5.1945182     -55.277113      6343.7048    
     11600   354.98529      0.058          0.28114986     0.27492139     0.28803512    -2776.894       511.95968      511.95968      511.95968      1.3418602e+08  2.7453845     -4829153.9     -4829153.9      1057.0856     -4828096.8     -2774.7333     -2713.2632     -2842.6856      4.1317339     -4.451578      -55.606216      6331.1006    
     11700   353.81412      0.0585         0.27900974     0.27321066     0.28575547    -2756.7263      512.20163      512.20163      512.20163      1.3437636e+08  2.7414958     -4820795.7     -4820795.7      1053.598      -4819742.1     -2753.6121     -2696.3796     -2820.1872     -1.9032504     -0.33906449    -48.458779      5952.5521    
     11800   352.41751      0.059          0.27652965     0.27193591     0.28226348    -2732.8861      512.44357      512.44357      512.44357      1.3456687e+08  2.7376145     -4813492.6     -4813492.6      1049.4392     -4812443.1     -2729.1355     -2683.7988     -2785.724      -6.9828972      3.0561314     -35.63553       6358.0248    
     11900   350.77136      0.0595         0.27326993     0.27019491     0.27781467    -2701.7995      512.68552      512.68552      512.68552      1.3475756e+08  2.7337406     -4805579.4     -4805579.4      1044.5372     -4804534.8     -2696.9646     -2666.6164     -2741.8176     -8.1932778      1.1948581     -24.711142      5991.5277    
     12000   349.55211      0.06           0.26974715     0.26801038     0.27340803    -2668.5272      512.92747      512.92747      512.92747      1.3494844e+08  2.7298739     -4798426.2     -4798426.2      1040.9065     -4797385.3     -2662.1974     -2645.0568     -2698.3275     -6.2261435     -5.3638497     -20.652968      3722.8771    
     12100   349.0715       0.0605         0.26639541     0.26578294     0.27044806    -2640.4356      513.16941      513.16941      513.16941      1.3513949e+08  2.7260145     -4791358.9     -4791358.9      1039.4753     -4790319.4     -2629.1183     -2623.0737     -2669.1149     -1.8542533     -10.44883      -24.69669       6175.1281    
     12200   348.75247      0.061          0.26438262     0.2636351      0.26977824    -2624.5446      513.41136      513.41136      513.41136      1.3533073e+08  2.7221624     -4783335.1     -4783335.1      1038.5253     -4782296.6     -2609.2536     -2601.8761     -2662.5042      2.6040338     -9.0614706     -31.483558      5995.7434    
     12300   348.18122      0.0615         0.26399018     0.26169531     0.27025954    -2618.4555      513.65331      513.65331      513.65331      1.3552214e+08  2.7183175     -4776337.9     -4776337.9      1036.8242     -4775301       -2605.3805     -2582.7319     -2667.2543      4.6370966     -1.5240437     -37.05526       6281.3743    
     12400   347.80584      0.062          0.26378036     0.25952752     0.26983316    -2609.2312      513.89525      513.89525      513.89525      1.3571374e+08  2.7144799     -4768670       -4768670        1035.7064     -4767634.3     -2603.3098     -2561.3375     -2663.0463      3.8977306      4.7503865     -40.432392      6000.5993    
     12500   348.07823      0.0625         0.2624198      0.25701937     0.26781943    -2589.8795      514.1372       514.1372       514.1372       1.3590552e+08  2.7106495     -4761710       -4761710        1036.5175     -4760673.5     -2589.8821     -2536.584      -2643.1723     -0.70328519     3.4332335     -38.157956      6354.3588    
     12600   347.83466      0.063          0.25956417     0.25506301     0.26436608    -2562.6886      514.37915      514.37915      514.37915      1.3609747e+08  2.7068263     -4754134.6     -4754134.6      1035.7922     -4753098.8     -2561.6992     -2517.2761     -2609.0904     -4.1320566     -3.1630257     -28.363192      6010.2319    
     12700   346.56603      0.0635         0.25584667     0.25372897     0.26039167    -2532.9955      514.6211       514.6211       514.6211       1.3628961e+08  2.7030103     -4747307.7     -4747307.7      1032.0145     -4746275.7     -2525.0103     -2504.1103     -2569.866      -4.6322987     -9.4449963     -15.818825      6347.4955    
     12800   345.4453       0.064          0.25230816     0.25260426     0.25685881    -2506.0325      514.86304      514.86304      514.86304      1.3648193e+08  2.6992014     -4740556.5     -4740556.5      1028.6771     -4739527.9     -2490.0879     -2493.0102     -2534.9993     -6.1419667     -11.106971     -11.754765      6354.7586    
     12900   344.5545       0.0645         0.25045461     0.251685       0.25534522    -2491.9313      515.10499      515.10499      515.10499      1.3667443e+08  2.6953997     -4733522.7     -4733522.7      1026.0245     -4732496.7     -2471.7948     -2483.9378     -2520.0613     -6.6042864     -8.7021279     -18.92374       5951.1029    
     13000   343.72505      0.065          0.25067563     0.25099037     0.25587038    -2492.1009      515.34694      515.34694      515.34694      1.3686711e+08  2.6916052     -4726832.5     -4726832.5      1023.5545     -4725808.9     -2473.9761     -2477.0823     -2525.2444     -2.97281       -3.8229195     -29.019362      1919.0186    
     13100   343.41634      0.0655         0.25175414     0.2504847      0.25633471    -2495.513       515.58888      515.58888      515.58888      1.3705997e+08  2.6878177     -4719104.6     -4719104.6      1022.6352     -4718082       -2484.6202     -2472.0918     -2529.8269      3.6572878     -0.56675894    -37.450876      3016.9516    
     13200   342.97217      0.066          0.25180471     0.24968879     0.25556016    -2490.5129      515.83083      515.83083      515.83083      1.3725301e+08  2.6840374     -4712377.6     -4712377.6      1021.3126     -4711356.3     -2485.1193     -2464.2367     -2522.1827      7.3298801     -0.41437468    -36.862692      6195.6414    
     13300   342.5882       0.0665         0.24960958     0.24815214     0.25313036    -2470.2429      516.07278      516.07278      516.07278      1.3744624e+08  2.6802642     -4705680       -4705680        1020.1692     -4704659.8     -2463.455      -2449.0712     -2498.2024      5.479202      -2.6727583     -26.024694      6347.1515    
     13400   342.85452      0.067          0.24587689     0.2463694      0.25019235    -2442.4332      516.31472      516.31472      516.31472      1.3763964e+08  2.676498      -4698039.4     -4698039.4      1020.9622     -4697018.4     -2426.6163     -2431.477      -2469.2065      0.71517823    -4.9608187     -9.8817333      6007.6726    
     13500   342.86267      0.0675         0.24217559     0.24506246     0.24761977    -2417.4943      516.55667      516.55667      516.55667      1.3783323e+08  2.6727389     -4691483.4     -4691483.4      1020.9865     -4690462.4     -2390.0873     -2418.5784     -2443.8171     -5.3760969     -5.7670046      3.9177602      6343.1886    
     13600   341.91486      0.068          0.23934043     0.24413682     0.24513263    -2396.9401      516.79862      516.79862      516.79862      1.3802699e+08  2.6689868     -4684306.5     -4684306.5      1018.1641     -4683288.3     -2362.1063     -2409.4431     -2419.271      -8.2827798     -4.1970682      6.6427305      6012.9724    
     13700   340.71041      0.0685         0.23781861     0.24346902     0.24308388    -2382.997       517.04056      517.04056      517.04056      1.3822094e+08  2.6652417     -4677845.6     -4677845.6      1014.5774     -4676831.1     -2347.0872     -2402.8524     -2399.0514     -3.2638984     -1.6085113      0.41068474     6356.8491    
     13800   339.77823      0.069          0.23767663     0.24274015     0.24200297    -2376.5762      517.28251      517.28251      517.28251      1.3841507e+08  2.6615036     -4671065.7     -4671065.7      1011.8016     -4670053.9     -2345.686      -2395.659      -2388.3836      6.699436      -1.0852946     -7.481067       5952.3136    
     13900   338.42389      0.0695         0.23837871     0.24175218     0.24240348    -2376.9533      517.52446      517.52446      517.52446      1.3860939e+08  2.6577726     -4664619.8     -4664619.8      1007.7686     -4663612.1     -2352.615      -2385.9085     -2392.3364      12.087556     -0.7615221     -10.782559      6363.7837    
     14000   337.09007      0.07           0.2392189      0.24036804     0.24322207    -2377.8568      517.7664       517.7664       517.7664       1.3880388e+08  2.6540484     -4658156.8     -4658156.8      1003.7967     -4657153       -2360.907      -2372.2481     -2400.4152      9.3907008      1.7553758     -9.2728075      3610.8504    
     14100   336.37425      0.0705         0.23932742     0.23891145     0.24325121    -2373.5178      518.00835      518.00835      518.00835      1.3899856e+08  2.6503313     -4650335.8     -4650335.8      1001.6651     -4649334.1     -2361.978      -2357.8726     -2400.7028      1.9924575      2.9875806     -6.6933571      5639.8157    
     14200   336.45793      0.071          0.23865223     0.23787432     0.24222072    -2364.4947      518.2503       518.2503       518.2503       1.3919341e+08  2.6466211     -4643880.2     -4643880.2      1001.9143     -4642878.3     -2355.3144     -2347.637      -2390.5327     -7.0575762      0.70026843    -4.2335257      6357.1918    
     14300   337.18597      0.0715         0.23767333     0.23711484     0.24005626    -2351.6553      518.49225      518.49225      518.49225      1.3938845e+08  2.6429178     -4636440.1     -4636440.1      1004.0822     -4635436       -2345.6534     -2340.1416     -2369.171      -11.068206     -4.013435      -2.7214118      5806.508     
     14400   337.6591       0.072          0.23621532     0.2367043      0.23774331    -2337.8993      518.73419      518.73419      518.73419      1.3958367e+08  2.6392214     -4630045.1     -4630045.1      1005.4912     -4629039.6     -2331.2639     -2336.0898     -2346.344      -7.9472048     -7.4283792     -1.8543064      6366.7077    
     14500   338.2361       0.0725         0.23428721     0.23555149     0.23573143    -2321.1452      518.97614      518.97614      518.97614      1.3977908e+08  2.6355319     -4623689.5     -4623689.5      1007.2093     -4622682.3     -2312.235      -2324.7124     -2326.4883     -0.95750708    -5.2934051     -3.049934       6370.3709    
     14600   339.55905      0.073          0.23257836     0.23395026     0.23473544    -2306.9794      519.21809      519.21809      519.21809      1.3997467e+08  2.6318493     -4617045       -4617045        1011.1489     -4616033.8     -2295.37       -2308.9096     -2316.6586      7.0078184     -1.8026488     -7.3477992      6023.5303    
     14700   339.98949      0.0735         0.23191774     0.23271522     0.23557047    -2303.4902      519.46003      519.46003      519.46003      1.4017043e+08  2.6281735     -4610759.3     -4610759.3      1012.4306     -4609746.9     -2288.8502     -2296.7207     -2324.8998      11.763204     -0.31912755    -12.663631      6381.1062    
     14800   339.10336      0.074          0.23227557     0.23131357     0.23698206    -2304.7001      519.70198      519.70198      519.70198      1.4036638e+08  2.6245046     -4603448.2     -4603448.2      1009.7919     -4602438.4     -2292.3816     -2282.8875     -2338.8311      10.550028      0.79388399    -17.71062       6030.9575    
     14900   337.88551      0.0745         0.23277283     0.22972332     0.23751346    -2302.8526      519.94393      519.94393      519.94393      1.4056252e+08  2.6208425     -4597133.6     -4597133.6      1006.1654     -4596127.4     -2297.2893     -2267.1929     -2344.0756      3.8424289     -0.20066565    -18.502128      6322.0528    
     15000   336.51125      0.075          0.2320136      0.22804907     0.23544695    -2288.0488      520.18587      520.18587      520.18587      1.4075883e+08  2.6171872     -4589812.1     -4589812.1      1002.0731     -4588810       -2289.7962     -2250.6693     -2323.6807     -4.2709861     -2.6123788     -13.575526      3263.1239    
     15100   335.86         0.0755         0.22982407     0.22684653     0.23122612    -2263.0043      520.42782      520.42782      520.42782      1.4095533e+08  2.6135387     -4583562       -4583562        1000.1337     -4582561.9     -2268.1872     -2238.8012     -2282.0244     -9.5113539     -5.3745617     -6.0714516      5791.7069    
     15200   335.78581      0.076          0.22714956     0.22607869     0.22715522    -2238.2876      520.66977      520.66977      520.66977      1.4115202e+08  2.609897      -4577384.7     -4577384.7      999.91279     -4576384.7     -2241.7918     -2231.2232     -2241.8477     -8.0518501     -8.8636437     -0.56409853     6375.6798    
     15300   335.66213      0.0765         0.2252004      0.22548877     0.22551049    -2224.5239      520.91171      520.91171      520.91171      1.4134888e+08  2.606262      -4570252.5     -4570252.5      999.5445      -4569253       -2222.5552     -2225.4011     -2225.6155     -2.6220441     -9.4306675     -2.5546414      6012.9359    
     15400   335.50556      0.077          0.2252491      0.22491844     0.22700357    -2227.7197      521.15366      521.15366      521.15366      1.4154593e+08  2.6026338     -4564140.4     -4564140.4      999.07827     -4563141.4     -2223.0358     -2219.7724     -2240.351       4.2983003     -4.3402627     -14.948144      6382.5618    
     15500   335.8201       0.0775         0.22694432     0.22439893     0.22976131    -2240.6598      521.39561      521.39561      521.39561      1.4174316e+08  2.5990123     -4557652.3     -4557652.3      1000.0149     -4556652.3     -2239.7663     -2214.6452     -2267.5678      9.9745259      0.75039794    -31.081434      5967.7486    
     15600   336.03601      0.078          0.22818461     0.22346484     0.23141715    -2247.1144      521.63756      521.63756      521.63756      1.4194057e+08  2.5953976     -4551453.3     -4551453.3      1000.6579     -4550452.7     -2252.007      -2205.4265     -2283.9097      10.327589      0.81267808    -37.92757       6387.9755    
     15700   336.39992      0.0785         0.22728828     0.22182789     0.22972855    -2233.2255      521.8795       521.8795       521.8795       1.4213817e+08  2.5917895     -4545256       -4545256        1001.7415     -4544254.2     -2243.1609     -2189.271      -2267.2445      4.2185662     -3.2826925     -29.962794      6384.3523    
     15800   336.20383      0.079          0.2241145      0.22008686     0.22531317    -2202.5315      522.12145      522.12145      522.12145      1.4233595e+08  2.5881882     -4538111.3     -4538111.3      1001.1576     -4537110.2     -2211.8382     -2172.0884     -2223.6681     -2.664751      -5.9763841     -13.223904      6029.8934    
     15900   335.32117      0.0795         0.21996059     0.21873881     0.22075026    -2169.4207      522.3634       522.3634       522.3634       1.4253391e+08  2.5845934     -4532074.6     -4532074.6      998.52919     -4531076       -2170.8422     -2158.7842     -2178.6356     -5.4818495     -4.2511969      3.0620575      6394.8555    
     16000   334.51441      0.08           0.21668393     0.21787192     0.21826827    -2147.6243      522.60534      522.60534      522.60534      1.4273206e+08  2.5810054     -4525779.1     -4525779.1      996.12678     -4524783       -2138.5041     -2150.2286     -2154.1403     -4.4795317     -0.99699302     8.6569996      3239.6931    
     16100   333.40914      0.0805         0.21538111     0.21723085     0.21822772    -2141.0961      522.84729      522.84729      522.84729      1.4293039e+08  2.577424      -4519849.3     -4519849.3      992.83548     -4518856.5     -2125.6463     -2143.9019     -2153.7402     -1.8499648      1.0970579      3.2514825      5913.0497    
     16200   332.53354      0.081          0.21559197     0.2165131      0.21926853    -2142.8525      523.08924      523.08924      523.08924      1.4312891e+08  2.5738492     -4513911.6     -4513911.6      990.22809     -4512921.4     -2127.7273     -2136.8182     -2164.0122      1.9467518      0.59280077    -8.9652214      6393.131     
     16300   332.77502      0.0815         0.21614182     0.21557098     0.22004975    -2144.1321      523.33118      523.33118      523.33118      1.433276e+08   2.570281      -4506946.1     -4506946.1      990.94717     -4505955.1     -2133.1539     -2127.5202     -2171.7221      4.9400563     -1.7692065     -21.449763      6035.7049    
     16400   333.77029      0.082          0.21649805     0.21426208     0.22004349    -2140.9774      523.57313      523.57313      523.57313      1.4352649e+08  2.5667194     -4500990.6     -4500990.6      993.91093     -4499996.7     -2136.6696     -2114.6023     -2171.6604      5.3160792     -2.4852821     -28.032053      6400.791     
     16500   334.26405      0.0825         0.2167136      0.21269068     0.21881354    -2132.4708      523.81508      523.81508      523.81508      1.4372555e+08  2.5631644     -4494035.3     -4494035.3      995.38125     -4493039.9     -2138.797      -2099.0938     -2159.5218      5.1293595     -2.8013618     -27.881459      6054.6377    
     16600   333.45189      0.083          0.21619864     0.21140944     0.21680762    -2119.9628      524.05702      524.05702      524.05702      1.439248e+08   2.559616      -4488114.1     -4488114.1      992.9628      -4487121.1     -2133.7147     -2086.449      -2139.7248      5.5876424     -4.0858328     -20.83449       6348.4127    
     16700   332.67771      0.0835         0.21448894     0.21031006     0.21403322    -2101.5946      524.29897      524.29897      524.29897      1.4412424e+08  2.5560741     -4480202.7     -4480202.7      990.65741     -4479212       -2116.8413     -2075.5989     -2112.3437      6.0385648     -4.8854805     -11.881895      6056.594     
     16800   332.40997      0.084          0.21200064     0.20935238     0.21204101    -2083.7044      524.54092      524.54092      524.54092      1.4432385e+08  2.5525387     -4474368.1     -4474368.1      989.86013     -4473378.3     -2092.2837     -2066.1473     -2092.6821      6.1256981     -3.3028599     -2.7514563      6407.0673    
     16900   331.62488      0.0845         0.20930311     0.20857646     0.21095973    -2068.7205      524.78287      524.78287      524.78287      1.4452366e+08  2.5490098     -4468575       -4468575        987.52227     -4467587.4     -2065.6611     -2058.4896     -2082.0107      5.2779609     -1.2710672      0.09973685     6416.0168    
     17000   330.7979       0.085          0.20753491     0.20755756     0.21024702    -2057.207       525.02481      525.02481      525.02481      1.4472364e+08  2.5454875     -4460448.1     -4460448.1      985.05967     -4459463.1     -2048.2103     -2048.4339     -2074.9767      1.9355829     -0.2714496     -6.6666492      3129.7563    
     17100   330.69527      0.0855         0.20751478     0.20660967     0.21000366    -2053.2218      525.26676      525.26676      525.26676      1.4492381e+08  2.5419716     -4454703.3     -4454703.3      984.75403     -4453718.6     -2048.0116     -2039.0789     -2072.575      -2.8507741      0.57471145    -16.697125      5224.2796    
     17200   330.65396      0.086          0.20820397     0.20607583     0.20954022    -2052.2083      525.50871      525.50871      525.50871      1.4512417e+08  2.5384622     -4448279.5     -4448279.5      984.63105     -4447294.9     -2054.8135     -2033.8103     -2068.0012     -5.899035       0.29194126    -24.441866      6063.2956    
     17300   330.44775      0.0865         0.20836718     0.20585782     0.20854426    -2048.7516      525.75065      525.75065      525.75065      1.4532471e+08  2.5349593     -4442526.7     -4442526.7      984.01697     -4441542.7     -2056.4242     -2031.6587     -2058.1718     -4.6869572     -1.2649539     -24.775899      6424.1503    
     17400   330.71055      0.087          0.20742452     0.20540287     0.20676001    -2038.2841      525.9926       525.9926       525.9926       1.4552543e+08  2.5314628     -4436787.9     -4436787.9      984.79953     -4435803.1     -2047.1209     -2027.1687     -2040.5626      0.29217733    -3.2411881     -17.525092      6422.2825    
     17500   331.50099      0.0875         0.20556935     0.20466313     0.20513125    -2024.3893      526.23455      526.23455      526.23455      1.4572634e+08  2.5279727     -4430750.5     -4430750.5      987.15333     -4429763.3     -2028.8117     -2019.8681     -2024.488       3.7887116     -6.1487511     -10.059439      6069.7659    
     17600   332.21989      0.088          0.20386621     0.20413832     0.20457512    -2015.2304      526.47649      526.47649      526.47649      1.4592744e+08  2.5244891     -4425085       -4425085        989.29409     -4424095.7     -2012.003      -2014.6886     -2018.9995      4.8800305     -7.6350858     -5.7438276      6427.8828    
     17700   332.49595      0.0885         0.20294307     0.20408276     0.20484496    -2012.8984      526.71844      526.71844      526.71844      1.4612872e+08  2.5210118     -4419093       -4419093        990.11615     -4418102.9     -2002.8924     -2014.1403     -2021.6626      4.6568753     -5.2778848     -4.4906822      6070.9064    
     17800   331.8804       0.089          0.20240024     0.20455353     0.20523808    -2013.9546      526.96039      526.96039      526.96039      1.4633018e+08  2.5175409     -4413426.5     -4413426.5      988.28315     -4412438.2     -1997.5351     -2018.7864     -2025.5424      2.7975353     -2.054708      -5.2234346      6367.6118    
     17900   331.02201      0.0895         0.20155593     0.20493389     0.20435018    -2009.5073      527.20233      527.20233      527.20233      1.4653183e+08  2.5140764     -4407750.8     -4407750.8      985.72702     -4406765       -1989.2023     -2022.5402     -2016.7795      0.55301502    -0.29523048    -5.4794216      6069.1304    
     18000   330.46991      0.09           0.20029924     0.20472799     0.20200022    -1996.965       527.44428      527.44428      527.44428      1.4673366e+08  2.5106183     -4402093.7     -4402093.7      984.08295     -4401109.6     -1976.7998     -2020.5081     -1993.5872     -0.91945045    -0.17259684    -2.6927261      3511.1715    
     18100   330.11065      0.0905         0.19887049     0.2034521      0.19965322    -1980.3465      527.68623      527.68623      527.68623      1.4693568e+08  2.5071665     -4396477.2     -4396477.2      983.01314     -4395494.2     -1962.6991     -2007.9161     -1970.4241     -1.9946969     -0.98752035     1.143742       5426.0679    
     18200   330.48365      0.091          0.19757543     0.20172655     0.19836789    -1966.181       527.92818      527.92818      527.92818      1.4713789e+08  2.503721      -4390571.6     -4390571.6      984.12389     -4389587.4     -1949.9179     -1990.8863     -1957.7389     -2.4796326     -1.581577       1.7296912      6059.5036    
     18300   330.61079      0.0915         0.19729364     0.20101021     0.19857803    -1963.5887      528.17012      528.17012      528.17012      1.4734028e+08  2.5002818     -4385025.8     -4385025.8      984.50247     -4384041.3     -1947.1368     -1983.8166     -1959.8128     -0.86697182    -2.1986555      0.42350152     6370.7212    
     18400   330.06258      0.092          0.19812807     0.20116277     0.19996637    -1971.403       528.41207      528.41207      528.41207      1.4754286e+08  2.4968489     -4379459.9     -4379459.9      982.87001     -4378477       -1955.372      -1985.3222     -1973.5147      3.7056645     -2.7275095     -1.8448271      6074.4259    
     18500   329.26309      0.0925         0.1991319      0.20115826     0.20103844    -1978.2173      528.65402      528.65402      528.65402      1.4774562e+08  2.4934223     -4373852.1     -4373852.1      980.48925     -4372871.7     -1965.2791     -1985.2776     -1984.0951      7.6944485     -1.6230288     -1.8191451      6431.3752    
     18600   329.38898      0.093          0.19899131     0.20018588     0.20054926    -1972.9466      528.89596      528.89596      528.89596      1.4794856e+08  2.490002      -4368234       -4368234        980.86413     -4367253.1     -1963.8915     -1975.6811     -1979.2673      7.7920501     -0.88451217     3.3361318      6419.8129    
     18700   329.82599      0.0935         0.19754217     0.19847724     0.19888194    -1957.0733      529.13791      529.13791      529.13791      1.481517e+08   2.4865879     -4361633.1     -4361633.1      982.16546     -4360650.9     -1949.5896     -1958.8181     -1962.8121      3.896381      -0.84459285     7.662841       6075.67      
     18800   329.68533      0.094          0.19535824     0.19671245     0.19693102    -1937.665       529.37986      529.37986      529.37986      1.4835502e+08  2.4831801     -4356096.5     -4356096.5      981.74662     -4355114.8     -1928.0359     -1941.4009     -1943.558      -0.27461269    -1.3873736      10.141044      6438.1754    
     18900   329.52991      0.0945         0.19353686     0.19537313     0.19545057    -1922.3968      529.6218       529.6218       529.6218       1.4855852e+08  2.4797784     -4349938.2     -4349938.2      981.28381     -4348956.9     -1910.0603     -1928.1829     -1928.9472     -1.5335491     -3.1739819      9.9761349      6033.2662    
     19000   329.82974      0.095          0.19354942     0.19454634     0.19516701    -1918.7853      529.86375      529.86375      529.86375      1.4876221e+08  2.476383      -4344480.8     -4344480.8      982.17663     -4343498.6     -1910.1842     -1920.0231     -1926.1487      1.0082261     -4.5473216      3.7325541      2938.1577    
     19100   330.34425      0.0955         0.19513467     0.19379544     0.19598308    -1924.2148      530.1057       530.1057       530.1057       1.4896609e+08  2.4729938     -4339011.4     -4339011.4      983.70878     -4338027.7     -1925.8295     -1912.6123     -1934.2026      5.1880211     -3.9697292     -7.5418114      4537.4466    
     19200   330.55261      0.096          0.19694529     0.19292083     0.19717094    -1931.2018      530.34764      530.34764      530.34764      1.4917015e+08  2.4696108     -4332499.8     -4332499.8      984.32921     -4331515.5     -1943.6989     -1903.9805     -1945.9259      6.9341319     -1.356563      -19.7831        6078.0139    
     19300   330.66087      0.0965         0.19804516     0.19231087     0.19790698    -1935.2348      530.58959      530.58959      530.58959      1.493744e+08   2.4662339     -4326976.7     -4326976.7      984.65161     -4325992.1     -1954.5538     -1897.9607     -1953.19        5.9199209      2.3830893     -26.755758      6440.7239    
     19400   330.48469      0.097          0.1983078      0.19202145     0.19741625    -1933.5324      530.83154      530.83154      530.83154      1.4957884e+08  2.4628632     -4321104.5     -4321104.5      984.12697     -4320120.3     -1957.1458     -1895.1043     -1948.3469      3.8999012      5.1636741     -27.686491      6123.1273    
     19500   329.93744      0.0975         0.19777283     0.19156813     0.19600455    -1925.637       531.07349      531.07349      531.07349      1.4978346e+08  2.4594987     -4315577.6     -4315577.6      982.49736     -4314595.1     -1951.8661     -1890.6305     -1934.4145      1.6590696      4.9637076     -24.578383      6448.78      
     19600   329.58668      0.098          0.19664403     0.19087196     0.19387913    -1912.6412      531.31543      531.31543      531.31543      1.4998827e+08  2.4561402     -4309402.8     -4309402.8      981.45285     -4308421.3     -1940.7257     -1883.7598     -1913.4382     -0.65682194     2.0025402     -20.132647      6189.6314    
     19700   329.35938      0.0985         0.19483984     0.19026693     0.19157897    -1897.1486      531.55738      531.55738      531.55738      1.5019326e+08  2.4527879     -4303939.5     -4303939.5      980.77598     -4302958.8     -1922.9197     -1877.7886     -1890.7374     -1.1559566     -1.720226      -17.628161      6455.3408    
     19800   329.51929      0.099          0.19234009     0.18950212     0.18969961    -1880.2264      531.79933      531.79933      531.79933      1.5039845e+08  2.4494417     -4298521.2     -4298521.2      981.25219     -4297539.9     -1898.2491     -1870.2405     -1872.1896      0.26069863    -5.1343937     -16.330037      6450.7427    
     19900   329.95674      0.0995         0.1896134      0.18841767     0.18891071    -1865.0934      532.04127      532.04127      532.04127      1.5060381e+08  2.4461015     -4291801.2     -4291801.2      982.55483     -4290818.6     -1871.3387     -1859.5378     -1864.4037      0.36729417    -7.6510259     -14.629276      6198.3937    
     20000   330.00924      0.1            0.18776717     0.1876027      0.18902858    -1856.7266      532.28322      532.28322      532.28322      1.5080937e+08  2.4427674     -4286461.6     -4286461.6      982.71117     -4285478.9     -1853.1179     -1851.4947     -1865.5671     -0.37670259    -6.2778239     -13.131537      3501.3442    
     20100   329.95595      0.1005         0.18702661     0.1869337      0.18910503    -1852.3409      532.52517      532.52517      532.52517      1.5101511e+08  2.4394394     -4281130.9     -4281130.9      982.55248     -4280148.4     -1845.8091     -1844.8922     -1866.3215      1.6009073     -0.8103431     -12.489535      5447.0456    
     20200   329.83835      0.101          0.18677008     0.18599618     0.18865486    -1846.9319      532.76711      532.76711      532.76711      1.5122104e+08  2.4361174     -4275806.6     -4275806.6      982.20227     -4274824.4     -1843.2774     -1835.6395     -1861.8787      5.7243278      3.5678456     -12.688028      6536.005     
     20300   329.65176      0.1015         0.18627515     0.18493795     0.18744798    -1837.8521      533.00906      533.00906      533.00906      1.5142716e+08  2.4328015     -4270495.9     -4270495.9      981.64665     -4269514.3     -1838.3928     -1825.1956     -1849.9677      6.9017348      3.5960348     -11.684746      6531.1838    
     20400   329.98587      0.102          0.18514538     0.18408531     0.1854849     -1824.8724      533.25101      533.25101      533.25101      1.5163346e+08  2.4294916     -4264542       -4264542        982.64158     -4263559.4     -1827.2428     -1816.7808     -1830.5936      5.1688804      0.80481481    -9.0113404      6283.0698    
     20500   330.10814      0.1025         0.18381976     0.18388048     0.1841704     -1815.5132      533.49295      533.49295      533.49295      1.5183995e+08  2.4261876     -4259297.2     -4259297.2      983.00566     -4258314.2     -1814.16       -1814.7592     -1817.6205      5.0838729     -2.731489      -6.2261787      6536.4787    
     20600   329.57989      0.103          0.18298839     0.18379622     0.18385549    -1811.4651      533.7349       533.7349       533.7349       1.5204663e+08  2.4228897     -4253726.5     -4253726.5      981.43264     -4252745.1     -1805.955      -1813.9276     -1814.5126      4.2844866     -5.1021395     -6.4933808      6196.653     
     20700   329.21195      0.1035         0.18300207     0.18325366     0.18403961    -1810.3309      533.97685      533.97685      533.97685      1.522535e+08   2.4195977     -4248492.2     -4248492.2      980.33698     -4247511.9     -1806.09       -1808.573      -1816.3297      1.4165508     -4.4069472     -9.2293577      6535.6047    
     20800   329.55001      0.104          0.1834213      0.18237846     0.18401892    -1808.7628      534.2188       534.2188       534.2188       1.5246055e+08  2.4163117     -4243255.7     -4243255.7      981.34366     -4242274.3     -1810.2275     -1799.9354     -1816.1255     -1.2201421     -1.8199232     -12.307158      6283.519     
     20900   330.32802      0.1045         0.18353282     0.18173281     0.18362326    -1805.7041      534.46074      534.46074      534.46074      1.5266779e+08  2.4130317     -4238022.7     -4238022.7      983.66043     -4237039.1     -1811.3281     -1793.5634     -1812.2207     -2.6471266     -0.49935029    -12.327103      6543.7977    
     21000   330.2139       0.105          0.18308277     0.18148102     0.18270064    -1800.36        534.70269      534.70269      534.70269      1.5287522e+08  2.4097575     -4232795.3     -4232795.3      983.3206      -4231812       -1806.8864     -1791.0784     -1803.1151     -2.1817428     -0.7598983     -10.19588       1847.543     
     21100   329.67797      0.1055         0.1822123      0.18082821     0.18138578    -1791.0233      534.94464      534.94464      534.94464      1.5308284e+08  2.4064893     -4227245.6     -4227245.6      981.72469     -4226263.9     -1798.2956     -1784.6357     -1790.1385     -0.34317696    -1.8845448     -5.9248408      3052.657     
     21200   329.33325      0.106          0.18109689     0.1800758      0.18028779    -1781.2665      535.18658      535.18658      535.18658      1.5329065e+08  2.403227      -4222059.7     -4222059.7      980.69818     -4221079       -1787.2873     -1777.21       -1779.3021      0.87587383    -2.3702766     -2.9076059      6524.434     
     21300   329.02724      0.1065         0.17985724     0.17936764     0.17950268    -1772.2759      535.42853      535.42853      535.42853      1.5349864e+08  2.3999706     -4216557.4     -4216557.4      979.78693     -4215577.6     -1775.0529     -1770.221      -1771.5537      2.5339035     -0.85812744    -4.0996089      6287.7291    
     21400   329.21512      0.107          0.17877443     0.17854309     0.17917548    -1764.9248      535.67048      535.67048      535.67048      1.5370682e+08  2.3967201     -4211415.4     -4211415.4      980.34641     -4210435.1     -1764.3665     -1762.0833     -1768.3245      4.6447609      1.7658895     -5.7281543      6540.3948    
     21500   329.17247      0.1075         0.17817955     0.17783753     0.17921023    -1760.7609      535.91242      535.91242      535.91242      1.5391519e+08  2.3934754     -4206284       -4206284        980.2194      -4205303.8     -1758.4954     -1755.12       -1768.6674      6.145897       2.1423006     -6.0134118      6482.8977    
     21600   328.81555      0.108          0.17774506     0.17709075     0.17889847    -1755.8493      536.15437      536.15437      536.15437      1.5412374e+08  2.3902366     -4200481.7     -4200481.7      979.15657     -4199502.6     -1754.2074     -1747.7498     -1765.5906      6.2985948     -0.5069252     -6.4007567      6289.3746    
     21700   328.90708      0.1085         0.17717769     0.1764646      0.17804519    -1749.1158      536.39632      536.39632      536.39632      1.5433249e+08  2.3870037     -4195367.8     -4195367.8      979.42911     -4194388.4     -1748.6078     -1741.5702     -1757.1694      4.6074312     -3.5458623     -6.458278       6546.6294    
     21800   329.34974      0.109          0.1764259      0.17594418     0.17683688    -1740.9555      536.63826      536.63826      536.63826      1.5454142e+08  2.3837765     -4189262.6     -4189262.6      980.7473      -4188281.9     -1741.1883     -1736.434      -1745.2443      2.6294103     -5.6739868     -4.6859441      6288.2415    
     21900   329.68258      0.1095         0.17606107     0.17594417     0.17599225    -1736.9767      536.88021      536.88021      536.88021      1.5475055e+08  2.3805552     -4184187       -4184187        981.73842     -4183205.3     -1737.5877     -1736.4339     -1736.9085      1.3534374     -5.4805857     -3.1502184      6552.2865    
[...]
    244700   309.70039      1.2235         0.00064095852  0.00030106877  0.00034650892 -4.2389545      1075.9379      1075.9379      1075.9379      1.2455515e+09  0.29576636    -150025.45     -150025.45      922.23488     -149103.21     -6.3257688     -2.9713177     -3.4197772     -0.30975652     0.11637114     0.024224145    24273.353    
    244800   309.73375      1.224          0.00064177199  0.00030166582  0.0003472979  -4.2461903      1076.1799      1076.1799      1076.1799      1.2463919e+09  0.29556692    -150034.55     -150034.55      922.33421     -149112.22     -6.3337971     -2.9772101     -3.4275638     -0.31486494     0.10927072     0.024715721    22618.56     
    244900   310.01903      1.2245         0.00064519237  0.00030339225  0.00034967358 -4.2709374      1076.4218      1076.4218      1076.4218      1.2472327e+09  0.29536766    -150044.24     -150044.24      923.18375     -149121.06     -6.3675536     -2.9942487     -3.45101       -0.31916619     0.1105852      0.022361812    24360.756    
    245000   310.39085      1.225          0.00064839396  0.00030335742  0.0003522732  -4.2899073      1076.6638      1076.6638      1076.6638      1.2480739e+09  0.29516858    -150054.52     -150054.52      924.29095     -149130.23     -6.3991508     -2.993905      -3.4766662     -0.30905471     0.12130077     0.02889342     4523.0144    
    245100   310.62284      1.2255         0.00065061086  0.0003034005   0.00035400727 -4.3030467      1076.9057      1076.9057      1076.9057      1.2489155e+09  0.29496968    -150064.76     -150064.76      924.98176     -149139.78     -6.4210299     -2.9943301     -3.4937802     -0.29608577     0.13160284     0.03551588     14459.095    
    245200   310.69266      1.226          0.00065197267  0.00030429684  0.00035507519 -4.3139886      1077.1477      1077.1477      1077.1477      1.2497575e+09  0.29477096    -150075.03     -150075.03      925.18969     -149149.84     -6.4344699     -3.0031763     -3.5043196     -0.28771889     0.13729801     0.034969357    17118.548    
    245300   310.60487      1.2265         0.00065283419  0.0003039026   0.00035556362 -4.3171327      1077.3896      1077.3896      1077.3896      1.2505998e+09  0.29457242    -150085.09     -150085.09      924.92826     -149160.16     -6.4429725     -2.9992854     -3.5091401     -0.27760929     0.14258893     0.034653435    19499.651    
    245400   310.43231      1.227          0.00065401689  0.00030301742  0.00035517611 -4.3168366      1077.6316      1077.6316      1077.6316      1.2514426e+09  0.29437405    -150094.9      -150094.9       924.41441     -149170.49     -6.4546449     -2.9905494     -3.5053156     -0.27094372     0.14635936     0.036116407    22564.368    
    245500   310.25936      1.2275         0.00065455948  0.00030217217  0.00035348192 -4.3102675      1077.8735      1077.8735      1077.8735      1.2522857e+09  0.29417587    -150104.61     -150104.61      923.8994      -149180.71     -6.4599998     -2.9822075     -3.4885954     -0.26462551     0.14437578     0.036726519    22709.539    
    245600   310.08606      1.228          0.00065362516  0.000301659    0.00035082622 -4.2967691      1078.1155      1078.1155      1078.1155      1.2531291e+09  0.29397786    -150114.09     -150114.09      923.38334     -149190.71     -6.4507787     -2.9771429     -3.4623856     -0.25653634     0.13807058     0.037053357    24333.47     
    245700   309.97297      1.2285         0.00065236622  0.00030237105  0.00034881684 -4.2883596      1078.3574      1078.3574      1078.3574      1.253973e+09   0.29378003    -150123.47     -150123.47      923.04659     -149200.43     -6.438354      -2.9841702     -3.4425546     -0.25307612     0.13824722     0.043922606    24419.631    
    245800   310.00141      1.229          0.00065138744  0.00030344908  0.00034787427 -4.2855853      1078.5994      1078.5994      1078.5994      1.2548172e+09  0.29358237    -150133.09     -150133.09      923.13127     -149209.95     -6.4286942     -2.9948096     -3.4332522     -0.24956272     0.14741989     0.056517212    21961.23     
    245900   310.10249      1.2295         0.00065071738  0.00030255394  0.00034742466 -4.2789571      1078.8413      1078.8413      1078.8413      1.2556619e+09  0.29338489    -150142.94     -150142.94      923.43226     -149219.51     -6.4220812     -2.9859752     -3.4288148     -0.2345095      0.1620162      0.069378628    24388.549    
    246000   310.12731      1.23           0.00065035258  0.0002990873   0.00034629809 -4.2626465      1079.0833      1079.0833      1079.0833      1.2565068e+09  0.29318759    -150152.7      -150152.7       923.50618     -149229.19     -6.4184809     -2.9517621     -3.4176964     -0.20755565     0.17409252     0.077321492    5725.3477    
    246100   309.98677      1.2305         0.00064940213  0.00029490939  0.00034414493 -4.2386922      1079.3252      1079.3252      1079.3252      1.2573522e+09  0.29299047    -150161.98     -150161.98      923.08767     -149238.9      -6.4091007     -2.9105294     -3.3964464     -0.1760304      0.17732884     0.077534475    18468.779    
    246200   309.73893      1.231          0.00064792201  0.00029242835  0.0003422577  -4.2194525      1079.5671      1079.5671      1079.5671      1.258198e+09   0.29279353    -150170.65     -150170.65      922.34965     -149248.3      -6.3944931     -2.8860434     -3.3778209     -0.15068684     0.17451206     0.073184866    17901.987    
    246300   309.5915       1.2315         0.00064772265  0.0002923211   0.00034226338 -4.2184625      1079.8091      1079.8091      1079.8091      1.2590441e+09  0.29259676    -150179.06     -150179.06      921.91062     -149257.15     -6.3925255     -2.8849849     -3.377877      -0.14008886     0.17475852     0.073518015    24430.304    
    246400   309.69426      1.232          0.00064939194  0.00029259934  0.00034433943 -4.231699       1080.051       1080.051       1080.051       1.2598906e+09  0.29240016    -150187.74     -150187.74      922.21663     -149265.52     -6.4090001     -2.887731      -3.3983659     -0.14000115     0.17827543     0.082904       24400.29     
    246500   310.00019      1.2325         0.00065252128  0.00029240929  0.00034700856 -4.2501493      1080.293       1080.293       1080.293       1.2607375e+09  0.29220374    -150196.86     -150196.86      923.12762     -149273.73     -6.4398844     -2.8858553     -3.4247082     -0.14828223     0.17541475     0.097002966    22527.424    
    246600   310.35809      1.233          0.00065624496  0.0002921463   0.00034822714 -4.2655429      1080.5349      1080.5349      1080.5349      1.2615848e+09  0.2920075     -150206.45     -150206.45      924.19339     -149282.25     -6.4766342     -2.8832598     -3.4367346     -0.16283404     0.15965892     0.1056404      24444.009    
    246700   310.57148      1.2335         0.00065934575  0.00029214491  0.00034718881 -4.2723233      1080.7769      1080.7769      1080.7769      1.2624324e+09  0.29181144    -150216.21     -150216.21      924.82885     -149291.38     -6.5072366     -2.8832461     -3.4264871     -0.17947292     0.13524406     0.10148183     22658.735    
    246800   310.59198      1.234          0.00066155308  0.00029239967  0.00034572784 -4.2756167      1081.0188      1081.0188      1081.0188      1.2632805e+09  0.29161555    -150225.95     -150225.95      924.88988     -149301.06     -6.5290213     -2.8857604     -3.4120685     -0.19698446     0.11609778     0.08987578     24357.545    
    246900   310.49461      1.2345         0.00066229137  0.0002924299   0.0003450248  -4.2758321      1081.2608      1081.2608      1081.2608      1.2641289e+09  0.29141983    -150235.57     -150235.57      924.59992     -149310.97     -6.5363076     -2.8860587     -3.40513       -0.21073188     0.10685197     0.078882355    24424.265    
    247000   310.38257      1.235          0.00066204135  0.00029210234  0.00034503795 -4.2739753      1081.5027      1081.5027      1081.5027      1.2649777e+09  0.29122429    -150245.18     -150245.18      924.2663      -149320.91     -6.5338401     -2.882826      -3.4052598     -0.21999888     0.10702712     0.074198215    5892.0547    
    247100   310.26601      1.2355         0.00066096766  0.00029008692  0.00034455369 -4.2622198      1081.7447      1081.7447      1081.7447      1.2658268e+09  0.29102893    -150254.82     -150254.82      923.91919     -149330.9      -6.5232436     -2.8629353     -3.4004805     -0.22056044     0.10869961     0.072271031    24057.488    
    247200   310.11889      1.236          0.00065908978  0.00028658661  0.00034468623 -4.244963       1081.9866      1081.9866      1081.9866      1.2666764e+09  0.29083374    -150264.33     -150264.33      923.48109     -149340.85     -6.5047104     -2.8283899     -3.4017886     -0.22171805     0.11804712     0.080462179    20853.513    
    247300   310.02266      1.2365         0.00065633498  0.00028262297  0.00034611459 -4.22756        1082.2286      1082.2286      1082.2286      1.2675263e+09  0.29063872    -150273.91     -150273.91      923.19455     -149350.71     -6.4775226     -2.7892719     -3.4158854     -0.22715176     0.13613899     0.098800252    22742.417    
    247400   309.97243      1.237          0.00065239914  0.00027834631  0.0003477447  -4.2059056      1082.4705      1082.4705      1082.4705      1.2683766e+09  0.29044388    -150283.62     -150283.62      923.04497     -149360.58     -6.4386789     -2.7470645     -3.4319734     -0.22844179     0.15087245     0.11465738     22289.765    
    247500   309.93041      1.2375         0.00064776674  0.00027593512  0.00034839033 -4.1848579      1082.7125      1082.7125      1082.7125      1.2692273e+09  0.29024921    -150293.33     -150293.33      922.91983     -149370.41     -6.3929606     -2.7232679     -3.4383452     -0.22784302     0.15392254     0.11702784     23507.873    
    247600   309.93534      1.238          0.00064383141  0.00027746492  0.0003483956  -4.1769617      1082.9544      1082.9544      1082.9544      1.2700784e+09  0.29005472    -150303.05     -150303.05      922.93452     -149380.12     -6.3541219     -2.7383658     -3.4383973     -0.23073476     0.1518537      0.10923011     24280.278    
    247700   310.09599      1.2385         0.00064244461  0.00028139563  0.00034836736 -4.1852376      1083.1964      1083.1964      1083.1964      1.2709298e+09  0.2898604     -150313.2      -150313.2       923.41292     -149389.79     -6.3404353     -2.777159      -3.4381186     -0.23564342     0.15422642     0.10543581     22705.754    
    247800   310.3017       1.239          0.00064274091  0.00028404803  0.00034590683 -4.1868436      1083.4383      1083.4383      1083.4383      1.2717816e+09  0.28966625    -150323.78     -150323.78      924.02548     -149399.76     -6.3433596     -2.8033361     -3.413835      -0.23113558     0.14337323     0.097762366    24312.539    
    247900   310.35137      1.2395         0.00064465167  0.00028417019  0.00034354879 -4.185774       1083.6802      1083.6802      1083.6802      1.2726339e+09  0.28947228    -150334.15     -150334.15      924.17338     -149409.97     -6.3622173     -2.8045417     -3.3905629     -0.21834233     0.12623086     0.086743813    22653.228    
    248000   310.38234      1.24           0.00064850242  0.00028314811  0.00034578541 -4.2024375      1083.9222      1083.9222      1083.9222      1.2734864e+09  0.28927848    -150344.5      -150344.5       924.2656      -149420.23     -6.4002212     -2.7944545     -3.4126366     -0.21086595     0.12727109     0.086828843    4947.3829    
    248100   310.59571      1.2405         0.00065286002  0.00028154835  0.00035228326 -4.2328864      1084.1641      1084.1641      1084.1641      1.2743394e+09  0.28908485    -150355.49     -150355.49      924.901       -149430.59     -6.4432274     -2.7786662     -3.4767655     -0.21077662     0.14833314     0.10193053     17724.136    
    248200   310.85383      1.241          0.00065420807  0.0002783191   0.00035739446 -4.2435122      1084.4061      1084.4061      1084.4061      1.2751928e+09  0.2888914     -150367.14     -150367.14      925.66962     -149441.47     -6.4565316     -2.7467959     -3.5272091     -0.19849676     0.16147548     0.11160819     18452.21     
    248300   310.80764      1.2415         0.00065348496  0.00027642695  0.00035675528 -4.232806       1084.648       1084.648       1084.648       1.2760465e+09  0.28869812    -150378.4      -150378.4       925.53207     -149452.87     -6.4493951     -2.7281219     -3.5209009     -0.18527016     0.15302741     0.10884175     20317.386    
    248400   310.57077      1.242          0.00065535853  0.0002785521   0.00035158171 -4.228941       1084.89        1084.89        1084.89        1.2769006e+09  0.28850501    -150389.24     -150389.24      924.82673     -149464.41     -6.4678858     -2.7490955     -3.4698417     -0.1948272      0.13645139     0.10634398     22023.182    
    248500   310.40578      1.2425         0.00065897902  0.00028221544  0.00034631787 -4.2355862      1085.1319      1085.1319      1085.1319      1.2777551e+09  0.28831207    -150400.06     -150400.06      924.3354      -149475.73     -6.5036172     -2.7852499     -3.4178916     -0.21064916     0.12288757     0.10410176     24351.317    
    248600   310.39475      1.243          0.00066127942  0.00028474605  0.00034463211 -4.2459333      1085.3739      1085.3739      1085.3739      1.27861e+09    0.2881193     -150411.1      -150411.1       924.30257     -149486.79     -6.5263204     -2.810225      -3.4012545     -0.21347421     0.11851825     0.10076916     22556.148    
    248700   310.42023      1.2435         0.00065932225  0.00028499281  0.00034695007 -4.247932       1085.6158      1085.6158      1085.6158      1.2794652e+09  0.28792671    -150422.13     -150422.13      924.37844     -149497.75     -6.5070047     -2.8126604     -3.4241309     -0.19658013     0.12328426     0.097607389    24375.327    
    248800   310.36682      1.244          0.00065567778  0.00028502504  0.0003511016  -4.2497061      1085.8578      1085.8578      1085.8578      1.2803209e+09  0.28773429    -150432.76     -150432.76      924.21939     -149508.54     -6.4710365     -2.8129785     -3.4651034     -0.17599333     0.13104825     0.093523569    24400.826    
    248900   310.4093       1.2445         0.0006564111   0.00028691682  0.00035416233 -4.268411       1086.0997      1086.0997      1086.0997      1.2811769e+09  0.28754204    -150443.47     -150443.47      924.3459      -149519.12     -6.4782739     -2.8316489     -3.4953104     -0.17698297     0.13939        0.095632355    22610.49     
    249000   310.65612      1.245          0.00065908245  0.00028975561  0.00035458886 -4.2879412      1086.3417      1086.3417      1086.3417      1.2820333e+09  0.28734996    -150454.8      -150454.8       925.08088     -149529.72     -6.5046381     -2.8596656     -3.4995199     -0.19371357     0.14515373     0.10750333     6264.2414    
    249100   310.94408      1.2455         0.00066015842  0.00029237364  0.00035337282 -4.296093       1086.5836      1086.5836      1086.5836      1.2828901e+09  0.28715805    -150466.64     -150466.64      925.93838     -149540.7      -6.5152571     -2.8855034     -3.4875186     -0.20977999     0.14904043     0.12005408     16568.021    
    249200   311.01632      1.246          0.00065911441  0.00029336465  0.00035025473 -4.2856609      1086.8256      1086.8256      1086.8256      1.2837473e+09  0.28696632    -150478.5      -150478.5       926.1535      -149552.34     -6.5049534     -2.895284      -3.4567454     -0.21347315     0.14290527     0.11891686     19863.38     
    249300   310.78454      1.2465         0.00065820202  0.00029235267  0.00034809635 -4.2722297      1087.0675      1087.0675      1087.0675      1.2846048e+09  0.28677475    -150489.75     -150489.75      925.46329     -149564.29     -6.4959488     -2.8852965     -3.4354438     -0.21433489     0.14084688     0.1145245      24446.262    
    249400   310.50389      1.247          0.00065934488  0.00029027379  0.00034869141 -4.2711081      1087.3095      1087.3095      1087.3095      1.2854627e+09  0.28658335    -150500.63     -150500.63      924.62757     -149576        -6.507228      -2.8647796     -3.4413167     -0.22027042     0.15511101     0.11397996     22621.635    
    249500   310.40397      1.2475         0.00066150743  0.00028876332  0.00035051306 -4.279246       1087.5514      1087.5514      1087.5514      1.286321e+09   0.28639213    -150511.62     -150511.62      924.33002     -149587.29     -6.5285707     -2.8498724     -3.459295      -0.22943671     0.17903379     0.11405133     24362.809    
    249600   310.47468      1.248          0.00066267516  0.00028821268  0.00035171938 -4.2852446      1087.7933      1087.7933      1087.7933      1.2871797e+09  0.28620107    -150522.89     -150522.89      924.54059     -149598.35     -6.5400953     -2.844438      -3.4712004     -0.23524527     0.19884955     0.11046515     22548.758    
    249700   310.56031      1.2485         0.00066221269  0.00028820051  0.00035240787 -4.2859481      1088.0353      1088.0353      1088.0353      1.2880388e+09  0.28601019    -150534.17     -150534.17      924.79558     -149609.38     -6.5355311     -2.8443179     -3.4779953     -0.23419289     0.20854854     0.10350038     24302.163    
    249800   310.53214      1.249          0.00066103655  0.00028787563  0.00035165177 -4.2785228      1088.2772      1088.2772      1088.2772      1.2888983e+09  0.28581947    -150545.2      -150545.2       924.71167     -149620.49     -6.5239235     -2.8411116     -3.4705332     -0.22657175     0.19830558     0.090075095    24267.233    
    249900   310.30557      1.2495         0.0006601162   0.00028711322  0.00034887371 -4.2638478      1088.5192      1088.5192      1088.5192      1.2897581e+09  0.28562893    -150555.48     -150555.48      924.03699     -149631.44     -6.5148404     -2.8335871     -3.4431159     -0.2194378      0.16633908     0.072513308    22735.607    
    250000   310.16338      1.25           0.00066172769  0.0002882762   0.00034838031 -4.2713519      1088.7611      1088.7611      1088.7611      1.2906183e+09  0.28543855    -150565.36     -150565.36      923.6136      -149641.75     -6.5307445     -2.8450649     -3.4382464     -0.23156804     0.14816351     0.069529692    2020.9526    
Loop time of 29.2343 on 1 procs for 250000 steps with 1000 atoms

Performance: 738.858 ns/day, 0.032 hours/ns, 8551.599 timesteps/s
81.5% CPU use with 1 MPI tasks x 1 OpenMP threads

MPI task timing breakdown:
Section |  min time  |  avg time  |  max time  |%varavg| %total
---------------------------------------------------------------
Pair    | 12.645     | 12.645     | 12.645     |   0.0 | 43.26
Neigh   | 0.52758    | 0.52758    | 0.52758    |   0.0 |  1.80
Comm    | 1.4853     | 1.4853     | 1.4853     |   0.0 |  5.08
Output  | 6.7051     | 6.7051     | 6.7051     |   0.0 | 22.94
Modify  | 6.816      | 6.816      | 6.816      |   0.0 | 23.32
Other   |            | 1.055      |            |       |  3.61

Nlocal:           1000 ave        1000 max        1000 min
Histogram: 1 0 0 0 0 0 0 0 0 0
Nghost:            795 ave         795 max         795 min
Histogram: 1 0 0 0 0 0 0 0 0 0
Neighs:            228 ave         228 max         228 min
Histogram: 1 0 0 0 0 0 0 0 0 0

Total # of neighbors = 228
Ave neighs/atom = 0.228
Neighbor list builds = 1039
Dangerous builds = 0

# restart file
write_restart ./tensile/restart/restart_${usic}_${trial}.tensile.restart
write_restart ./tensile/restart/restart_1_${trial}.tensile.restart
write_restart ./tensile/restart/restart_1_1.tensile.restart
System init for write_restart ...
Generated 0 of 1 mixed pair_coeff terms from geometric mixing rule
Total wall time: 0:00:29
