LAMMPS (23 Jun 2022 - Update 1)
OMP_NUM_THREADS environment is not set. Defaulting to 1 thread. (src/comm.cpp:98)
  using 1 OpenMP thread(s) per MPI task
###

# Read restart info
read_restart ${read_res}
read_restart ./01000/equpmf71.res
Reading restart file ...
  restart file = 23 Jun 2022, LAMMPS = 23 Jun 2022
WARNING: Restart file used different # of processors: 4 vs. 1 (src/read_restart.cpp:654)
  restoring atom style atomic from restart
  orthogonal box = (1952.1094 1952.1094 1952.1094) to (3047.8906 3047.8906 3047.8906)
  1 by 1 by 1 MPI processor grid
  restoring pair style table from restart
  1000 atoms
  read_restart CPU = 0.046 seconds

# Settings
pair_style table/pgn spline 9941
pair_coeff 1 1 N20.txt DE_GNP 147.89 75.6
pair_coeff 2 2 N100.txt DE_GNP 473.9 115.92
WARNING: 3 of 9941 force values in table DE_GNP are inconsistent with -dE/dr.
WARNING:  Should only be flagged at inflection points (src/pair_table_pgn.cpp:478)
pair_coeff 1 2 mixed_potential.txt DE_GNP 391.2 95.66
WARNING: 1562 of 9941 force values in table DE_GNP are inconsistent with -dE/dr.
WARNING:  Should only be flagged at inflection points (src/pair_table_pgn.cpp:478)

# Neighbor list
neighbor 2.0 bin
neigh_modify delay 0 every 1 check yes

# Temperature
variable T equal ${Temp}
variable T equal 300

# Deformation
reset_timestep 0
variable tmp equal "lx"
variable L0 equal ${tmp}
variable L0 equal 1095.78114584161
variable strain equal "(lx - v_L0)/v_L0"
variable stp equal "step"
variable tmpe equal "temp"
variable p1 equal "v_strain"
variable p2 equal "-pxx*1.01325/10000"
variable p3 equal "-pyy*1.01325/10000"
variable p4 equal "-pzz*1.01325/10000"
variable p5 equal "lx"
variable p6 equal "ly"
variable p7 equal "lz"
variable p8 equal "press"
variable p9 equal "epair"
variable p10 equal "etotal"

# Thermo
thermo_style custom step temp v_p1 v_p2 v_p3 v_p4 press lx ly lz vol density epair pe ke etotal pxx pyy pzz pxy pxz pyz spcpu
thermo ${ts_save}
thermo 100

# Dump
dump 1 all custom 1000 ./tensile/trajectory/trajectory_${usic}_${trial}_*.tensile.custom id type x y z ix iy iz
dump 1 all custom 1000 ./tensile/trajectory/trajectory_1_${trial}_*.tensile.custom id type x y z ix iy iz
dump 1 all custom 1000 ./tensile/trajectory/trajectory_1_1_*.tensile.custom id type x y z ix iy iz
dump_modify 1 sort id
dump 2 all cfg 1000 ./tensile/trajectory/ovito/dumpten.tens_*.cfg mass type xs ys zs fx fy fz
dump_modify 2 element N20 N100

fix 1 all nvt temp ${T} ${T} 100
fix 1 all nvt temp 300 ${T} 100
fix 1 all nvt temp 300 300 100
fix 2 all deform 1 x erate ${strain_rate} y erate ${strain_rate} z erate ${strain_rate} units box
fix 2 all deform 1 x erate 5e-6 y erate ${strain_rate} z erate ${strain_rate} units box
fix 2 all deform 1 x erate 5e-6 y erate 5e-6 z erate ${strain_rate} units box
fix 2 all deform 1 x erate 5e-6 y erate 5e-6 z erate 5e-6 units box
fix             def1 all print ${ts_save} "${p1} ${p2} ${p3} ${p4}" file tensile${N20}${N100}_${usic}_${trial}.txt screen no
fix             def1 all print 100 "${p1} ${p2} ${p3} ${p4}" file tensile${N20}${N100}_${usic}_${trial}.txt screen no
fix             def1 all print 100 "${p1} ${p2} ${p3} ${p4}" file tensile0${N100}_${usic}_${trial}.txt screen no
fix             def1 all print 100 "${p1} ${p2} ${p3} ${p4}" file tensile01000_${usic}_${trial}.txt screen no
fix             def1 all print 100 "${p1} ${p2} ${p3} ${p4}" file tensile01000_1_${trial}.txt screen no
fix             def1 all print 100 "${p1} ${p2} ${p3} ${p4}" file tensile01000_1_1.txt screen no

timestep       		${ts}
timestep       		1
run				${steps_tensile}
run				250000
Generated 0 of 1 mixed pair_coeff terms from geometric mixing rule
Unused restart file global fix info:
  fix style: npt, fix ID: 5
Neighbor list info ...
  update every 1 steps, delay 0 steps, check yes
  max neighbors/atom: 2000, page size: 100000
  master list distance cutoff = 117.92
  ghost atom cutoff = 117.92
  binsize = 58.96, bins = 19 19 19
  1 neighbor lists, perpetual/occasional/extra = 1 0 0
  (1) pair table/pgn, perpetual
      attributes: half, newton on
      pair build: half/bin/atomonly/newton
      stencil: half/bin/3d
      bin: standard
Per MPI rank memory allocation (min/avg/max) = 5.843 | 5.843 | 5.843 Mbytes
   Step          Temp           v_p1           v_p2           v_p3           v_p4          Press            Lx             Ly             Lz           Volume        Density         E_pair         PotEng         KinEng         TotEng          Pxx            Pyy            Pzz            Pxy            Pxz            Pyz           S/CPU     
         0   307.6996       3.734985e-15  -0.015390091    0.0023609057   0.020299509   -23.917507      1095.7811      1095.7811      1095.7811      1.3157442e+09  0.53265072    -46979666      -46979666       916.27686     -46978750       151.88839     -23.300328     -200.34058      106.0175       48.2099        30.248211      0            
       100   438.23173      0.0005        -0.012770119    0.0046955275   0.022319087   -46.860747      1096.329       1096.329       1096.329       1.3177188e+09  0.53185255    -46979178      -46979178       1304.9793     -46977873       126.03128     -46.341254     -220.27226      103.94749      47.221475      29.509563      6980.4013    
       200   502.5478       0.001         -0.01023256     0.0070022443   0.024291591   -69.286209      1096.8769      1096.8769      1096.8769      1.3196954e+09  0.53105596    -46948998      -46948998       1496.5015     -46947501       100.98751     -69.106778     -239.73936      101.97839      46.44256       29.116275      6659.7086    
       300   513.39327      0.0015        -0.0078460826   0.0089872844   0.026113202   -89.660017      1097.4248      1097.4248      1097.4248      1.321674e+09   0.53026097    -46838208      -46838208       1528.7975     -46836679       77.434814     -88.6976       -257.71726      100.688        45.415577      29.469121      6743.8196    
       400   499.73887      0.002         -0.0054738591   0.011017918    0.027773324   -109.60567      1097.9727      1097.9727      1097.9727      1.3236545e+09  0.52946756    -46748638      -46748638       1488.137      -46747150       54.022789     -108.7384      -274.10139      98.59932       43.833573      29.173996      6787.6299    
       500   479.83996      0.0025        -0.0031144787   0.013072137    0.029536378   -129.92528      1098.5206      1098.5206      1098.5206      1.325637e+09   0.52867574    -46709372      -46709372       1428.8815     -46707943       30.737514     -129.01196     -291.50139      97.031972      42.66165       28.300919      6778.4175    
       600   461.5672       0.003         -0.00078952404  0.015067686    0.031206803   -149.6339       1099.0685      1099.0685      1099.0685      1.3276215e+09  0.52788549    -46640402      -46640402       1374.4683     -46639027       7.7919965     -148.7065      -307.9872       95.031205      41.757796      28.326423      6770.7301    
       700   447.16703      0.0035         0.0014093504   0.017090116    0.032858227   -168.95367      1099.6164      1099.6164      1099.6164      1.3296079e+09  0.52709681    -46556300      -46556300       1331.5871     -46554968      -13.909207     -168.66633     -324.28548      93.258168      41.047333      27.468003      6779.8237    
       800   436.98739      0.004          0.0035933042   0.019057781    0.034473848   -187.92642      1100.1643      1100.1643      1100.1643      1.3315964e+09  0.52630971    -46478911      -46478911       1301.2738     -46477610      -35.463155     -188.08567     -340.23043      91.15714       40.234498      26.516368      6787.0126    
       900   430.46995      0.0045         0.0057914468   0.020971962    0.036100622   -206.80658      1100.7122      1100.7122      1100.7122      1.3335868e+09  0.52552417    -46430076      -46430076       1281.866      -46428794      -57.157136     -206.97717     -356.28544      89.309903      39.048824      25.750934      6729.5861    
      1000   426.78994      0.005          0.0079861311   0.022872137    0.037705508   -225.55729      1101.2601      1101.2601      1101.2601      1.3355792e+09  0.5247402     -46395239      -46395239       1270.9076     -46393968      -78.816986     -225.73045     -372.12443      87.60631       38.147147      25.149943      4406.2946    
      1100   425.21666      0.0055         0.010056642    0.024660856    0.039269947   -243.39977      1101.8079      1101.8079      1101.8079      1.3375736e+09  0.52395778    -46323490      -46323490       1266.2226     -46322223      -99.251344     -243.38372     -387.56425      85.378474      37.299707      24.416141      6732.8374    
      1200   425.04881      0.006          0.012076853    0.026457925    0.040750483   -260.82823      1102.3558      1102.3558      1102.3558      1.33957e+09    0.52317692    -46258494      -46258494       1265.7228     -46257228      -119.18927     -261.11942     -402.176        83.986218      36.716564      23.786332      6836.9154    
      1300   425.96172      0.0065         0.014100095    0.028260484    0.042238099   -278.30801      1102.9037      1102.9037      1102.9037      1.3415684e+09  0.52239761    -46229367      -46229367       1268.4413     -46228098      -139.15711     -278.90929     -416.85763      82.225035      35.754182      23.306078      6829.2306    
      1400   427.91779      0.007          0.016141567    0.030026861    0.043717941   -295.70316      1103.4516      1103.4516      1103.4516      1.3435687e+09  0.52161985    -46221568      -46221568       1274.2661     -46220294      -159.30488     -296.34208     -431.46253      80.568539      34.920916      22.846386      7142.5235    
      1500   430.47466      0.0075         0.018105002    0.031752349    0.045095651   -312.37109      1103.9995      1103.9995      1103.9995      1.3455711e+09  0.52084363    -46184189      -46184189       1281.88       -46182908      -178.68247     -313.37132     -445.05947      78.64343       34.356126      22.152307      6743.8032    
      1600   433.18391      0.008          0.019982529    0.033392266    0.046417511   -328.29116      1104.5474      1104.5474      1104.5474      1.3475754e+09  0.52006895    -46117245      -46117245       1289.9477     -46115955      -197.21223     -329.55604     -458.10522      76.846778      33.586437      21.568575      6841.5738    
      1700   436.13436      0.0085         0.021791161    0.034996747    0.047685287   -343.69009      1105.0953      1105.0953      1105.0953      1.3495817e+09  0.51929581    -46042574      -46042574       1298.7336     -46041275      -215.06204     -345.39104     -470.61719      74.907958      32.810254      20.746722      6847.5399    
      1800   439.41442      0.009          0.023557434    0.036527512    0.048945088   -358.68092      1105.6432      1105.6432      1105.6432      1.35159e+09    0.51852419    -45967453      -45967453       1308.5011     -45966145      -232.4938      -360.49851     -483.05046      73.34516       32.075153      20.434415      6857.4778    
      1900   442.97812      0.0095         0.025355039    0.038043829    0.05018259    -373.65394      1106.1911      1106.1911      1106.1911      1.3536003e+09  0.51775411    -45906447      -45906447       1319.1132     -45905128      -250.23478     -375.4634      -495.26366      71.581844      31.091364      20.057955      6849.3005    
      2000   446.81709      0.01           0.027124075    0.039600925    0.051359015   -388.46621      1106.739       1106.739       1106.739       1.3556126e+09  0.51698555    -45845013      -45845013       1330.545      -45843683      -267.69381     -390.83074     -506.87407      69.992072      30.263072      19.443015      3864.1234    
      2100   450.77532      0.0105         0.028803872    0.041105326    0.052575219   -402.9424       1107.2868      1107.2868      1107.2868      1.3576269e+09  0.5162185     -45783156      -45783156       1342.3319     -45781814      -284.27212     -405.67802     -518.87707      68.576129      29.477775      19.022407      6713.7984    
      2200   454.84383      0.011          0.030477175    0.042596141    0.053765393   -417.26691      1107.8347      1107.8347      1107.8347      1.3596431e+09  0.51545298    -45742708      -45742708       1354.4472     -45741354      -300.78633     -420.39123     -530.62317      66.993757      28.892812      18.474192      6887.7909    
      2300   458.89389      0.0115         0.032067763    0.04391479     0.054883586   -430.51613      1108.3826      1108.3826      1108.3826      1.3616614e+09  0.51468897    -45658210      -45658210       1366.5076     -45656843      -316.48422     -433.40528     -541.65888      65.39447       27.887377      17.96652       6869.7177    
      2400   462.81712      0.012          0.03360739     0.045266499    0.056004511   -443.71544      1108.9305      1108.9305      1108.9305      1.3636817e+09  0.51392647    -45595149      -45595149       1378.1904     -45593771      -331.67916     -446.74561     -552.72155      63.85167       26.764286      17.203302      6849.8072    
      2500   466.61106      0.0125         0.035184794    0.0466031      0.057074663   -456.8223       1109.4784      1109.4784      1109.4784      1.365704e+09   0.51316547    -45546251      -45546251       1389.4881     -45544862      -347.24692     -459.93684     -563.28313      62.089519      26.118525      16.374777      6886.7075    
      2600   470.3044       0.013          0.036747046    0.04794379     0.058080271   -469.68042      1110.0263      1110.0263      1110.0263      1.3677282e+09  0.51240598    -45489696      -45489696       1400.4862     -45488296      -362.66515     -473.16842     -573.20771      60.279584      25.004389      16.113364      6893.914     
      2700   473.97651      0.0135         0.038294666    0.049241921    0.059084052   -482.3444       1110.5742      1110.5742      1110.5742      1.3697545e+09  0.51164798    -45432775      -45432775       1411.4211     -45431363      -377.93897     -485.97997     -583.11425      58.953488      24.043668      16.273798      6892.7327    
      2800   477.66489      0.014          0.039817731    0.050571266    0.060139886   -495.20152      1111.1221      1111.1221      1111.1221      1.3717827e+09  0.51089148    -45419134      -45419134       1422.4045     -45417712      -392.97045     -499.09959     -593.53453      57.221945      23.346213      15.952668      7128.2498    
      2900   481.37088      0.0145         0.041263694    0.051793975    0.061094797   -507.12219      1111.67        1111.67        1111.67        1.373813e+09   0.51013646    -45376041      -45376041       1433.4403     -45374607      -407.24099     -511.16679     -602.95877      55.393043      22.824315      15.665423      6898.9692    
      3000   484.98954      0.015          0.042692051    0.052938469    0.062007684   -518.58937      1112.2179      1112.2179      1112.2179      1.3758453e+09  0.50938294    -45325325      -45325325       1444.216      -45323881      -421.33779     -522.46207     -611.96826      54.052294      22.317681      14.899943      3295.314     
      3100   488.57288      0.0155         0.044054456    0.054063306    0.06292298    -529.78285      1112.7658      1112.7658      1112.7658      1.3778795e+09  0.5086309     -45259728      -45259728       1454.8866     -45258273      -434.78368     -533.56335     -621.00153      52.222629      21.359413      14.191459      5178.5301    
      3200   492.0048       0.016          0.045377663    0.055197069    0.06375917    -540.61651      1113.3136      1113.3136      1113.3136      1.3799158e+09  0.50788034    -45179253      -45179253       1465.1063     -45177788      -447.84271     -544.75272     -629.25409      51.016445      20.565454      13.282574      6807.2857    
      3300   495.20324      0.0165         0.046695257    0.056292616    0.06456981    -551.22192      1113.8615      1113.8615      1113.8615      1.3819541e+09  0.50713125    -45105738      -45105738       1474.6307     -45104263      -460.84636     -555.56493     -637.25448      49.367506      20.004216      13.522431      6926.606     
      3400   498.37637      0.017          0.048023656    0.057428334    0.065412726   -562.10121      1114.4094      1114.4094      1114.4094      1.3839944e+09  0.50638364    -45075551      -45075551       1484.0797     -45074067      -473.95663     -566.77359     -645.57341      47.92406       18.962836      13.18518       6860.2129    
      3500   501.54154      0.0175         0.049305786    0.058507161    0.066179985   -572.39224      1114.9573      1114.9573      1114.9573      1.3860367e+09  0.50563749    -45030504      -45030504       1493.5051     -45029011      -486.61027     -577.42078     -653.14567      46.680982      18.079653      12.809836      6923.033     
      3600   504.57861      0.018          0.050495024    0.059550212    0.066929689   -582.20223      1115.5052      1115.5052      1115.5052      1.388081e+09   0.50489281    -44970609      -44970609       1502.5489     -44969106      -498.34714     -587.7149      -660.54467      45.283876      17.481349      11.978385      6928.7254    
      3700   507.44257      0.0185         0.051695263    0.060547274    0.067644      -591.7807       1116.0531      1116.0531      1116.0531      1.3901273e+09  0.50414959    -44903142      -44903142       1511.0773     -44901631      -510.19258     -597.55514     -667.59438      43.907901      17.249977      11.631744      6937.7866    
      3800   510.27297      0.019          0.052916029    0.061537511    0.068419259   -601.60473      1116.601       1116.601       1116.601       1.3921756e+09  0.50340783    -44871762      -44871762       1519.5058     -44870243      -522.2406      -607.32801     -675.24559      42.307823      16.425583      11.042884      6943.55      
      3900   513.07168      0.0195         0.054055924    0.062462945    0.069107014   -610.66168      1117.1489      1117.1489      1117.1489      1.3942259e+09  0.50266753    -44811001      -44811001       1527.8399     -44809473      -533.49049     -616.46134     -682.0332       41.230319      15.57628       10.574998      6952.0284    
      4000   515.72916      0.02           0.055213006    0.063406235    0.069811087   -619.88759      1117.6968      1117.6968      1117.6968      1.3962783e+09  0.50192867    -44779077      -44779077       1535.7534     -44777541      -544.91001     -625.77089     -688.98186      39.886339      14.867544      10.222498      4106.8165    
      4100   518.361        0.0205         0.056346968    0.064334848    0.070517953   -628.99834      1118.2447      1118.2447      1118.2447      1.3983326e+09  0.50119127    -44761427      -44761427       1543.5905     -44759883      -556.10134     -634.93559     -695.95808      38.308997      13.982775      9.7603384      7217.3844    
      4200   520.8578       0.021          0.057393054    0.065198427    0.07113767    -637.31936      1118.7925      1118.7925      1118.7925      1.400389e+09   0.5004553     -44714409      -44714409       1551.0256     -44712858      -566.42541     -643.45844     -702.07422      36.527553      13.282651      9.0620245      6951.2721    
      4300   523.25143      0.0215         0.058376275    0.06602227     0.071705684   -645.13275      1119.3404      1119.3404      1119.3404      1.4024474e+09  0.49972078    -44638050      -44638050       1558.1534     -44636492      -576.12904     -651.58914     -707.68008      35.58528       12.480075      8.5718118      6979.3226    
      4400   525.69695      0.022          0.059393624    0.066840492    0.072302073   -653.13328      1119.8883      1119.8883      1119.8883      1.4045078e+09  0.49898769    -44575994      -44575994       1565.4357     -44574428      -586.1695      -659.66437     -713.56598      34.660081      11.910452      7.820481       6972.3056    
      4500   528.10875      0.0225         0.060451032    0.067671972    0.072902489   -661.32246      1120.4362      1120.4362      1120.4362      1.4065702e+09  0.49825604    -44542800      -44542800       1572.6177     -44541227      -596.6053      -667.87044     -719.49162      33.482054      11.383722      7.5431525      6981.914     
      4600   530.28983      0.023          0.061428251    0.068398527    0.073443539   -668.70735      1120.9841      1120.9841      1120.9841      1.4086347e+09  0.49752582    -44487548      -44487548       1579.1126     -44485969      -606.2497      -675.04098     -724.83137      32.158393      10.659547      6.8976086      6975.3618    
      4700   532.23712      0.0235         0.062329298    0.069106648    0.073987627   -675.79101      1121.532       1121.532       1121.532       1.4107011e+09  0.49679702    -44439339      -44439339       1584.9113     -44437755      -615.14235     -682.02959     -730.2011       30.784547      9.3811593      6.5541212      6932.6272    
      4800   534.15839      0.024          0.063244028    0.069819953    0.074508702   -682.86104      1122.0799      1122.0799      1122.0799      1.4127696e+09  0.49606964    -44405458      -44405458       1590.6325     -44403868      -624.17003     -689.06937     -735.34372      29.334336      8.6544399      6.2432492      7011.1708    
      4900   535.87961      0.0245         0.06411972     0.070474364    0.074979926   -689.44489      1122.6278      1122.6278      1122.6278      1.4148401e+09  0.49534369    -44349530      -44349530       1595.758      -44347934      -632.81243     -695.52789     -739.99434      28.040607      7.9626491      5.8301088      7006.106     
      5000   537.42318      0.025          0.064916964    0.071191728    0.075476032   -696.05962      1123.1757      1123.1757      1123.1757      1.4169126e+09  0.49461915    -44307944      -44307944       1600.3545     -44306344      -640.68062     -702.60773     -744.89052      26.795949      7.1932269      5.3110574      4185.2413    
      5100   539.01497      0.0255         0.065732115    0.071769733    0.075946433   -702.19025      1123.7236      1123.7236      1123.7236      1.4189872e+09  0.49389602    -44244331      -44244331       1605.0945     -44242726      -648.72553     -708.3122      -749.53302      25.462113      6.6063807      4.9861189      6129.7579    
      5200   540.66616      0.026          0.066568686    0.072297167    0.076344611   -707.98738      1124.2715      1124.2715      1124.2715      1.4210637e+09  0.4931743     -44165986      -44165986       1610.0115     -44164376      -656.98185     -713.51756     -753.46273      24.054811      5.9921681      4.5089015      7034.5992    
      5300   542.31037      0.0265         0.067337021    0.072868938    0.076792507   -713.86945      1124.8193      1124.8193      1124.8193      1.4231423e+09  0.49245399    -44109285      -44109285       1614.9077     -44107671      -664.56473     -719.16051     -757.88311      22.930985      5.0881318      4.2963598      6743.4139    
      5400   544.02328      0.027          0.068035339    0.073383027    0.077147744   -719.0266       1125.3672      1125.3672      1125.3672      1.4252229e+09  0.49173508    -44030581      -44030581       1620.0084     -44028961      -671.45659     -724.23417     -761.38903      21.689424      4.1857795      3.9580962      7053.0034    
      5500   545.615        0.0275         0.068769995    0.073971807    0.077549858   -724.70322      1125.9151      1125.9151      1125.9151      1.4273056e+09  0.49101757    -44009911      -44009911       1624.7483     -44008287      -678.70709     -730.04498     -765.35759      20.606516      3.4946574      3.5180037      7375.6163    
      5600   546.9801       0.028          0.069472505    0.074530405    0.077914919   -730.05289      1126.463       1126.463       1126.463       1.4293902e+09  0.49030145    -43974516      -43974516       1628.8133     -43972887      -685.64032     -735.55791     -768.96046      19.300476      2.8164721      2.8264547      7038.0119    
      5700   548.07261      0.0285         0.070142325    0.075022203    0.078232973   -734.92064      1127.0109      1127.0109      1127.0109      1.4314769e+09  0.48958673    -43917131      -43917131       1632.0666     -43915499      -692.25092     -740.41157     -772.09941      17.825023      2.4053217      2.2934361      7038.7555    
      5800   549.14599      0.029          0.070805608    0.07552512     0.078554807   -739.81589      1127.5588      1127.5588      1127.5588      1.4335657e+09  0.48887339    -43881408      -43881408       1635.263      -43879773      -698.79702     -745.37498     -775.27566      16.785196      1.9689388      1.9300417      7044.8636    
      5900   549.90999      0.0295         0.071380931    0.075913882    0.078811692   -743.83257      1128.1067      1128.1067      1128.1067      1.4356564e+09  0.48816144    -43801887      -43801887       1637.538      -43800250      -704.47501     -749.21176     -777.81093      16.225175      1.2804123      1.84464        7040.4686    
      6000   550.63893      0.03           0.071992086    0.076347868    0.079032982   -747.9988       1128.6546      1128.6546      1128.6546      1.4377492e+09  0.48745087    -43751328      -43751328       1639.7087     -43749689      -710.50665     -753.49487     -779.99489      15.118518      0.5416385      1.519795       4233.9258    
      6100   551.51064      0.0305         0.072599862    0.076740879    0.079300192   -752.17019      1129.2025      1129.2025      1129.2025      1.4398441e+09  0.48674168    -43715182      -43715182       1642.3045     -43713539      -716.50493     -757.37359     -782.63204      13.843014     -0.015759413    0.98624175     7016.4099    
      6200   552.40779      0.031          0.073175779    0.077160513    0.079531601   -756.20657      1129.7504      1129.7504      1129.7504      1.4419409e+09  0.48603386    -43678902      -43678902       1644.9761     -43677257      -722.18879     -761.51505     -784.91587      12.72795      -0.61257883     0.63074461     7057.556     
      6300   553.20999      0.0315         0.073712193    0.077536353    0.079732275   -759.86782      1130.2983      1130.2983      1130.2983      1.4440398e+09  0.48532742    -43627941      -43627941       1647.3649     -43626293      -727.48278     -765.22431     -786.89637      11.683164     -0.86635067     0.26988698     7064.9809    
      6400   553.86548      0.032          0.074239683    0.077924774    0.079895536   -763.41802      1130.8461      1130.8461      1130.8461      1.4461407e+09  0.48462234    -43584127      -43584127       1649.3168     -43582477      -732.6887      -769.05772     -788.50763      10.694472     -1.1290824     -0.20481218     7054.0348    
      6500   554.39627      0.0325         0.074765918    0.078243613    0.080059903   -766.73882      1131.394       1131.394       1131.394       1.4482437e+09  0.48391863    -43540189      -43540189       1650.8974     -43538538      -737.88224     -772.20443     -790.12981      9.775439      -1.6597129     -0.49287803     7067.8461    
      6600   554.85308      0.033          0.075261169    0.078512705    0.080126915   -769.47377      1131.9419      1131.9419      1131.9419      1.4503487e+09  0.48321628    -43474314      -43474314       1652.2577     -43472662      -742.76999     -774.86015     -790.79116      8.5088153     -2.2606499     -0.43332318     7034.3013    
      6700   555.03179      0.0335         0.07555188     0.078661978    0.080239213   -771.29064      1132.4898      1132.4898      1132.4898      1.4524558e+09  0.48251529    -43364694      -43364694       1652.7899     -43363042      -745.63909     -776.33336     -791.89946      7.8997572     -2.5540671     -0.46950233     6993.6853    
      6800   554.77242      0.034          0.075980963    0.078924346    0.080394658   -774.07671      1133.0377      1133.0377      1133.0377      1.4545648e+09  0.48181565    -43342305      -43342305       1652.0175     -43340653      -749.87381     -778.92274     -793.43358      6.9917557     -2.952159      -0.72805425     7408.9929    
      6900   554.87477      0.0345         0.07637199     0.079144307    0.08048828    -776.3947       1133.5856      1133.5856      1133.5856      1.456676e+09   0.48111737    -43298001      -43298001       1652.3223     -43296348      -753.73294     -781.09358     -794.35756      6.1574194     -3.2208847     -0.9931004      7088.7477    
      7000   555.10856      0.035          0.076732035    0.079354737    0.080561752   -778.51311      1134.1335      1134.1335      1134.1335      1.4587891e+09  0.48042044    -43246333      -43246333       1653.0185     -43244680      -757.28631     -783.17037     -795.08267      5.2056051     -3.7366759     -1.7191013      4457.9975    
      7100   555.08471      0.0355         0.077055798    0.079542507    0.08062547    -780.40554      1134.6814      1134.6814      1134.6814      1.4609043e+09  0.47972485    -43194577      -43194577       1652.9475     -43192924      -760.4816      -785.02351     -795.71152      4.4141838     -4.3179094     -2.1116902      7048.4388    
      7200   555.04562      0.036          0.07735525     0.079695248    0.080682434   -782.08054      1135.2293      1135.2293      1135.2293      1.4630216e+09  0.4790306     -43142752      -43142752       1652.8311     -43141099      -763.43696     -786.53095     -796.27372      2.9652082     -4.9333394     -2.3992548      7104.4086    
      7300   554.81701      0.0365         0.077621134    0.079798434    0.080670813   -783.25645      1135.7772      1135.7772      1135.7772      1.4651409e+09  0.47833769    -43061770      -43061770       1652.1503     -43060117      -766.06103     -787.54931     -796.15902      2.352839      -5.679919      -2.7410835      7044.1242    
      7400   554.42928      0.037          0.077917751    0.07986369     0.080672668   -784.45303      1136.325       1136.325       1136.325       1.4672622e+09  0.47764612    -42995284      -42995284       1650.9957     -42993633      -768.98842     -788.19334     -796.17733      1.7626731     -5.8845164     -3.0967427      7119.1189    
      7500   554.11018      0.0375         0.078134324    0.079930679    0.080653537   -785.32294      1136.8729      1136.8729      1136.8729      1.4693856e+09  0.47695588    -42936020      -42936020       1650.0455     -42934370      -771.12582     -788.85447     -795.98853      1.0615238     -6.4177751     -3.3470161      7135.7087    
      7600   553.94555      0.038          0.078367033    0.080019526    0.08062003    -786.27055      1137.4208      1137.4208      1137.4208      1.4715111e+09  0.47626697    -42905806      -42905806       1649.5553     -42904157      -773.42248     -789.73132     -795.65784      0.31764976    -6.7913749     -3.5595413      7093.6168    
      7700   553.7824       0.0385         0.078550004    0.08007877     0.080579158   -786.93291      1137.9687      1137.9687      1137.9687      1.4736385e+09  0.47557938    -42860993      -42860993       1649.0694     -42859344      -775.22826     -790.31601     -795.25445     -0.76836466    -7.30648       -3.7464448      7153.6505    
      7800   553.50562      0.039          0.078732133    0.08011594     0.080538583   -787.52087      1138.5166      1138.5166      1138.5166      1.4757681e+09  0.47489312    -42816133      -42816133       1648.2452     -42814485      -777.02574     -790.68285     -794.85402     -1.990494      -7.7667353     -4.0057146      7164.5442    
      7900   553.05866      0.0395         0.078826536    0.080162487    0.080459202   -787.72341      1139.0645      1139.0645      1139.0645      1.4778997e+09  0.47420818    -42756689      -42756689       1646.9142     -42755042      -777.95742     -791.14224     -794.07058     -2.745304      -7.9716103     -4.4956113      7173.3855    
      8000   552.39357      0.04           0.07895586     0.080160409    0.080279849   -787.552        1139.6124      1139.6124      1139.6124      1.4800333e+09  0.47352455    -42682674      -42682674       1644.9337     -42681029      -779.23375     -791.12173     -792.30051     -3.4392261     -7.8861471     -4.5731657      4476.715     
      8100   551.44845      0.0405         0.079097092    0.080150413    0.080141928   -787.53         1140.1603      1140.1603      1140.1603      1.482169e+09   0.47284224    -42630473      -42630473       1642.1193     -42628831      -780.6276      -791.02307     -790.93933     -4.2542913     -8.0677812     -4.7830981      7144.8567    
      8200   550.71712      0.041          0.079275935    0.080161703    0.080013654   -787.73351      1140.7082      1140.7082      1140.7082      1.4843067e+09  0.47216124    -42607355      -42607355       1639.9416     -42605715      -782.39264     -791.1345      -789.67337     -5.0905669     -8.367007      -5.1177799      7515.8489    
      8300   549.91909      0.0415         0.079340129    0.080091292    0.079840646   -787.1439       1141.2561      1141.2561      1141.2561      1.4864465e+09  0.47148155    -42547853      -42547853       1637.5651     -42546216      -783.02619     -790.4396      -787.96592     -5.9189619     -8.8356029     -5.4345885      7178.8261    
      8400   548.93484      0.042          0.079360722    0.080009308    0.079601881   -786.15646      1141.804       1141.804       1141.804       1.4885884e+09  0.47080316    -42488340      -42488340       1634.6342     -42486706      -783.22943     -789.63047     -785.60949     -6.5889546     -8.9653262     -5.4637368      7190.0728    
      8500   547.74275      0.0425         0.079346019    0.079905347    0.079390924   -785.0721       1142.3518      1142.3518      1142.3518      1.4907323e+09  0.47012607    -42428831      -42428831       1631.0844     -42427200      -783.08433     -788.60446     -783.5275      -7.2658261     -9.1536446     -5.8305499      7172.5757    
      8600   546.67847      0.043          0.079406322    0.079868235    0.079210601   -784.55517      1142.8997      1142.8997      1142.8997      1.4928783e+09  0.46945027    -42405691      -42405691       1627.9151     -42404063      -783.67947     -788.23819     -781.74785     -8.2869776     -9.3348561     -6.1122666      7181.6823    
      8700   545.28195      0.0435         0.079389984    0.079788899    0.078976487   -783.47025      1143.4476      1143.4476      1143.4476      1.4950263e+09  0.46877578    -42346187      -42346187       1623.7565     -42344564      -783.51822     -787.45521     -779.43732     -8.9856235     -9.5175371     -6.5541202      7109.7774    
      8800   543.93895      0.044          0.079366329    0.079621906    0.078748511   -782.09309      1143.9955      1143.9955      1143.9955      1.4971764e+09  0.46810257    -42286701      -42286701       1619.7573     -42285081      -783.28476     -785.80712     -777.18738     -9.737045      -9.7654381     -7.0046779      7191.4425    
      8900   542.68767      0.0445         0.079288782    0.079453749    0.078493264   -780.44509      1144.5434      1144.5434      1144.5434      1.4993285e+09  0.46743065    -42227236      -42227236       1616.0312     -42225620      -782.51944     -784.14754     -774.66829     -10.394126     -9.7922605     -7.2418525      7199.6189    
      9000   541.28881      0.045          0.079205081    0.079288494    0.078206424   -778.68245      1145.0913      1145.0913      1145.0913      1.5014827e+09  0.46676002    -42175070      -42175070       1611.8657     -42173458      -781.69337     -782.51659     -771.83739     -10.979723     -10.09526      -7.277203       4625.2889    
      9100   539.69435      0.0455         0.079078276    0.079039889    0.077861116   -776.31147      1145.6392      1145.6392      1145.6392      1.503639e+09   0.46609067    -42093834      -42093834       1607.1176     -42092227      -780.4419      -780.06305     -768.42946     -11.231055     -10.528002     -7.361259       7189.2752    
      9200   538.20084      0.046          0.078989379    0.078872527    0.077530327   -774.38024      1146.1871      1146.1871      1146.1871      1.5057973e+09  0.4654226     -42056288      -42056288       1602.6702     -42054685      -779.56456     -778.41132     -765.16483     -11.866871     -10.888865     -7.419766       7224.6766    
      9300   536.88542      0.0465         0.078871061    0.078604248    0.077171996   -771.92962      1146.735       1146.735       1146.735       1.5079577e+09  0.46475581    -41989681      -41989681       1598.7531     -41988082      -778.39686     -775.76362     -761.62838     -12.305046     -10.905407     -7.5269739      7221.3074    
      9400   535.27489      0.047          0.078685714    0.078365593    0.076843409   -769.45379      1147.2829      1147.2829      1147.2829      1.5101202e+09  0.46409028    -41930402      -41930402       1593.9572     -41928808      -776.56761     -773.40827     -758.38548     -13.36037      -10.547859     -7.8276259      7141.3896    
      9500   533.58105      0.0475         0.078567073    0.078161187    0.076537435   -767.38447      1147.8308      1147.8308      1147.8308      1.5122847e+09  0.46342603    -41907548      -41907548       1588.9133     -41905959      -775.39672     -771.39094     -755.36576     -14.065788     -10.650544     -8.0629311      7558.9287    
      9600   531.73054      0.048          0.078388889    0.077915587    0.076200958   -764.88341      1148.3786      1148.3786      1148.3786      1.5144513e+09  0.46276305    -41855648      -41855648       1583.4028     -41854065      -773.63818     -768.96705     -752.04499     -14.500404     -10.996393     -8.3256036      7245.5829    
      9700   529.96392      0.0485         0.078226719    0.077601798    0.075814499   -762.04627      1148.9265      1148.9265      1148.9265      1.51662e+09    0.46210133    -41789256      -41789256       1578.1421     -41787678      -772.03769     -765.8702      -748.23093     -15.126836     -11.218715     -8.3261992      7251.0017    
      9800   528.13028      0.049          0.078043666    0.077327683    0.07541685    -759.23414      1149.4744      1149.4744      1149.4744      1.5187907e+09  0.46144087    -41744743      -41744743       1572.6818     -41743171      -770.2311      -763.1649      -744.30644     -15.479805     -11.246193     -8.2327013      7246.871     
      9900   526.29528      0.0495         0.077825499    0.077051059    0.075011046   -756.27142      1150.0223      1150.0223      1150.0223      1.5209635e+09  0.46078167    -41707566      -41707566       1567.2175     -41705999      -768.07795     -760.43483     -740.30146     -16.223709     -10.98708      -8.1703648      7259.6873    
     10000   524.37678      0.05           0.077606679    0.076730686    0.074576431   -753.06783      1150.5702      1150.5702      1150.5702      1.5231384e+09  0.46012372    -41663182      -41663182       1561.5045     -41661621      -765.91837     -757.27299     -736.01214     -16.84399      -10.953221     -8.0067932      4587.342     
     10100   522.333        0.0505         0.077359456    0.07636932     0.074170233   -749.72945      1151.1181      1151.1181      1151.1181      1.5253154e+09  0.45946703    -41611599      -41611599       1555.4185     -41610044      -763.47847     -753.70659     -732.00329     -17.325758     -11.049252     -8.0617833      7254.5513    
     10200   520.21562      0.051          0.077108187    0.076019186    0.073736764   -746.32498      1151.666       1151.666       1151.666       1.5274944e+09  0.45881158    -41560089      -41560089       1549.1133     -41558540      -760.99864     -750.25103     -727.72528     -17.638102     -11.021623     -8.2257242      7265.5415    
     10300   518.10969      0.0515         0.076821185    0.075625443    0.073309078   -742.67853      1152.2139      1152.2139      1152.2139      1.5296755e+09  0.45815738    -41501391      -41501391       1542.8422     -41499848      -758.16615     -746.36509     -723.50434     -18.02513      -10.9775       -8.1468681      7274.8547    
     10400   515.97989      0.052          0.076524937    0.075273383    0.072852906   -739.04507      1152.7618      1152.7618      1152.7618      1.5318586e+09  0.45750443    -41457333      -41457333       1536.5        -41455796      -755.2424      -742.89053     -719.00228     -18.490953     -10.98206      -8.1176085      7272.9632    
     10500   513.78545      0.0525         0.076243928    0.074908333    0.072406057   -735.44969      1153.3097      1153.3097      1153.3097      1.5340439e+09  0.45685271    -41427907      -41427907       1529.9653     -41426377      -752.46907     -739.28777     -714.59222     -18.614741     -11.04346      -8.1896685      7269.9763    
     10600   511.56858      0.053          0.075914547    0.074513256    0.071943426   -731.54446      1153.8575      1153.8575      1153.8575      1.5362312e+09  0.45620223    -41391291      -41391291       1523.3639     -41389767      -749.21832     -735.38866     -710.02641     -18.727113     -10.989564     -8.2593989      7275.9086    
     10700   509.26688      0.0535         0.075548098    0.074047551    0.071439725   -727.14985      1154.4054      1154.4054      1154.4054      1.5384206e+09  0.45555299    -41332945      -41332945       1516.5098     -41331428      -745.60175     -730.79251     -705.05527     -19.033012     -10.806248     -8.0465988      7268.9184    
     10800   506.8734       0.054          0.075194296    0.073626403    0.070952456   -722.99747      1154.9533      1154.9533      1154.9533      1.5406121e+09  0.45490498    -41296532      -41296532       1509.3824     -41295022      -742.11        -726.6361      -700.24629     -19.585892     -10.745818     -7.953346       7219.0006    
     10900   504.59717      0.0545         0.074873001    0.07323279     0.070474885   -719.07451      1155.5012      1155.5012      1155.5012      1.5428057e+09  0.45425819    -41274775      -41274775       1502.6042     -41273272      -738.93906     -722.75144     -695.53303     -20.120066     -10.892193     -7.968636       7624.8704    
     11000   502.20889      0.055          0.074530713    0.072778579    0.069987927   -714.85227      1156.0491      1156.0491      1156.0491      1.5450013e+09  0.45361264    -41238571      -41238571       1495.4923     -41237076      -735.56095     -718.26873     -690.72714     -20.238628     -11.044562     -7.9770594      4557.1064    
     11100   499.77227      0.0555         0.074141597    0.072291683    0.069495461   -710.35033      1156.597       1156.597       1156.597       1.547199e+09   0.4529683     -41195204      -41195204       1488.2365     -41193716      -731.72068     -713.46344     -685.86688     -20.130474     -11.117888     -7.8468943      7287.6513    
     11200   497.33989      0.056          0.0737087      0.071842567    0.068989616   -705.78463      1157.1449      1157.1449      1157.1449      1.5493988e+09  0.45232518    -41159225      -41159225       1480.9933     -41157744      -727.44831     -709.03101     -680.87457     -20.16156      -11.170344     -7.7660986      7315.8589    
     11300   494.74279      0.0565         0.073286145    0.071367878    0.068480141   -701.15688      1157.6928      1157.6928      1157.6928      1.5516007e+09  0.45168328    -41123359      -41123359       1473.2596     -41121885      -723.27801     -704.3462      -675.84645     -20.624887     -11.16194      -7.6654144      7324.7581    
     11400   492.08104      0.057          0.07287384     0.070872033    0.067942957   -696.40211      1158.2407      1158.2407      1158.2407      1.5538047e+09  0.4510426     -41073061      -41073061       1465.3333     -41071596      -719.20888     -699.45258     -670.54485     -20.971578     -10.948597     -7.5930198      7246.8804    
     11500   489.46554      0.0575         0.072455689    0.070341157    0.067416126   -691.54691      1158.7886      1158.7886      1158.7886      1.5560108e+09  0.45040312    -41015610      -41015610       1457.5448     -41014152      -715.08205     -694.21324     -665.34543     -20.944656     -10.93668      -7.5096417      7314.5842    
     11600   486.92296      0.058          0.072013465    0.069808394    0.066910656   -686.67659      1159.3365      1159.3365      1159.3365      1.5582189e+09  0.44976486    -40965557      -40965557       1449.9734     -40964107      -710.71764     -688.95528     -660.35683     -21.451897     -10.693912     -7.4878445      7315.084     
     11700   484.25564      0.0585         0.071521533    0.069267532    0.066349056   -681.43144      1159.8843      1159.8843      1159.8843      1.5604292e+09  0.4491278     -40893810      -40893810       1442.0306     -40892368      -705.86265     -683.61739     -654.81428     -21.44013      -10.871186     -7.234324       7313.6224    
     11800   481.61497      0.059          0.071078752    0.068774502    0.06583366    -676.65734      1160.4322      1160.4322      1160.4322      1.5626415e+09  0.44849194    -40873121      -40873121       1434.1672     -40871687      -701.49274     -678.75156     -649.7277      -21.522729     -11.050045     -7.1497966      7315.388     
     11900   479.01614      0.0595         0.070597142    0.068239495    0.065307612   -671.58236      1160.9801      1160.9801      1160.9801      1.5648559e+09  0.44785728    -40838006      -40838006       1426.4283     -40836579      -696.73962     -673.47145     -644.53602     -21.346513     -11.132671     -7.0236939      7316.8738    
     12000   476.33246      0.06           0.070119209    0.067725527    0.064794568   -666.63148      1161.528       1161.528       1161.528       1.5670724e+09  0.44722382    -40803019      -40803019       1418.4367     -40801600      -692.02279     -668.39899     -639.47266     -21.474733     -10.956521     -6.8963997      4502.0122    
     12100   473.64635      0.0605         0.069654404    0.067235724    0.064292272   -661.83864      1162.0759      1162.0759      1162.0759      1.569291e+09   0.44659155    -40775438      -40775438       1410.4379     -40774028      -687.43552     -663.56501     -634.51539     -21.568198     -10.672156     -6.8441352      7241.3       
     12200   470.98918      0.061          0.069152834    0.066709024    0.063764532   -656.71976      1162.6238      1162.6238      1162.6238      1.5715117e+09  0.44596048    -40733436      -40733436       1402.5254     -40732034      -682.48541     -658.36688     -629.307       -21.404087     -10.464117     -6.6517272      7322.0191    
     12300   468.38883      0.0615         0.068674024    0.066177793    0.06323416    -651.6522       1163.1717      1163.1717      1163.1717      1.5737345e+09  0.44533059    -40706115      -40706115       1394.782      -40704721      -677.75992     -653.12403     -624.07264     -21.181172     -10.397241     -6.5719106      7321.4546    
     12400   465.87707      0.062          0.068190978    0.06563492     0.06271516    -646.56981      1163.7196      1163.7196      1163.7196      1.5759594e+09  0.44470189    -40686201      -40686201       1387.3024     -40684814      -672.99263     -647.7663      -618.95051     -21.083562     -10.512509     -6.5143462      7661.0095    
     12500   463.19167      0.0625         0.067662063    0.065007383    0.062194714   -641.05324      1164.2675      1164.2675      1164.2675      1.5781864e+09  0.44407437    -40630060      -40630060       1379.3057     -40628681      -667.77264     -641.57298     -613.8141      -20.697293     -10.496213     -6.2401812      7327.3789    
     12600   460.58037      0.063          0.067157602    0.06447192     0.061728774   -636.09934      1164.8154      1164.8154      1164.8154      1.5804154e+09  0.44344803    -40603152      -40603152       1371.5297     -40601781      -662.794       -636.28838     -609.21563     -20.50078      -10.41382      -6.0488568      7328.2423    
     12700   457.89903      0.0635         0.066679088    0.063959742    0.061244001   -631.24543      1165.3632      1165.3632      1165.3632      1.5826466e+09  0.44282287    -40576378      -40576378       1363.5451     -40575014      -658.07143     -631.23357     -604.4313      -20.272507     -10.216156     -5.7207422      7332.6346    
     12800   455.28662      0.064          0.066177967    0.06341069     0.060714992   -626.05033      1165.9111      1165.9111      1165.9111      1.5848799e+09  0.44219888    -40535191      -40535191       1355.7658     -40533836      -653.12576     -625.81485     -599.21039     -19.927308     -10.006593     -5.6330365      7251.3808    
     12900   452.54206      0.0645         0.065645499    0.06286135     0.060182004   -620.73806      1166.459       1166.459       1166.459       1.5871153e+09  0.44157606    -40501419      -40501419       1347.593      -40500071      -647.8707      -620.39329     -593.9502      -19.476645     -9.8769936     -5.4108139      7337.7558    
     13000   449.83697      0.065          0.065084439    0.062286947    0.059644509   -615.23446      1167.0069      1167.0069      1167.0069      1.5893527e+09  0.44095442    -40453229      -40453229       1339.5377     -40451889      -642.33347     -614.72437     -588.64554     -19.189367     -9.647692      -5.1625236      4402.0073    
     13100   447.33791      0.0655         0.064580971    0.061757269    0.059172939   -610.28433      1167.5548      1167.5548      1167.5548      1.5915923e+09  0.44033394    -40434274      -40434274       1332.0959     -40432942      -637.36463     -609.49685     -583.9915      -18.93664      -9.628941      -5.0900343      7318.7299    
     13200   444.92226      0.066          0.064053977    0.061219389    0.058713711   -605.27042      1168.1027      1168.1027      1168.1027      1.593834e+09   0.43971462    -40393632      -40393632       1324.9025     -40392307      -632.1636      -604.18839     -579.45927     -18.835311     -9.7432322     -4.978671       7345.7413    
     13300   442.46539      0.0665         0.063509128    0.060689784    0.058240046   -600.17751      1168.6506      1168.6506      1168.6506      1.5960778e+09  0.43909647    -40345857      -40345857       1317.5864     -40344539      -626.78636     -598.9616      -574.78456     -18.559435     -9.4435045     -4.7972958      7337.3224    
     13400   439.98903      0.067          0.063013334    0.060139766    0.057750599   -595.1269       1169.1985      1169.1985      1169.1985      1.5983237e+09  0.43847947    -40312774      -40312774       1310.2122     -40311464      -621.89325     -593.53335     -569.95409     -18.246304     -9.2843744     -4.5496403      7357.2917    
     13500   437.51791      0.0675         0.062500226    0.059598445    0.057280614   -590.11196      1169.7464      1169.7464      1169.7464      1.6005717e+09  0.43786363    -40287105      -40287105       1302.8536     -40285802      -616.82927     -588.19092     -565.31571     -17.860354     -9.1081668     -4.3531342      7302.0262    
     13600   434.9946       0.068          0.061991503    0.059060353    0.056827412   -585.17729      1170.2943      1170.2943      1170.2943      1.6028218e+09  0.43724894    -40261563      -40261563       1295.3396     -40260268      -611.80856     -582.88037     -560.84295     -17.349187     -8.9990588     -4.2814766      7398.0847    
     13700   432.42411      0.0685         0.061437045    0.058561912    0.056355282   -580.16034      1170.8422      1170.8422      1170.8422      1.605074e+09   0.4366354     -40221600      -40221600       1287.6852     -40220312      -606.33649     -577.96114     -556.18339     -16.829308     -8.8269123     -3.9248102      7403.4863    
     13800   429.88932      0.069          0.06095371     0.0580786      0.055907648   -575.50772      1171.39        1171.39        1171.39        1.6073283e+09  0.43602301    -40203589      -40203589       1280.137      -40202309      -601.56635     -573.19122     -551.76558     -16.389072     -8.7988754     -3.6775532      7750.0335    
     13900   427.39826      0.0695         0.060456773    0.057537417    0.055437625   -570.54631      1171.9379      1171.9379      1171.9379      1.6095847e+09  0.43541176    -40149342      -40149342       1272.719      -40148070      -596.66196     -567.85015     -547.12682     -15.797459     -8.4192215     -3.4271121      7383.54      
     14000   425.21389      0.07           0.05998962     0.0570494      0.054991701   -565.93707      1172.4858      1172.4858      1172.4858      1.6118432e+09  0.43480166    -40117045      -40117045       1266.2143     -40115779      -592.05152     -563.03381     -542.72589     -15.487055     -8.1011217     -3.4006188      4658.5437    
     14100   423.00595      0.0705         0.059486148    0.056476046    0.054568375   -561.00195      1173.0337      1173.0337      1173.0337      1.6141039e+09  0.43419269    -40055777      -40055777       1259.6395     -40054518      -587.08263     -557.37524     -538.54799     -15.370607     -8.1058462     -3.1260458      7397.2814    
     14200   420.8741       0.071          0.058979407    0.055999643    0.054150071   -556.39155      1173.5816      1173.5816      1173.5816      1.6163667e+09  0.43358486    -40016470      -40016470       1253.2912     -40015217      -582.08149     -552.6735      -534.41965     -14.945332     -8.035543      -2.9851205      7329.3595    
     14300   418.80536      0.0715         0.058482541    0.055557555    0.053768193   -552.04635      1174.1295      1174.1295      1174.1295      1.6186315e+09  0.43297817    -39999109      -39999109       1247.1308     -39997862      -577.17781     -548.31044     -530.65081     -14.509276     -8.0031917     -2.8036405      7398.6622    
     14400   416.52899      0.072          0.057955273    0.055068449    0.053348961   -547.32357      1174.6774      1174.6774      1174.6774      1.6208985e+09  0.4323726     -39945500      -39945500       1240.3522     -39944260      -571.97407     -543.48333     -526.51331     -13.829441     -7.9617395     -2.4869139      7404.9994    
     14500   414.10053      0.0725         0.057506859    0.054570032    0.052950557   -542.89809      1175.2253      1175.2253      1175.2253      1.6231676e+09  0.43176817    -39906558      -39906558       1233.1207     -39905325      -567.54857     -538.56434     -522.58137     -13.13626      -7.868847      -2.1788071      7410.0564    
     14600   411.78774      0.073          0.057038816    0.054129495    0.052571949   -538.66358      1175.7732      1175.7732      1175.7732      1.6254389e+09  0.43116486    -39875001      -39875001       1226.2336     -39873774      -562.92935     -534.21658     -518.8448      -12.785259     -7.7013431     -2.0555445      7410.1151    
     14700   409.67058      0.0735         0.056582863    0.053698068    0.052178955   -534.45147      1176.3211      1176.3211      1176.3211      1.6277122e+09  0.43056267    -39836274      -39836274       1219.929      -39835054      -558.42944     -529.95872     -514.96625     -12.418387     -7.3969823     -1.9103539      7410.0388    
     14800   407.68703      0.074          0.056117672    0.053264517    0.051831742   -530.3526       1176.869       1176.869       1176.869       1.6299877e+09  0.42996161    -39797658      -39797658       1214.0223     -39796444      -553.83837     -525.67991     -511.53952     -12.097409     -6.9401603     -1.682476       7422.5709    
     14900   405.85442      0.0745         0.055688423    0.052881065    0.051487737   -526.54733      1177.4168      1177.4168      1177.4168      1.6322652e+09  0.42936166    -39780981      -39780981       1208.5652     -39779773      -549.60201     -521.89554     -508.14446     -11.889357     -6.8466092     -1.5378241      7327.8938    
     15000   404.14858      0.075          0.055251116    0.052496192    0.051150837   -522.73425      1177.9647      1177.9647      1177.9647      1.6345449e+09  0.42876283    -39764411      -39764411       1203.4854     -39763207      -545.28612     -518.09713     -504.81951     -11.6107       -6.8698616     -1.4056246      4760.2011    
     15100   402.43018      0.0755         0.054814033    0.052106196    0.050834937   -518.97414      1178.5126      1178.5126      1178.5126      1.6368268e+09  0.42816511    -39747944      -39747944       1198.3684     -39746746      -540.97244     -514.24817     -501.70182     -11.117297     -6.7650404     -1.262794       7421.1657    
     15200   400.63497      0.076          0.054391427    0.051712379    0.050532167   -515.29229      1179.0605      1179.0605      1179.0605      1.6391107e+09  0.42756851    -39731577      -39731577       1193.0225     -39730384      -536.80165     -510.3615      -498.71372     -10.449685     -6.5007027     -1.0764874      7769.922     
     15300   398.70345      0.0765         0.053977766    0.051319709    0.050227702   -511.63805      1179.6084      1179.6084      1179.6084      1.6413968e+09  0.42697301    -39708028      -39708028       1187.2708     -39706840      -532.71913     -506.48615     -495.70888     -9.8257983     -6.0838913     -0.8514842      7419.7236    
     15400   396.97946      0.077          0.053586178    0.050938249    0.049933916   -508.12844      1180.1563      1180.1563      1180.1563      1.643685e+09   0.42637861    -39684568      -39684568       1182.137      -39683386      -528.85446     -502.72143     -492.80944     -9.6835747     -5.8271467     -0.76303029     7446.9041    
     15500   395.43559      0.0775         0.053192276    0.050593167    0.049640292   -504.73143      1180.7042      1180.7042      1180.7042      1.6459753e+09  0.42578532    -39661196      -39661196       1177.5397     -39660018      -524.96694     -499.31574     -489.91159     -9.5455873     -5.5513118     -0.73758285     7438.2408    
     15600   393.93403      0.078          0.052809611    0.050264946    0.049316382   -501.32721      1181.2521      1181.2521      1181.2521      1.6482677e+09  0.42519313    -39630645      -39630645       1173.0683     -39629472      -521.19034     -496.07645     -486.71485     -9.3828914     -5.226609      -0.84130518     7369.8099    
     15700   392.46824      0.0785         0.052417374    0.049938975    0.049026783   -498.01178      1181.8         1181.8         1181.8         1.6505623e+09  0.42460204    -39607463      -39607463       1168.7034     -39606294      -517.31926     -492.85937     -483.85673     -8.9043049     -4.9979211     -0.58967398     7435.9659    
     15800   390.95101      0.079          0.052019113    0.049595805    0.048740838   -494.63198      1182.3479      1182.3479      1182.3479      1.652859e+09   0.42401204    -39584371      -39584371       1164.1853     -39583207      -513.38873     -489.47254     -481.03467     -8.2755541     -4.8404891     -0.32834748     7445.4897    
     15900   389.41137      0.0795         0.051575841    0.049252849    0.048468892   -491.15086      1182.8957      1182.8957      1182.8957      1.6551578e+09  0.42342313    -39554092      -39554092       1159.6006     -39552932      -509.01398     -486.08782     -478.35077     -7.6286141     -4.8693322     -0.23655523     7442.9954    
     16000   387.98217      0.08           0.05119024     0.048920393    0.048205999   -487.92378      1183.4436      1183.4436      1183.4436      1.6574588e+09  0.42283532    -39531173      -39531173       1155.3447     -39530018      -505.20839     -482.80674     -475.75622     -7.3321673     -4.6762909     -0.19805154     4773.6988    
     16100   386.6509       0.0805         0.050844493    0.048602806    0.047957723   -484.92482      1183.9915      1183.9915      1183.9915      1.6597619e+09  0.42224859    -39508340      -39508340       1151.3804     -39507188      -501.79613     -479.6724      -473.30593     -7.1038823     -4.4892641     -0.19047938     7434.5258    
     16200   385.38195      0.081          0.050514064    0.048326934    0.047720381   -482.14945      1184.5394      1184.5394      1184.5394      1.6620671e+09  0.42166295    -39492861      -39492861       1147.6016     -39491713      -498.53505     -476.94975     -470.96355     -6.9350216     -4.2338793     -0.14423791     7451.4727    
     16300   384.20357      0.0815         0.050187984    0.048012037    0.047455592   -479.16971      1185.0873      1185.0873      1185.0873      1.6643745e+09  0.42107839    -39455633      -39455633       1144.0926     -39454489      -495.3169      -473.84197     -468.35028     -6.6628209     -4.157723      -0.20333198     7368.0272    
     16400   383.01989      0.082          0.04983317     0.047732864    0.047214099   -476.28961      1185.6352      1185.6352      1185.6352      1.6666839e+09  0.42049491    -39425754      -39425754       1140.5678     -39424614      -491.81515     -471.08674     -465.96693     -6.2910617     -3.9022412     -0.23545781     7466.9516    
     16500   381.8033       0.0825         0.049502591    0.047460496    0.046990508   -473.57051      1186.1831      1186.1831      1186.1831      1.6689956e+09  0.4199125     -39410497      -39410497       1136.945      -39409360      -488.55259     -468.39868     -463.76025     -5.9706507     -3.9019255     -0.23811836     7788.9979    
     16600   380.33651      0.083          0.049158839    0.047153889    0.046714256   -470.52219      1186.731       1186.731       1186.731       1.6713093e+09  0.41933118    -39366220      -39366220       1132.5772     -39365087      -485.16002     -465.3727      -461.03386     -5.6900076     -3.7352291     -0.24199397     7473.827     
     16700   378.89864      0.0835         0.048754234    0.046863239    0.046489814   -467.49663      1187.2789      1187.2789      1187.2789      1.6736252e+09  0.41875092    -39322028      -39322028       1128.2954     -39320900      -481.16688     -462.50421     -458.81879     -5.3050552     -3.4993022     -0.11619327     7472.5699    
     16800   377.78463      0.084          0.048441532    0.04659022     0.046255317   -464.79832      1187.8268      1187.8268      1187.8268      1.6759433e+09  0.41817174    -39299734      -39299734       1124.9781     -39298609      -478.08075     -459.80972     -456.50449     -5.0026921     -3.2209739     -0.070245597    7479.9166    
     16900   376.82462      0.0845         0.048150654    0.046338911    0.046060712   -462.37446      1188.3747      1188.3747      1188.3747      1.6782635e+09  0.41759362    -39284777      -39284777       1122.1194     -39283655      -475.21001     -457.32949     -454.58388     -4.8138184     -3.0853739     -0.0031843521   7484.7229    
     17000   375.86891      0.085          0.047861495    0.046095688    0.045850405   -459.9312       1188.9225      1188.9225      1188.9225      1.6805858e+09  0.41701657    -39255332      -39255332       1119.2734     -39254213      -472.35623     -454.92907     -452.50831     -4.5769934     -3.2207309     -0.21750728     4462.5258    
     17100   374.97445      0.0855         0.04758159     0.045869304    0.045654344   -457.62065      1189.4704      1189.4704      1189.4704      1.6829102e+09  0.41644058    -39233220      -39233220       1116.6099     -39232104      -469.59378     -452.69484     -450.57334     -4.3438288     -3.182503      -0.25393818     7464.2279    
     17200   373.91793      0.086          0.047267063    0.045548637    0.045436251   -454.81356      1190.0183      1190.0183      1190.0183      1.6852368e+09  0.41586565    -39167525      -39167525       1113.4638     -39166411      -466.48964     -449.5301      -448.42093     -4.0148689     -3.0835186     -0.49294529     7514.7227    
     17300   372.87498      0.0865         0.046949595    0.045333798    0.045238523   -452.41193      1190.5662      1190.5662      1190.5662      1.6875656e+09  0.41529178    -39131000      -39131000       1110.358      -39129890      -463.35648     -447.4098      -446.46951     -3.8198036     -2.7639122     -0.36510944     7520.2168    
     17400   371.95824      0.087          0.046690494    0.045110771    0.04504913    -450.2028       1191.1141      1191.1141      1191.1141      1.6898965e+09  0.41471896    -39109094      -39109094       1107.6281     -39107986      -460.79935     -445.20869     -444.60035     -3.576247      -2.6788558     -0.13331711     7512.1981    
     17500   371.06703      0.0875         0.046426979    0.04487025     0.044884946   -448.00452      1191.662       1191.662       1191.662       1.6922295e+09  0.4141472     -39087243      -39087243       1104.9743     -39086138      -458.19866     -442.83494     -442.97997     -3.2246863     -2.4982397     -0.049387188    7506.9349    
     17600   370.18775      0.088          0.046171523    0.044651413    0.044715778   -445.8877       1192.2099      1192.2099      1192.2099      1.6945647e+09  0.41357648    -39072716      -39072716       1102.3559     -39071614      -455.67751     -440.67518     -441.31042     -3.0038269     -2.398257      -0.15479661     7504.8746    
     17700   369.40447      0.0885         0.04592461     0.044418564    0.044529607   -443.69695      1192.7578      1192.7578      1192.7578      1.696902e+09   0.41300682    -39050960      -39050960       1100.0234     -39049860      -453.24066     -438.37714     -439.47305     -2.8889382     -2.3554776     -0.18709898     7510.8304    
     17800   368.70674      0.089          0.045682393    0.044213375    0.044321313   -441.53987      1193.3057      1193.3057      1193.3057      1.6992415e+09  0.4124382     -39021978      -39021978       1097.9457     -39020880      -450.85016     -436.35209     -437.41735     -2.7567865     -2.4303356     -0.10667334     7423.0089    
     17900   368.08164      0.0895         0.045465134    0.044037182    0.044168012   -439.74119      1193.8536      1193.8536      1193.8536      1.7015831e+09  0.41187062    -39007605      -39007605       1096.0843     -39006509      -448.70599     -434.6132      -435.90439     -2.7572925     -2.4466566     -0.063926401    7820.4793    
     18000   367.4432       0.09           0.045171157    0.043839555    0.044018638   -437.63254      1194.4014      1194.4014      1194.4014      1.7039269e+09  0.41130409    -38956921      -38956921       1094.1831     -38955827      -445.80466     -432.66277     -434.43018     -2.9262843     -2.1843599     -0.1463388      4682.4551    
     18100   367.03236      0.0905         0.044958536    0.043681557    0.043886331   -435.97804      1194.9493      1194.9493      1194.9493      1.7062729e+09  0.41073859    -38942660      -38942660       1092.9597     -38941567      -443.70625     -431.10345     -433.12441     -2.7612885     -2.1623989     -0.1561021      7394.6164    
     18200   366.58387      0.091          0.044731793    0.04351574     0.0437294     -434.17035      1195.4972      1195.4972      1195.4972      1.7086209e+09  0.41017413    -38921165      -38921165       1091.6242     -38920073      -441.46848     -429.46697     -431.57562     -2.6245596     -1.9853751     -0.10083973     7505.8908    
     18300   366.03154      0.0915         0.044529193    0.043341313    0.043551928   -432.34619      1196.0451      1196.0451      1196.0451      1.7109712e+09  0.40961071    -38906983      -38906983       1089.9794     -38905893      -439.46896     -427.7455      -429.82411     -2.472141      -1.8768207      0.073422515    7512.9126    
     18400   365.39084      0.092          0.044313879    0.043158609    0.04334       -430.33962      1196.593       1196.593       1196.593       1.7133236e+09  0.40904831    -38878296      -38878296       1088.0715     -38877208      -437.34398     -425.94235     -427.73254     -2.2497487     -1.8513573      0.21716598     7502.7062    
     18500   364.68436      0.0925         0.044088145    0.042953905    0.043180496   -428.39887      1197.1409      1197.1409      1197.1409      1.7156781e+09  0.40848695    -38842381      -38842381       1085.9678     -38841295      -435.11616     -423.92209     -426.15836     -2.2603481     -1.7626616     -0.0033548497   7440.5288    
     18600   364.14631      0.093          0.043902849    0.04280456     0.043059868   -426.90115      1197.6888      1197.6888      1197.6888      1.7180348e+09  0.40792661    -38828336      -38828336       1084.3655     -38827252      -433.28743     -422.44816     -424.96786     -2.1993659     -1.6783407     -0.17452478     7505.1619    
     18700   363.76218      0.0935         0.043717658    0.042662092    0.042933311   -425.40689      1198.2367      1198.2367      1198.2367      1.7203937e+09  0.4073673     -38807056      -38807056       1083.2217     -38805973      -431.45973     -421.04211     -423.71883     -2.1117055     -1.7591248     -0.33535056     7516.4658    
     18800   363.32527      0.094          0.043529225    0.042507322    0.042781625   -423.77884      1198.7846      1198.7846      1198.7846      1.7227547e+09  0.406809      -38778540      -38778540       1081.9206     -38777458      -429.60005     -419.51465     -422.22181     -2.0359263     -1.6941361     -0.073817262    7511.1571    
     18900   362.82167      0.0945         0.043304653    0.042328686    0.042607384   -421.87918      1199.3325      1199.3325      1199.3325      1.7251178e+09  0.40625173    -38735520      -38735520       1080.421      -38734439      -427.38369     -417.75165     -420.50219     -1.8982748     -1.8603508     -0.026779048    7524.3854    
     19000   362.4255       0.095          0.043139328    0.042157046    0.042429518   -420.18551      1199.8804      1199.8804      1199.8804      1.7274832e+09  0.40569548    -38714369      -38714369       1079.2412     -38713290      -425.75206     -416.05769     -418.74679     -1.7840806     -1.8970696      0.074689495    4568.2923    
     19100   362.05804      0.0955         0.04295754     0.041991191    0.042270825   -418.5198       1200.4282      1200.4282      1200.4282      1.7298507e+09  0.40514024    -38693257      -38693257       1078.147      -38692179      -423.95796     -414.42083     -417.18061     -1.5437053     -1.7771932      0.037484178    7339.6548    
     19200   361.62901      0.096          0.042781093    0.041860367    0.042129368   -417.0436       1200.9761      1200.9761      1200.9761      1.7322203e+09  0.40458601    -38679452      -38679452       1076.8694     -38678376      -422.21656     -413.1297      -415.78453     -1.5199724     -1.6340883     -0.014260652    7884.5394    
     19300   361.0711       0.0965         0.042595174    0.041717859    0.041981367   -415.47627      1201.524       1201.524       1201.524       1.7345922e+09  0.40403279    -38651137      -38651137       1075.2081     -38650062      -420.38168     -411.72325     -414.32388     -1.5247647     -1.4660455     -0.15784342     7554.9762    
     19400   360.66146      0.097          0.042425086    0.041564352    0.041857615   -414.00462      1202.0719      1202.0719      1202.0719      1.7369661e+09  0.40348058    -38630140      -38630140       1073.9882     -38629066      -418.70304     -410.20826     -413.10255     -1.5018625     -1.4303295     -0.19807762     7535.9501    
     19500   360.36245      0.0975         0.042266597    0.041420378    0.041732828   -412.59907      1202.6198      1202.6198      1202.6198      1.7393423e+09  0.40292938    -38616456      -38616456       1073.0978     -38615383      -417.13888     -408.78735     -411.87099     -1.382627      -1.4760908     -0.1592685      7329.6055    
     19600   360.16741      0.098          0.042116329    0.041272584    0.041588282   -411.14301      1203.1677      1203.1677      1203.1677      1.7417206e+09  0.40237918    -38595534      -38595534       1072.5171     -38594461      -415.65585     -407.32874     -410.44443     -1.2256289     -1.5738121     -0.12019482     7561.0085    
     19700   359.93848      0.0985         0.041957619    0.041128109    0.041416796   -409.58146      1203.7156      1203.7156      1203.7156      1.7441011e+09  0.40182998    -38560095      -38560095       1071.8353     -38559023      -414.08951     -405.90287     -408.752       -0.95484363    -1.2904013     -0.11601705     7566.4892    
     19800   359.64672      0.099          0.041815393    0.040993515    0.041288454   -408.24858      1204.2635      1204.2635      1204.2635      1.7464837e+09  0.40128178    -38539233      -38539233       1070.9665     -38538162      -412.68584     -404.57454     -407.48536     -1.0172506     -1.2164731     -0.27456924     7544.854     
     19900   359.29487      0.0995         0.041662027    0.040867404    0.04117329    -406.95031      1204.8114      1204.8114      1204.8114      1.7488686e+09  0.40073458    -38518401      -38518401       1069.9188     -38517331      -411.17223     -403.32992     -406.34878     -1.2214902     -1.1655536     -0.26357228     7451.6559    
     20000   358.94787      0.1            0.041485689    0.040718487    0.041060286   -405.50855      1205.3593      1205.3593      1205.3593      1.7512556e+09  0.40018837    -38490332      -38490332       1068.8855     -38489264      -409.43192     -401.86023     -405.23352     -1.317906      -1.0988787     -0.19043087     4468.0449    
     20100   358.65126      0.1005         0.041318333    0.040571284    0.040936263   -404.06573      1205.9072      1205.9072      1205.9072      1.7536447e+09  0.39964316    -38476853      -38476853       1068.0022     -38475785      -407.78024     -400.40744     -404.00951     -1.3640126     -1.0710285     -0.068906292    7500.6443    
     20200   358.38432      0.101          0.041149644    0.040413478    0.040802826   -402.55267      1206.455       1206.455       1206.455       1.7560361e+09  0.39909893    -38463410      -38463410       1067.2073     -38462343      -406.11541     -398.85002     -402.69258     -1.2994435     -1.1198792      0.020501614    7549.356     
     20300   358.1458       0.1015         0.041007271    0.040273353    0.040680553   -401.22108      1207.0029      1207.0029      1207.0029      1.7584296e+09  0.39855569    -38449999      -38449999       1066.497      -38448932      -404.7103      -397.46709     -401.48584     -1.1459358     -1.2033667      0.025701329    7534.0611    
     20400   357.93591      0.102          0.040882407    0.040163345    0.040572401   -400.09261      1207.5508      1207.5508      1207.5508      1.7608252e+09  0.39801344    -38429335      -38429335       1065.872      -38428269      -403.47798     -396.38139     -400.41846     -0.8934461     -1.1482799      0.0095796421   7576.4768    
     20500   357.70573      0.1025         0.040750396    0.040069468    0.040469389   -399.01062      1208.0987      1208.0987      1208.0987      1.7632231e+09  0.39747217    -38401421      -38401421       1065.1866     -38400356      -402.17513     -395.4549      -399.40182     -0.78630006    -1.1705026     -0.0024012762   7575.827     
     20600   357.43491      0.103          0.04063756     0.039977351    0.040364839   -397.99243      1208.6466      1208.6466      1208.6466      1.7656231e+09  0.39693188    -38388086      -38388086       1064.3801     -38387022      -401.06153     -394.54578     -398.36999     -0.71886701    -1.0335127     -0.017406495    7804.8062    
     20700   357.17565      0.1035         0.040441822    0.039843442    0.040242045   -396.50402      1209.1945      1209.1945      1209.1945      1.7680253e+09  0.39639257    -38352963      -38352963       1063.6081     -38351899      -399.12975     -393.2242      -397.1581      -0.52099717    -0.8555419      0.049067144    7556.5639    
     20800   356.93768      0.104          0.04028554     0.039698913    0.040117033   -395.10317      1209.7424      1209.7424      1209.7424      1.7704297e+09  0.39585424    -38339699      -38339699       1062.8995     -38338636      -397.58737     -391.79781     -395.92433     -0.54402154    -0.83027963     0.054788892    7551.1238    
     20900   356.65525      0.1045         0.040106223    0.039506778    0.039983788   -393.44285      1210.2903      1210.2903      1210.2903      1.7728363e+09  0.39531688    -38297371      -38297371       1062.0584     -38296309      -395.81764     -389.90158     -394.60931     -0.58234599    -0.97606069     0.1886246      7553.6837    
     21000   356.42179      0.105          0.039980424    0.039383207    0.039851643   -392.18776      1210.8382      1210.8382      1210.8382      1.775245e+09   0.3947805     -38276901      -38276901       1061.3632     -38275839      -394.57611     -388.68204     -393.30514     -0.65610917    -0.99917241     0.16579623     4685.3337    
     21100   356.13398      0.1055         0.039839723    0.039270006    0.039742451   -390.99327      1211.3861      1211.3861      1211.3861      1.777656e+09   0.39424508    -38256458      -38256458       1060.5062     -38255397      -393.1875      -387.56482     -392.2275      -0.56773061    -0.986964       0.1929234      7515.6291    
     21200   355.70325      0.106          0.039676835    0.039159847    0.039621743   -389.69792      1211.9339      1211.9339      1211.9339      1.7800691e+09  0.39371063    -38228771      -38228771       1059.2235     -38227712      -391.57992     -386.47764     -391.0362      -0.51279531    -0.83089065     0.18603866     7570.3459    
     21300   355.44243      0.1065         0.039551006    0.039046362    0.039469482   -388.40974      1212.4818      1212.4818      1212.4818      1.7824844e+09  0.39317715    -38201116      -38201116       1058.4469     -38200058      -390.33808     -385.35763     -389.5335      -0.38972246    -0.95737038     0.16964718     7500.2038    
     21400   355.35482      0.107          0.039448035    0.038939362    0.039358459   -387.35375      1213.0297      1213.0297      1213.0297      1.7849018e+09  0.39264463    -38188041      -38188041       1058.186      -38186983      -389.32184     -384.30163     -388.43779     -0.3169998     -0.86856141     0.16488533     7575.1917    
     21500   355.16374      0.1075         0.039323494    0.038811629    0.039242654   -386.14286      1213.5776      1213.5776      1213.5776      1.7873215e+09  0.39211307    -38153165      -38153165       1057.617      -38152107      -388.09271     -383.041       -387.29488     -0.42483295    -0.81641128     0.14763884     7557.8895    
     21600   354.91553      0.108          0.039181144    0.038705992    0.039151208   -385.02621      1214.1255      1214.1255      1214.1255      1.7897433e+09  0.39158247    -38125588      -38125588       1056.8778     -38124531      -386.68782     -381.99844     -386.39238     -0.27196183    -0.96101947     0.15367234     7568.6087    
     21700   354.7498       0.1085         0.039039226    0.038578694    0.039039516   -383.77313      1214.6734      1214.6734      1214.6734      1.7921674e+09  0.39105283    -38098041      -38098041       1056.3843     -38096985      -385.28721     -380.7421      -385.29007     -0.28993795    -1.0329457      0.11141769     7572.0352    
     21800   354.5341       0.109          0.038899266    0.038453503    0.038922825   -382.51696      1215.2213      1215.2213      1215.2213      1.7945936e+09  0.39052414    -38085077      -38085077       1055.742      -38084021      -383.90591     -379.50657     -384.13841     -0.23135571    -0.96878862     0.14312078     7577.7232    
     21900   354.35009      0.1095         0.038764528    0.038337897    0.03880029    -381.29029      1215.7692      1215.7692      1215.7692      1.797022e+09   0.3899964     -38072139      -38072139       1055.1941     -38071084      -382.57614     -378.36562     -382.92909     -0.23293617    -0.87437165     0.15004708     7911.224     
[...]
    244700   311.00738      1.2235         2.2298152e-05  2.2625041e-05  1.7066539e-05 -0.20393036     2436.4694      2436.4694      2436.4694      1.4463815e+10  0.048454166   -205104.82     -205104.82      926.12686     -204178.69     -0.22006565    -0.22329179    -0.16843365    -0.0034554929  -0.036479568   -0.054952004    25875.377    
    244800   310.85878      1.224          2.2205403e-05  2.2561714e-05  1.7018269e-05 -0.20325812     2437.0173      2437.0173      2437.0173      1.4473575e+10  0.048421493   -205145.32     -205145.32      925.68435     -204219.64     -0.21915029    -0.2226668     -0.16795725    -0.0023300249  -0.03543825    -0.054691064    25887.18     
    244900   310.73043      1.2245         2.2207627e-05  2.2348886e-05  1.6900249e-05 -0.20217703     2437.5652      2437.5652      2437.5652      1.4483339e+10  0.048388849   -205185.76     -205185.76      925.30217     -204260.46     -0.21917224    -0.22056636    -0.16679249    -0.0022134392  -0.035230089   -0.053487304    25898.497    
    245000   310.57544      1.225          2.2266848e-05  2.2200617e-05  1.6816184e-05 -0.20160753     2438.113       2438.113       2438.113       1.4493108e+10  0.048356235   -205225.64     -205225.64      924.84061     -204300.8      -0.21975671    -0.21910306    -0.16596283    -0.0019293716  -0.034981859   -0.052780888    4286.5811    
    245100   310.58143      1.2255         2.2299006e-05  2.2195825e-05  1.6803941e-05 -0.20165728     2438.6609      2438.6609      2438.6609      1.450288e+10   0.04832365    -205264.87     -205264.87      924.85846     -204340.01     -0.22007408    -0.21905576    -0.16584201    -0.0008686152  -0.03419306    -0.0530842      15470.285    
    245200   310.60714      1.226          2.2198516e-05  2.2052843e-05  1.6734797e-05 -0.20062885     2439.2088      2439.2088      2439.2088      1.4512658e+10  0.048291094   -205303.75     -205303.75      924.93501     -204378.81     -0.21908232    -0.21764464    -0.1651596     -0.00058306494 -0.033847155   -0.052505824    14073.732    
    245300   310.47076      1.2265         2.206192e-05   2.1825679e-05  1.6627078e-05 -0.19907781     2439.7567      2439.7567      2439.7567      1.4522439e+10  0.048258567   -205342.29     -205342.29      924.52891     -204417.76     -0.21773422    -0.21540271    -0.1640965     -0.0010416337  -0.034006439   -0.051341674    19762.315    
    245400   310.26895      1.227          2.188902e-05   2.1616055e-05  1.6518904e-05 -0.19746354     2440.3046      2440.3046      2440.3046      1.4532225e+10  0.04822607    -205380.14     -205380.14      923.92796     -204456.22     -0.21602783    -0.21333387    -0.16302891    -0.0013633485  -0.03405499    -0.050192876    20431.981    
    245500   309.97189      1.2275         2.1588431e-05  2.1350437e-05  1.6366728e-05 -0.19510024     2440.8525      2440.8525      2440.8525      1.4542016e+10  0.048193602   -205416.59     -205416.59      923.04336     -204493.55     -0.21306124    -0.21071243    -0.16152705    -0.00095569646 -0.033502666   -0.048482548    25827.233    
    245600   309.59767      1.228          2.1387777e-05  2.1113377e-05  1.623039e-05  -0.19321176     2441.4004      2441.4004      2441.4004      1.455181e+10   0.048161163   -205452.3      -205452.3       921.929       -204530.37     -0.21108095    -0.20837283    -0.16018149    -0.00059001754 -0.033088992   -0.046888153    25888.319    
    245700   309.40857      1.2285         2.1453449e-05  2.097795e-05   1.6157844e-05 -0.19274362     2441.9483      2441.9483      2441.9483      1.456161e+10   0.048128753   -205487.99     -205487.99      921.3659      -204566.62     -0.21172908    -0.20703627    -0.15946552    -0.00060288347 -0.033156328   -0.045980973    28043.12     
    245800   309.42489      1.229          2.1512494e-05  2.0836375e-05  1.607443e-05  -0.19219771     2442.4962      2442.4962      2442.4962      1.4571413e+10  0.048096372   -205522.86     -205522.86      921.4145      -204601.45     -0.2123118     -0.20563903    -0.15864229     0.0003723953  -0.032499934   -0.044897689    25891.932    
    245900   309.38935      1.2295         2.1357088e-05  2.0612345e-05  1.5947068e-05 -0.19053047     2443.0441      2443.0441      2443.0441      1.4581221e+10  0.04806402    -205556.6      -205556.6       921.30866     -204635.29     -0.21077807    -0.20342803    -0.15738532     0.0014699481  -0.031571084   -0.043181875    25789.6      
    246000   309.15606      1.23           2.1090438e-05  2.0327962e-05  1.580318e-05  -0.18824436     2443.592       2443.592       2443.592       1.4591034e+10  0.048031697   -205589.41     -205589.41      920.61396     -204668.8      -0.20814644    -0.20062138    -0.15596526     0.0012720041  -0.031496855   -0.041116765    7787.8266    
    246100   308.86841      1.2305         2.087417e-05   2.0142903e-05  1.5712964e-05 -0.18662731     2444.1398      2444.1398      2444.1398      1.460085e+10   0.047999403   -205621.5      -205621.5       919.75739     -204701.74     -0.20601204    -0.198795      -0.1550749      0.0010984418  -0.031499817   -0.039748787    24392.624    
    246200   308.73095      1.231          2.0730616e-05  2.0011296e-05  1.5657279e-05 -0.18553891     2444.6877      2444.6877      2444.6877      1.4610672e+10  0.047967139   -205652.84     -205652.84      919.34806     -204733.49     -0.20459527    -0.19749614    -0.15452532     0.0012274639  -0.031410491   -0.038785952    25626.754    
    246300   308.62051      1.2315         2.0600157e-05  1.9744451e-05  1.5547823e-05 -0.1838718      2445.2356      2445.2356      2445.2356      1.4620497e+10  0.047934903   -205683.21     -205683.21      919.01917     -204764.19     -0.20330775    -0.19486258    -0.15344508     0.00090466731 -0.031691406   -0.036972691    25849.205    
    246400   308.43638      1.232          2.0478436e-05  1.948477e-05   1.544542e-05  -0.18228021     2445.7835      2445.7835      2445.7835      1.4630327e+10  0.047902695   -205712.66     -205712.66      918.47088     -204794.19     -0.20210645    -0.19229973    -0.15243445     0.00069453694 -0.031900953   -0.035253442    25852.265    
    246500   308.28415      1.2325         2.0317609e-05  1.9326905e-05  1.538612e-05  -0.18103671     2446.3314      2446.3314      2446.3314      1.4640162e+10  0.047870517   -205741.27     -205741.27      918.01757     -204823.26     -0.20051921    -0.19074172    -0.1518492      0.00077376739 -0.031858913   -0.034235561    25761.537    
    246600   308.17795      1.233          2.0133885e-05  1.9173195e-05  1.5313298e-05 -0.17968707     2446.8793      2446.8793      2446.8793      1.4650001e+10  0.047838368   -205769.15     -205769.15      917.70131     -204851.45     -0.19870599    -0.18922472    -0.1511305      0.0010706903  -0.03164208    -0.033197353    25928.197    
    246700   308.07166      1.2335         2.0016014e-05  1.8950542e-05  1.5191466e-05 -0.17816604     2447.4272      2447.4272      2447.4272      1.4659844e+10  0.047806247   -205796.17     -205796.17      917.3848      -204878.78     -0.19754269    -0.18702731    -0.14992812     0.001503562   -0.031397814   -0.0316379      25836.415    
    246800   307.91624      1.234          1.9925458e-05  1.8649839e-05  1.5021799e-05 -0.17632073     2447.9751      2447.9751      2447.9751      1.4669691e+10  0.047774155   -205822.11     -205822.11      916.92199     -204905.19     -0.19664898    -0.1840596     -0.14825363     0.0018397601  -0.031241228   -0.029537702    25876.462    
    246900   307.7019       1.2345         1.9772882e-05  1.8344669e-05  1.4846924e-05 -0.17423958     2448.523       2448.523       2448.523       1.4679543e+10  0.047742092   -205847.01     -205847.01      916.28372     -204930.73     -0.19514317    -0.18104781    -0.14652775     0.0021127873  -0.031040071   -0.027438915    25899.932    
    247000   307.47502      1.235          1.9553007e-05  1.8062675e-05  1.4684798e-05 -0.1720552      2449.0709      2449.0709      2449.0709      1.46894e+10    0.047710057   -205871.12     -205871.12      915.6081      -204955.52     -0.19297318    -0.17826474    -0.14492769     0.0022056936  -0.03083572    -0.025546832    7422.8161    
    247100   307.2747       1.2355         1.9336805e-05  1.7776292e-05  1.4524862e-05 -0.16987568     2449.6188      2449.6188      2449.6188      1.4699261e+10  0.047678052   -205894.62     -205894.62      915.01157     -204979.61     -0.19083943    -0.17543837    -0.14334925     0.0019922249  -0.030784041   -0.023660342    27716.762    
    247200   307.12148      1.236          1.9137366e-05  1.7486029e-05  1.4368952e-05 -0.16775178     2450.1666      2450.1666      2450.1666      1.4709126e+10  0.047646074   -205917.42     -205917.42      914.55534     -205002.87     -0.18887111    -0.17257369    -0.14181053     0.0016007659  -0.030817123   -0.021760888    24537.017    
    247300   306.98176      1.2365         1.8881415e-05  1.7186804e-05  1.4212474e-05 -0.16541062     2450.7145      2450.7145      2450.7145      1.4718996e+10  0.047614126   -205939.26     -205939.26      914.13925     -205025.12     -0.18634508    -0.16962057    -0.14026621     0.0014483794  -0.030593425   -0.019779748    25909.515    
    247400   306.79675      1.237          1.8565411e-05  1.6890942e-05  1.4058975e-05 -0.16289276     2451.2624      2451.2624      2451.2624      1.472887e+10   0.047582206   -205960.05     -205960.05      913.58833     -205046.46     -0.18322636    -0.16670063    -0.1387513      0.0019685998  -0.029798712   -0.017779373    25816.605    
    247500   306.60957      1.2375         1.8326648e-05  1.66357e-05    1.392959e-05  -0.16084197     2451.8103      2451.8103      2451.8103      1.4738748e+10  0.047550314   -205979.97     -205979.97      913.03095     -205066.94     -0.18086995    -0.16418159    -0.13747436     0.002874598   -0.02876107    -0.016027929    25818.298    
    247600   306.53538      1.238          1.8215633e-05  1.6431879e-05  1.3832487e-05 -0.1594868      2452.3582      2452.3582      2452.3582      1.4748631e+10  0.047518451   -205999.32     -205999.32      912.81001     -205086.51     -0.17977432    -0.16217003    -0.13651604     0.0036193013  -0.027933283   -0.014614742    25943.352    
    247700   306.57388      1.2385         1.8088212e-05  1.6207395e-05  1.3729452e-05 -0.15799016     2452.9061      2452.9061      2452.9061      1.4758519e+10  0.047486616   -206018.35     -206018.35      912.92466     -205105.42     -0.17851677    -0.15995455    -0.13549915     0.0038457055  -0.027476554   -0.013030663    25813.713    
    247800   306.56455      1.239          1.784667e-05   1.5890762e-05  1.3583615e-05 -0.15567414     2453.454       2453.454       2453.454       1.476841e+10   0.04745481    -206036.94     -206036.94      912.89689     -205124.04     -0.17613294    -0.15682963    -0.13405985     0.0034230866  -0.027408607   -0.010797474    25772.047    
    247900   306.40102      1.2395         1.7597179e-05  1.5529625e-05  1.3415924e-05 -0.15311367     2454.0019      2454.0019      2454.0019      1.4778307e+10  0.047423032   -206054.8      -206054.8       912.40992     -205142.39     -0.17367066    -0.15326549    -0.13240487     0.0027600772  -0.027514423   -0.0082583617   25929.616    
    248000   306.17881      1.24           1.744699e-05   1.5220499e-05  1.327017e-05  -0.15112315     2454.5498      2454.5498      2454.5498      1.4788207e+10  0.047391283   -206071.9      -206071.9       911.74821     -205160.15     -0.1721884     -0.15021465    -0.13096639     0.0024147739  -0.027471247   -0.0060931605   7220.1181    
    248100   306.03864      1.2405         1.7319618e-05  1.4961355e-05  1.3142337e-05 -0.14943107     2455.0977      2455.0977      2455.0977      1.4798112e+10  0.047359562   -206088.57     -206088.57      911.3308      -205177.24     -0.17093134    -0.14765709    -0.12970479     0.0023169065  -0.027271718   -0.0043170278   23045.197    
    248200   305.99278      1.241          1.7112519e-05  1.4700498e-05  1.300367e-05  -0.14743544     2455.6455      2455.6455      2455.6455      1.4808022e+10  0.047327869   -206105.13     -206105.13      911.19425     -205193.94     -0.16888743    -0.14508264    -0.12833624     0.0021935259  -0.027038103   -0.0026034254   22368.052    
    248300   305.99086      1.2415         1.6902393e-05  1.4425117e-05  1.2842995e-05 -0.14530966     2456.1934      2456.1934      2456.1934      1.4817936e+10  0.047296205   -206121.56     -206121.56      911.18852     -205210.37     -0.16681364    -0.14236483    -0.12675051     0.002136618   -0.026771206   -0.00086318962  22903.61     
    248400   306.02621      1.242          1.6827596e-05  1.4155553e-05  1.2666906e-05 -0.14359752     2456.7413      2456.7413      2456.7413      1.4827854e+10  0.047264568   -206137.76     -206137.76      911.29381     -205226.47     -0.16607546    -0.13970445    -0.12501265     0.002354048   -0.026439611    0.00076174515  28119.532    
    248500   306.10917      1.2425         1.6826852e-05  1.3905914e-05  1.2486591e-05 -0.14218063     2457.2892      2457.2892      2457.2892      1.4837777e+10  0.04723296    -206153.88     -206153.88      911.54084     -205242.34     -0.16606812    -0.1372407     -0.12323307     0.0026918641  -0.026129689    0.0021502891   25895.472    
    248600   306.18214      1.243          1.6694675e-05  1.3675807e-05  1.2310575e-05 -0.14040976     2457.8371      2457.8371      2457.8371      1.4847704e+10  0.047201381   -206170.14     -206170.14      911.75814     -205258.38     -0.16476363    -0.13496972    -0.12149593     0.0027576898  -0.025989436    0.0032984752   25644.866    
    248700   306.15558      1.2435         1.6384771e-05  1.3460597e-05  1.2138712e-05 -0.13811688     2458.385       2458.385       2458.385       1.4857635e+10  0.047169829   -206186.59     -206186.59      911.67905     -205274.91     -0.16170511    -0.13284576    -0.11979977     0.0024803869  -0.026048199    0.0042877576   25839.974    
    248800   306.05066      1.244          1.6118197e-05  1.32645e-05    1.1966771e-05 -0.13602917     2458.9329      2458.9329      2458.9329      1.4867571e+10  0.047138305   -206203.21     -206203.21      911.3666      -205291.85     -0.15907424    -0.13091044    -0.11810284     0.0022668058  -0.026203277    0.0052094856   25914.477    
    248900   306.01035      1.2445         1.6068359e-05  1.3093437e-05  1.1794526e-05 -0.13473582     2459.4808      2459.4808      2459.4808      1.4877512e+10  0.04710681    -206220.14     -206220.14      911.24656     -205308.89     -0.15858238    -0.12922217    -0.11640292     0.0024495644  -0.026370495    0.0061436786   25861.906    
    249000   306.1353       1.245          1.6114078e-05  1.2953011e-05  1.1640773e-05 -0.13391846     2460.0287      2460.0287      2460.0287      1.4887457e+10  0.047075342   -206237.67     -206237.67      911.61865     -205326.05     -0.15903359    -0.12783628    -0.1148855      0.0028076768  -0.026599777    0.0070944391   7589.1415    
    249100   306.37098      1.2455         1.6048912e-05  1.2840516e-05  1.1525309e-05 -0.13295414     2460.5766      2460.5766      2460.5766      1.4897406e+10  0.047043903   -206255.91     -206255.91      912.32045     -205343.59     -0.15839045    -0.12672604    -0.11374595     0.0029099329  -0.026985183    0.0080668386   24000.263    
    249200   306.57007      1.246          1.5831469e-05  1.2736674e-05  1.1439808e-05 -0.13161592     2461.1245      2461.1245      2461.1245      1.490736e+10   0.047012491   -206274.73     -206274.73      912.91333     -205361.81     -0.15624445    -0.1257012     -0.11290213     0.0026941644  -0.027427336    0.0091691875   23224.984    
    249300   306.64106      1.2465         1.5601401e-05  1.2612544e-05  1.1351897e-05 -0.1301615      2461.6723      2461.6723      2461.6723      1.4917318e+10  0.046981108   -206293.98     -206293.98      913.12471     -205380.85     -0.15397386    -0.12447613    -0.11203451     0.0025744599  -0.027614597    0.010639738    23172.775    
    249400   306.62872      1.247          1.5486854e-05  1.2461496e-05  1.1251763e-05 -0.12895835     2462.2202      2462.2202      2462.2202      1.492728e+10   0.046949752   -206313.78     -206313.78      913.08796     -205400.7      -0.15284337    -0.1229854     -0.11104627     0.002910631   -0.027315123    0.012494878    25348.17     
    249500   306.65543      1.2475         1.5452355e-05  1.2311333e-05  1.1181513e-05 -0.12811975     2462.7681      2462.7681      2462.7681      1.4937247e+10  0.046918425   -206334.37     -206334.37      913.1675      -205421.2      -0.15250288    -0.12150341    -0.11035295     0.0033743953  -0.026769474    0.014261432    25887.233    
    249600   306.78775      1.248          1.5378064e-05  1.2177947e-05  1.1165941e-05 -0.12738532     2463.316       2463.316       2463.316       1.4947219e+10  0.046887125   -206355.72     -206355.72      913.56152     -205442.16     -0.15176969    -0.12018699    -0.11019927     0.0033010797  -0.026466382    0.015451656    25908.467    
    249700   306.97443      1.2485         1.5193332e-05  1.2024861e-05  1.1148532e-05 -0.12621671     2463.8639      2463.8639      2463.8639      1.4957195e+10  0.046855853   -206377.69     -206377.69      914.11744     -205463.57     -0.14994653    -0.11867615    -0.11002746     0.0026729329  -0.026359569    0.016248665    25896.391    
    249800   307.11728      1.249          1.5008634e-05  1.1831489e-05  1.106508e-05  -0.12469842     2464.4118      2464.4118      2464.4118      1.4967175e+10  0.046824609   -206400.35     -206400.35      914.54282     -205485.8      -0.1481237     -0.11676772    -0.10920385     0.0022037739  -0.026105455    0.017046312    28098.388    
    249900   307.20002      1.2495         1.4961747e-05  1.1646598e-05  1.093472e-05  -0.12350708     2464.9597      2464.9597      2464.9597      1.497716e+10   0.046793392   -206423.98     -206423.98      914.78921     -205509.19     -0.14766096    -0.11494299    -0.10791729     0.0022198811  -0.025810415    0.01758052     25953.021    
    250000   307.30089      1.25           1.5003405e-05  1.1529685e-05  1.0822928e-05 -0.12289175     2465.5076      2465.5076      2465.5076      1.4987149e+10  0.046762204   -206448.61     -206448.61      915.08958     -205533.52     -0.1480721     -0.11378914    -0.106814       0.0021012996  -0.026041848    0.017246269    7721.3262    
Loop time of 20.5749 on 1 procs for 250000 steps with 1000 atoms

Performance: 1049.821 ns/day, 0.023 hours/ns, 12150.705 timesteps/s
92.6% CPU use with 1 MPI tasks x 1 OpenMP threads

MPI task timing breakdown:
Section |  min time  |  avg time  |  max time  |%varavg| %total
---------------------------------------------------------------
Pair    | 8.666      | 8.666      | 8.666      |   0.0 | 42.12
Neigh   | 0.84296    | 0.84296    | 0.84296    |   0.0 |  4.10
Comm    | 0.85103    | 0.85103    | 0.85103    |   0.0 |  4.14
Output  | 2.6627     | 2.6627     | 2.6627     |   0.0 | 12.94
Modify  | 6.6459     | 6.6459     | 6.6459     |   0.0 | 32.30
Other   |            | 0.9063     |            |       |  4.40

Nlocal:           1000 ave        1000 max        1000 min
Histogram: 1 0 0 0 0 0 0 0 0 0
Nghost:            446 ave         446 max         446 min
Histogram: 1 0 0 0 0 0 0 0 0 0
Neighs:             24 ave          24 max          24 min
Histogram: 1 0 0 0 0 0 0 0 0 0

Total # of neighbors = 24
Ave neighs/atom = 0.024
Neighbor list builds = 2315
Dangerous builds = 0

# restart file
write_restart ./tensile/restart/restart_${usic}_${trial}.tensile.restart
write_restart ./tensile/restart/restart_1_${trial}.tensile.restart
write_restart ./tensile/restart/restart_1_1.tensile.restart
System init for write_restart ...
Generated 0 of 1 mixed pair_coeff terms from geometric mixing rule
Total wall time: 0:00:20
