LAMMPS (23 Jun 2022 - Update 1)
OMP_NUM_THREADS environment is not set. Defaulting to 1 thread. (src/comm.cpp:98)
  using 1 OpenMP thread(s) per MPI task
###

# Read restart info
read_restart ${read_res}
read_restart ./trial9/7030/equpmf70.res
Reading restart file ...
  restart file = 23 Jun 2022, LAMMPS = 23 Jun 2022
  restoring atom style atomic from restart
  orthogonal box = (1696.1674 1696.1674 1696.1674) to (2303.8326 2303.8326 2303.8326)
  1 by 2 by 2 MPI processor grid
  restoring pair style table from restart
  1000 atoms
  read_restart CPU = 0.047 seconds

# Settings
pair_style table/pgn spline 10941
pair_coeff 1 1 N20e.txt DE_GNP 308 72.9   # 1.35 * r
pair_coeff 2 2 N100e.txt DE_GNP 473.9 111.78
WARNING: 20 of 10941 force values in table DE_GNP are inconsistent with -dE/dr.
WARNING:  Should only be flagged at inflection points (src/pair_table_pgn.cpp:478)
pair_coeff 1 2 mixed_potentiale.txt DE_GNP 391.2 92.95
WARNING: 1564 of 10941 force values in table DE_GNP are inconsistent with -dE/dr.
WARNING:  Should only be flagged at inflection points (src/pair_table_pgn.cpp:478)

# Neighbor list
neighbor 2.0 bin
neigh_modify delay 0 every 1 check no once yes

# Temperature
variable T equal ${Temp}
variable T equal 300

# Deformation
reset_timestep 0
variable tmp equal "lx"
variable L0 equal ${tmp}
variable L0 equal 607.665228248557
variable strain equal "(lx - v_L0)/v_L0"
variable stp equal "step"
variable tmpe equal "temp"
variable p1 equal "v_strain"
variable p2 equal "-pxx*1.01325/10000"
variable p3 equal "-pyy*1.01325/10000"
variable p4 equal "-pzz*1.01325/10000"
variable p5 equal "lx"
variable p6 equal "ly"
variable p7 equal "lz"
variable p8 equal "press"
variable p9 equal "epair"
variable p10 equal "etotal"

# Thermo
thermo_style custom step temp v_p1 v_p2 v_p3 v_p4 press lx ly lz vol density epair pe ke etotal pxx pyy pzz pxy pxz pyz spcpu
thermo ${ts_save}
thermo 1000

# Dump
# dump 1 all custom 2000 ./${N20}${N100}/tensile/trajectory/trajectory_${usic}_${trial}_*.tensile.custom id type x y z ix iy iz
# dump_modify 1 sort id
dump 2 all cfg 50000 ./trial${trial}/${N20}${N100}/tensile/trajectory/dumpten.tens_${usic}_${trial}_*.cfg mass type xs ys zs fx fy fz
dump 2 all cfg 50000 ./trial9/${N20}${N100}/tensile/trajectory/dumpten.tens_${usic}_${trial}_*.cfg mass type xs ys zs fx fy fz
dump 2 all cfg 50000 ./trial9/70${N100}/tensile/trajectory/dumpten.tens_${usic}_${trial}_*.cfg mass type xs ys zs fx fy fz
dump 2 all cfg 50000 ./trial9/7030/tensile/trajectory/dumpten.tens_${usic}_${trial}_*.cfg mass type xs ys zs fx fy fz
dump 2 all cfg 50000 ./trial9/7030/tensile/trajectory/dumpten.tens_1_${trial}_*.cfg mass type xs ys zs fx fy fz
dump 2 all cfg 50000 ./trial9/7030/tensile/trajectory/dumpten.tens_1_9_*.cfg mass type xs ys zs fx fy fz
dump_modify 2 element N20 N100

fix 1 all nvt temp ${T} ${T} 100
fix 1 all nvt temp 300 ${T} 100
fix 1 all nvt temp 300 300 100
fix 2 all deform 1 x erate ${strain_rate} y erate ${strain_rate} z erate ${strain_rate} units box
fix 2 all deform 1 x erate 5e-6 y erate ${strain_rate} z erate ${strain_rate} units box
fix 2 all deform 1 x erate 5e-6 y erate 5e-6 z erate ${strain_rate} units box
fix 2 all deform 1 x erate 5e-6 y erate 5e-6 z erate 5e-6 units box
fix             def1 all print ${ts_save} "${p1} ${p2} ${p3} ${p4}" file ./tensile/${trial}/tensile${N20}${N100}_${usic}_${trial}.txt screen no
fix             def1 all print 1000 "${p1} ${p2} ${p3} ${p4}" file ./tensile/${trial}/tensile${N20}${N100}_${usic}_${trial}.txt screen no
fix             def1 all print 1000 "${p1} ${p2} ${p3} ${p4}" file ./tensile/9/tensile${N20}${N100}_${usic}_${trial}.txt screen no
fix             def1 all print 1000 "${p1} ${p2} ${p3} ${p4}" file ./tensile/9/tensile70${N100}_${usic}_${trial}.txt screen no
fix             def1 all print 1000 "${p1} ${p2} ${p3} ${p4}" file ./tensile/9/tensile7030_${usic}_${trial}.txt screen no
fix             def1 all print 1000 "${p1} ${p2} ${p3} ${p4}" file ./tensile/9/tensile7030_1_${trial}.txt screen no
fix             def1 all print 1000 "${p1} ${p2} ${p3} ${p4}" file ./tensile/9/tensile7030_1_9.txt screen no

timestep       		${ts}
timestep       		0.1
run				${steps_tensile}
run				6000000
Generated 0 of 1 mixed pair_coeff terms from geometric mixing rule
Unused restart file global fix info:
  fix style: npt, fix ID: 5
Neighbor list info ...
  update every 1 steps, delay 0 steps, check no
  max neighbors/atom: 2000, page size: 100000
  master list distance cutoff = 113.78
  ghost atom cutoff = 113.78
  binsize = 56.89, bins = 11 11 11
  1 neighbor lists, perpetual/occasional/extra = 1 0 0
  (1) pair table/pgn, perpetual
      attributes: half, newton on
      pair build: half/bin/atomonly/newton
      stencil: half/bin/3d
      bin: standard
Per MPI rank memory allocation (min/avg/max) = 3.853 | 3.853 | 3.853 Mbytes
   Step          Temp           v_p1           v_p2           v_p3           v_p4          Press            Lx             Ly             Lz           Volume        Density         E_pair         PotEng         KinEng         TotEng          Pxx            Pyy            Pzz            Pxy            Pxz            Pyz           S/CPU     
         0   304.82354     -3.7417589e-16  0.025558536    0.01769304     0.018745718   -203.95524      607.66523      607.66523      607.66523      2.2438466e+08  2.0862576     -16830063      -16830063       907.71245     -16829156      -252.24314     -174.61672     -185.00585     -17.8194        97.946395     -11.084071      0            
      1000   363.2091       0.0005         0.033538944    0.025823358    0.026760365   -283.32154      607.96906      607.96906      607.96906      2.247214e+08   2.0831313     -16829100      -16829100       1081.5747     -16828018      -331.00364     -254.85672     -264.10427     -19.367859      97.603319     -9.6298252      18446.732    
      2000   455.33044      0.001          0.040854127    0.033527257    0.033962323   -356.42308      608.27289      608.27289      608.27289      2.2505848e+08  2.0800113     -16828017      -16828017       1355.8963     -16826661      -403.19888     -330.8883      -335.18207     -21.13733       97.840134     -10.516478      18599.722    
      3000   526.45325      0.0015         0.047135378    0.040093144    0.040320744   -419.60446      608.57673      608.57673      608.57673      2.253959e+08   2.0768975     -16826779      -16826779       1567.6879     -16825212      -465.19002     -395.68857     -397.9348      -20.241892      95.880864     -12.642049      17727.909    
      4000   560.41074      0.002          0.053081515    0.046174622    0.046596204   -479.8169       608.88056      608.88056      608.88056      2.2573366e+08  2.0737899     -16825330      -16825330       1668.8075     -16823661      -523.87383     -455.70809     -459.86878     -15.786479      92.910602     -13.272799      18231.44     
      5000   562.95702      0.0025         0.059267349    0.05236409     0.053221247   -542.32317      609.18439      609.18439      609.18439      2.2607175e+08  2.0706885     -16823603      -16823603       1676.3899     -16821926      -584.92326     -516.79339     -525.25287     -12.747809      90.375915     -11.331218      17770.098    
      6000   547.59251      0.003          0.065460766    0.058616537    0.059826305   -604.99584      609.48822      609.48822      609.48822      2.2641018e+08  2.0675933     -16821553      -16821553       1630.637      -16819923      -646.04754     -578.50025     -590.43973     -13.094997      87.099199     -9.6436061      18344.266    
      7000   525.84427      0.0035         0.071654189    0.064926293    0.066178111   -667.02391      609.79206      609.79206      609.79206      2.2674895e+08  2.0645043     -16819171      -16819171       1565.8744     -16817605      -707.17186     -640.77269     -653.12718     -14.245649      84.297124     -10.439491      17748.446    
      8000   503.57119      0.004          0.077919512    0.071245809    0.072374426   -728.8091       610.09589      610.09589      610.09589      2.2708806e+08  2.0614214     -16816448      -16816448       1499.549      -16814948      -769.00579     -703.14146     -714.28005     -15.902225      83.08286      -12.446983      18179.858    
      9000   483.03154      0.0045         0.084078306    0.077376277    0.078598318   -789.71264      610.39972      610.39972      610.39972      2.274275e+08   2.0583447     -16813377      -16813377       1438.3855     -16811939      -829.78836     -763.64448     -775.70509     -17.849129      81.419263     -11.561847      17916.448    
     10000   465.10552      0.005          0.090208769    0.083483748    0.084876387   -850.62556      610.70355      610.70355      610.70355      2.2776728e+08  2.055274      -16809970      -16809970       1385.0048     -16808585      -890.29133     -823.92054     -837.66481     -18.212995      79.30786      -8.5131414      18034.625    
     11000   450.10228      0.0055         0.096171575    0.089702112    0.09100077    -910.84614      611.00739      611.00739      611.00739      2.281074e+08   2.0522095     -16806235      -16806235       1340.3277     -16804895      -949.13965     -885.29101     -898.10777     -16.980681      77.445737     -7.0244901      18092.195    
     12000   437.95013      0.006          0.10184135     0.095621638    0.096961699   -968.58193      611.31122      611.31122      611.31122      2.2844786e+08  2.0491511     -16802176      -16802176       1304.1407     -16800872      -1005.096      -943.71219     -956.93757     -16.540481      76.376847     -7.3438726      17912.077    
     13000   427.76309      0.0065         0.10708248     0.10114566     0.10276662    -1023.0932      611.61505      611.61505      611.61505      2.2878866e+08  2.0460987     -16797810      -16797810       1273.8054     -16796536      -1056.8219     -998.23        -1014.2276     -16.570656      75.84748      -7.3913354      18273.648    
     14000   418.72789      0.007          0.1120939      0.10638919     0.10812652    -1074.4621      611.91888      611.91888      611.91888      2.291298e+08   2.0430524     -16793161      -16793161       1246.9002     -16791914      -1106.2808     -1049.9797     -1067.1258     -14.744491      73.786596     -7.4159398      17964.899    
     15000   410.8159       0.0075         0.11717135     0.11145408     0.11304576    -1124.0108      612.22272      612.22272      612.22272      2.2947127e+08  2.0400122     -16788236      -16788236       1223.3396     -16787013      -1156.3913     -1099.9662     -1115.6749     -12.85155       71.484121     -7.8422854      18406.583    
     16000   403.99676      0.008          0.12219507     0.11641084     0.11794259    -1172.9534      612.52655      612.52655      612.52655      2.2981309e+08  2.0369779     -16783043      -16783043       1203.0334     -16781840      -1205.9716     -1148.8857     -1164.0029     -12.553352      70.218483     -7.9757356      17680.034    
     17000   398.38555      0.0085         0.12697133     0.12120855     0.12283995    -1220.5603      612.83038      612.83038      612.83038      2.3015524e+08  2.0339497     -16777593      -16777593       1186.3242     -16776407      -1253.1096     -1196.2353     -1212.3361     -13.623729      69.555029     -7.2072723      18305.936    
     18000   394.18638      0.009          0.13169357     0.12613523     0.12789087    -1268.9191      613.13422      613.13422      613.13422      2.3049773e+08  2.0309275     -16771885      -16771885       1173.8197     -16770711      -1299.7145     -1244.858      -1262.1847     -14.951047      67.18419      -5.8072756      17765.483    
     19000   391.25488      0.0095         0.13656873     0.13118904     0.1330744     -1318.6353      613.43805      613.43805      613.43805      2.3084056e+08  2.0279113     -16765913      -16765913       1165.0902     -16764748      -1347.8286     -1294.7352     -1313.3422     -15.611204      63.320804     -5.2277212      18197.272    
     20000   389.1724       0.01           0.14132995     0.13600584     0.13817725    -1366.9316      613.74188      613.74188      613.74188      2.3118374e+08  2.024901      -16759686      -16759686       1158.8889     -16758527      -1394.8181     -1342.2733     -1363.7034     -14.887269      59.655279     -5.0408545      18207.807    
     21000   387.26961      0.0105         0.14590223     0.14046554     0.14296157    -1412.3837      614.04571      614.04571      614.04571      2.3152725e+08  2.0218967     -16753215      -16753215       1153.2228     -16752061      -1439.943      -1386.2871     -1410.921      -13.551329      57.586494     -4.2987643      18108.269    
     22000   385.81514      0.011          0.1502072      0.14459767     0.14704161    -1453.5619      614.34955      614.34955      614.34955      2.318711e+08   2.0188984     -16746518      -16746518       1148.8916     -16745369      -1482.4298     -1427.0681     -1451.1879     -11.027024      56.621241     -3.4331744      18535.278    
     23000   385.56536      0.0115         0.15421791     0.1485707      0.15085307    -1492.3651      614.65338      614.65338      614.65338      2.3221529e+08  2.0159059     -16739621      -16739621       1148.1478     -16738473      -1522.0125     -1466.2788     -1488.804      -8.6222683      55.825633     -3.6691668      18129.76     
     24000   385.97328      0.012          0.15840225     0.15273721     0.15499846    -1533.4745      614.95721      614.95721      614.95721      2.3255983e+08  2.0129194     -16732524      -16732524       1149.3625     -16731375      -1563.3086     -1507.399      -1529.7158     -8.9243419      55.480417     -5.3026637      18331.002    
     25000   385.90724      0.0125         0.16266147     0.15712581     0.15933453    -1576.1882      615.26104      615.26104      615.26104      2.329047e+08   2.0099388     -16725207      -16725207       1149.1659     -16724058      -1605.3439     -1550.7112     -1572.5096     -10.878426      54.986581     -6.9380354      18170.111    
     26000   385.57718      0.013          0.16654289     0.16132436     0.16339592    -1616.1302      615.56488      615.56488      615.56488      2.3324991e+08  2.006964      -16717666      -16717666       1148.183      -16716518      -1643.6506     -1592.1476     -1612.5924     -12.835198      54.415495     -5.8690759      18579.286    
     27000   385.96255      0.0135         0.1700091      0.16497057     0.1671782     -1651.9709      615.86871      615.86871      615.86871      2.3359547e+08  2.0039951     -16709924      -16709924       1149.3306     -16708775      -1677.8594     -1628.1329     -1649.9205     -14.266472      53.66439      -1.5734044      18172.295    
     28000   387.45303      0.014          0.1731955      0.16830414     0.17090176    -1685.6696      616.17254      616.17254      616.17254      2.3394137e+08  2.0010321     -16702002      -16702002       1153.769      -16700848      -1709.3067     -1661.0327     -1686.6692     -13.551706      52.69293       0.77423821     18202.771    
     29000   389.4443       0.0145         0.17653308     0.17180646     0.17436536    -1719.5654      616.47637      616.47637      616.47637      2.342876e+08   1.9980749     -16693913      -16693913       1159.6986     -16692753      -1742.246      -1695.5979     -1720.8523     -10.957202      50.167457     -0.27693202     18572.456    
     30000   391.46278      0.015          0.18041491     0.17545341     0.17749517    -1754.6295      616.78021      616.78021      616.78021      2.3463418e+08  1.9951236     -16685655      -16685655       1165.7093     -16684489      -1780.5567     -1731.5906     -1751.7411     -8.6286322      45.989717     -1.0777652      18246.259    
     31000   393.34505      0.0155         0.18440425     0.17898224     0.18085271    -1790.4078      617.08404      617.08404      617.08404      2.349811e+08   1.992178      -16677224      -16677224       1171.3144     -16676053      -1819.9284     -1766.4174     -1784.8775     -7.7599119      42.688503     -0.81727415     18359.131    
     32000   395.11789      0.016          0.18789356     0.1824053      0.18460449    -1825.4901      617.38787      617.38787      617.38787      2.3532837e+08  1.9892382     -16668614      -16668614       1176.5936     -16667437      -1854.3652     -1800.2004     -1821.9047     -8.205634       42.429039     -1.2426173      18345.673    
     33000   397.0533       0.0165         0.19082202     0.18584575     0.18829472    -1858.5821      617.6917       617.6917       617.6917       2.3567597e+08  1.9863043     -16659823      -16659823       1182.3569     -16658640      -1883.2669     -1834.155      -1858.3244     -10.165998      43.543765     -1.8791452      18497.897    
     34000   399.31362      0.017          0.19351579     0.18921758     0.19138431    -1888.7003      617.99554      617.99554      617.99554      2.3602392e+08  1.9833761     -16650867      -16650867       1189.0878     -16649678      -1909.8523     -1867.4323     -1888.8163     -11.14845       43.163531     -1.5223911      18347.747    
     35000   401.69071      0.0175         0.19639517     0.19229054     0.19409273    -1917.192       618.29937      618.29937      618.29937      2.3637221e+08  1.9804536     -16641757      -16641757       1196.1663     -16640561      -1938.2696     -1897.7601     -1915.5464     -9.5319746      42.235427     -0.46711723     18557.39     
     36000   403.6949       0.018          0.19938196     0.19521812     0.19680585    -1945.5742      618.6032       618.6032       618.6032       2.3672084e+08  1.9775369     -16632502      -16632502       1202.1345     -16631300      -1967.747      -1926.653      -1942.3227     -6.9490726      42.995847      2.1631845      18261.15     
     37000   405.49083      0.0185         0.20216207     0.19788192     0.19961773    -1972.7337      618.90703      618.90703      618.90703      2.3706981e+08  1.9746259     -16623108      -16623108       1207.4824     -16621900      -1995.1845     -1952.9427     -1970.0738     -5.7852319      42.822641      4.6440605      18432.363    
     38000   407.50507      0.019          0.20478423     0.20050729     0.2024673     -1999.3711      619.21087      619.21087      619.21087      2.3741913e+08  1.9717206     -16613581      -16613581       1213.4805     -16612368      -2021.0632     -1978.8531     -1998.1969     -5.6204498      40.333087      4.6911971      18316.718    
     39000   409.86517      0.0195         0.20729858     0.20324917     0.20509322    -2025.3013      619.5147       619.5147       619.5147       2.3776879e+08  1.968821      -16603925      -16603925       1220.5085     -16602704      -2045.878      -2005.9134     -2024.1127     -6.0861791      36.616505      2.9145776      18400.338    
     40000   412.45076      0.02           0.2098078      0.20590576     0.20757021    -2050.4442      619.81853      619.81853      619.81853      2.3811879e+08  1.9659271     -16594132      -16594132       1228.2079     -16592904      -2070.642      -2032.1318     -2048.5587     -6.2483025      33.440167      1.537028       18387.534    
     41000   414.89924      0.0205         0.21240028     0.20832414     0.21017558    -2075.4996      620.12237      620.12237      620.12237      2.3846914e+08  1.9630389     -16584205      -16584205       1235.4991     -16582969      -2096.2278     -2055.9994     -2074.2717     -5.9234376      32.478344      3.1670886      18309        
     42000   416.72577      0.021          0.21495674     0.21085428     0.21280377    -2100.8793      620.4262       620.4262       620.4262       2.3881983e+08  1.9601563     -16574146      -16574146       1240.9382     -16572905      -2121.4581     -2080.97       -2100.21       -5.4152332      32.514442      6.162887       18547.887    
     43000   418.37084      0.0215         0.21731312     0.21331631     0.21512766    -2124.3756      620.73003      620.73003      620.73003      2.3917086e+08  1.9572793     -16563962      -16563962       1245.8369     -16562716      -2144.7138     -2105.2683     -2123.1449     -4.5524362      31.541259      7.5125218      18325.376    
     44000   420.41538      0.022          0.21953953     0.21560091     0.21743059    -2146.7918      621.03386      621.03386      621.03386      2.3952224e+08  1.954408      -16553658      -16553658       1251.9252     -16552406      -2166.6867     -2127.8155     -2145.8731     -3.6932804      29.675565      5.991076       18625.47     
     45000   422.67346      0.0225         0.2215262      0.21774808     0.21969257    -2167.8324      621.3377       621.3377       621.3377       2.3987396e+08  1.9515423     -16543241      -16543241       1258.6494     -16541982      -2186.2936     -2149.0065     -2168.1971     -4.0742104      28.453338      4.2498805      18281.144    
     46000   424.98162      0.023          0.22334678     0.2198412      0.22150387    -2186.6662      621.64153      621.64153      621.64153      2.4022603e+08  1.9486822     -16532726      -16532726       1265.5227     -16531460      -2204.2613     -2169.6639     -2186.0733     -5.5828008      27.573921      3.6562295      16843.549    
     47000   427.18785      0.0235         0.2253057      0.22198122     0.22330316    -2206.0699      621.94536      621.94536      621.94536      2.4057844e+08  1.9458277     -16522109      -16522109       1272.0925     -16520837      -2223.5943     -2190.7843     -2203.8309     -5.8991705      26.628527      3.4984826      18214.66     
     48000   429.06119      0.024          0.22740612     0.22401213     0.22542733    -2226.6488      622.24919      622.24919      622.24919      2.4093119e+08  1.9429788     -16511386      -16511386       1277.671      -16510109      -2244.3239     -2210.8278     -2224.7948     -4.8322924      25.170193      5.7736463      18578.748    
     49000   430.66913      0.0245         0.2292633      0.22584314     0.22765046    -2246.0955      622.55303      622.55303      622.55303      2.4128429e+08  1.9401354     -16500561      -16500561       1282.4591     -16499278      -2262.6528     -2228.8985     -2246.7353     -3.2801159      22.495461      8.4155847      18370.8      
     50000   432.17827      0.025          0.23093838     0.22770424     0.22961152    -2264.1801      622.85686      622.85686      622.85686      2.4163773e+08  1.9372975     -16489634      -16489634       1286.9531     -16488347      -2279.1846     -2247.2661     -2266.0895     -0.98613099     20.274598      8.3548449      17652.412    
     51000   433.86279      0.0255         0.23259295     0.22954561     0.23111377    -2280.6229      623.16069      623.16069      623.16069      2.4199152e+08  1.9344652     -16478612      -16478612       1291.9693     -16477320      -2295.514      -2265.4391     -2280.9156     -0.22053379     20.674056      6.8402044      18488.196    
     52000   435.84614      0.026          0.23405827     0.23130366     0.23249619    -2295.7747      623.46452      623.46452      623.46452      2.4234566e+08  1.9316384     -16467500      -16467500       1297.8754     -16466202      -2309.9755     -2282.7896     -2294.559      -1.0553552      22.330171      7.0055031      18410.392    
     53000   437.99634      0.0265         0.23541105     0.23299761     0.2340709     -2310.9781      623.76836      623.76836      623.76836      2.4270014e+08  1.9288172     -16456303      -16456303       1304.2783     -16454999      -2323.3264     -2299.5076     -2310.1001     -1.4199206      23.334942      8.2265998      18108.969    
     54000   439.79604      0.027          0.23686822     0.23464059     0.23565818    -2326.3985      624.07219      624.07219      624.07219      2.4305496e+08  1.9260014     -16445027      -16445027       1309.6375     -16443718      -2337.7076     -2315.7226     -2325.7654     -2.4467889      21.497113      7.4756574      18332.229    
     55000   440.81777      0.0275         0.23846363     0.23607214     0.23713331    -2341.2093      624.37602      624.37602      624.37602      2.4341013e+08  1.9231911     -16433676      -16433676       1312.68       -16432364      -2353.4531     -2329.8509     -2340.3238     -1.9392967      18.84035       5.668049       18315.585    
     56000   441.71121      0.028          0.23991014     0.23718537     0.23835597    -2353.6524      624.67985      624.67985      624.67985      2.4376565e+08  1.9203862     -16422260      -16422260       1315.3406     -16420945      -2367.729      -2340.8376     -2352.3905      1.0584493      16.857019      6.2866567      18386.889    
     57000   443.16792      0.0285         0.24107332     0.23821612     0.23951015    -2364.6668      624.98369      624.98369      624.98369      2.4412151e+08  1.9175868     -16410776      -16410776       1319.6784     -16409457      -2379.2086     -2351.0103     -2363.7814      2.4064875      15.193318      8.5921559      18644.006    
     58000   444.73871      0.029          0.24216363     0.23942813     0.24085977    -2376.6808      625.28752      625.28752      625.28752      2.4447772e+08  1.9147929     -16399217      -16399217       1324.3559     -16397893      -2389.9692     -2362.9719     -2377.1011      1.1360545      13.850833      9.5339407      18337.297    
     59000   446.07197      0.0295         0.24311086     0.24075118     0.24223037    -2388.6583      625.59135      625.59135      625.59135      2.4483427e+08  1.9120043     -16387590      -16387590       1328.3262     -16386261      -2399.3177     -2376.0294     -2390.6279      0.078878758    13.332461      9.6383281      18666.493    
     60000   447.51904      0.03           0.24405821     0.24187373     0.24330566    -2399.0052      625.89519      625.89519      625.89519      2.4519117e+08  1.9092212     -16375899      -16375899       1332.6353     -16374567      -2408.6672     -2387.1081     -2401.2401     -0.49306465     12.28345       9.2313406      18331.914    
     61000   448.92186      0.0305         0.24518396     0.2430102      0.24429381    -2409.6981      626.19902      626.19902      626.19902      2.4554842e+08  1.9064435     -16364149      -16364149       1336.8127     -16362813      -2419.7776     -2398.3242     -2410.9924     -1.6993537      11.024413      8.5867121      18453.926    
     62000   449.70047      0.031          0.24624557     0.24438728     0.24545083    -2421.527       626.50285      626.50285      626.50285      2.4590602e+08  1.9036711     -16352339      -16352339       1339.1312     -16351000      -2430.2549     -2411.9149     -2422.4113     -1.3973092      10.333722      7.9571332      18197.311    
     63000   450.03788      0.0315         0.24718008     0.24568405     0.24660999    -2432.6807      626.80668      626.80668      626.80668      2.4626396e+08  1.9009042     -16340461      -16340461       1340.136      -16339121      -2439.4777     -2424.713      -2433.8514      0.60997636     10.117416      7.5154009      18247.175    
     64000   450.4236       0.032          0.24808335     0.24674201     0.24745937    -2441.9269      627.11052      627.11052      627.11052      2.4662225e+08  1.8981426     -16328522      -16328522       1341.2846     -16327181      -2448.3923     -2435.1543     -2442.2341      1.687182       11.408802      5.8931881      18573.074    
     65000   451.52108      0.0325         0.24902161     0.24741656     0.2479118     -2448.721       627.41435      627.41435      627.41435      2.4698088e+08  1.8953863     -16316532      -16316532       1344.5527     -16315187      -2457.6522     -2441.8116     -2446.6993      2.056481       11.91369       5.3354451      18224.269    
     66000   453.26838      0.033          0.24980646     0.2479053      0.24856612    -2455.0634      627.71818      627.71818      627.71818      2.4733987e+08  1.8926354     -16304505      -16304505       1349.7558     -16303156      -2465.3981     -2446.6351     -2453.1569      1.1234137      9.6772726      6.6163496      18640.53     
     67000   454.84516      0.0335         0.25023421     0.2486918      0.24945601    -2461.9854      628.02201      628.02201      628.02201      2.476992e+08   1.8898898     -16292448      -16292448       1354.4512     -16291093      -2469.6197     -2454.3972     -2461.9394      0.44946276     7.6248671      7.5587773      18224.902    
     68000   455.59848      0.034          0.25050516     0.24972391     0.25042966    -2469.4752      628.32585      628.32585      628.32585      2.4805888e+08  1.8871495     -16280344      -16280344       1356.6945     -16278988      -2472.2937     -2464.5834     -2471.5486      1.2795463      6.5019466      7.8688132      18547.75     
     69000   455.72192      0.0345         0.25091404     0.25040209     0.25109882    -2475.2528      628.62968      628.62968      628.62968      2.484189e+08   1.8844145     -16268189      -16268189       1357.0621     -16266832      -2476.3291     -2471.2765     -2478.1527      1.9956127      5.0714061      8.510868       18426.311    
     70000   455.7929       0.035          0.25142716     0.25060224     0.25142226    -2478.6632      628.93351      628.93351      628.93351      2.4877928e+08  1.8816848     -16255996      -16255996       1357.2734     -16254639      -2481.3932     -2473.2518     -2481.3448      2.7005378      2.2708084      9.0037058      18476.568    
     71000   455.49219      0.0355         0.25196638     0.25093788     0.25193867    -2483.2402      629.23734      629.23734      629.23734      2.4914e+08     1.8789603     -16243775      -16243775       1356.378      -16242419      -2486.7148     -2476.5644     -2486.4414      3.1767502      0.261221       8.7440784      18209.332    
     72000   454.7963       0.036          0.25225233     0.25155094     0.25263386    -2488.4846      629.54118      629.54118      629.54118      2.4950108e+08  1.8762412     -16231517      -16231517       1354.3057     -16230163      -2489.5369     -2482.6147     -2493.3023      3.6346642      0.23532548     8.2818702      18671.145    
     73000   454.52137      0.0365         0.25237921     0.25187416     0.25312182    -2491.5707      629.84501      629.84501      629.84501      2.498625e+08   1.8735272     -16219230      -16219230       1353.487      -16217876      -2490.7892     -2485.8047     -2498.1182      4.811422       0.22450625     7.1808303      18144.6      
     74000   455.3603       0.037          0.2525454      0.25190148     0.2532183     -2492.5246      630.14884      630.14884      630.14884      2.5022427e+08  1.8708185     -16206926      -16206926       1355.9852     -16205570      -2492.4293     -2486.0743     -2499.0703      5.1389832      0.94211228     6.4079448      18442.403    
     75000   456.61584      0.0375         0.25284941     0.2520858      0.25318096    -2494.0083      630.45267      630.45267      630.45267      2.5058639e+08  1.868115      -16194611      -16194611       1359.724      -16193251      -2495.4296     -2487.8934     -2498.7018      4.2256832      1.8418318      6.6473237      18477.406    
     76000   456.9864       0.038          0.25306049     0.25251708     0.25328818    -2496.4742      630.75651      630.75651      630.75651      2.5094885e+08  1.8654167     -16182271      -16182271       1360.8275     -16180911      -2497.5129     -2492.1498     -2499.76        3.4673287      1.8415578      6.9362835      18420.447    
     77000   456.87271      0.0385         0.25299927     0.25302187     0.25350118    -2498.6342      631.06034      631.06034      631.06034      2.5131167e+08  1.8627236     -16169904      -16169904       1360.4889     -16168544      -2496.9086     -2497.1317     -2501.8622      4.0278407      0.21790056     6.2474946      18561.332    
     78000   457.03964      0.039          0.25292442     0.25335553     0.25382103    -2500.5378      631.36417      631.36417      631.36417      2.5167484e+08  1.8600357     -16157524      -16157524       1360.986      -16156163      -2496.1699     -2500.4246     -2505.0188      5.7509169     -3.0868678      4.5369626      18308.412    
     79000   457.25689      0.0395         0.25297684     0.25320035     0.25418817    -2501.4075      631.668        631.668        631.668        2.5203836e+08  1.857353      -16145134      -16145134       1361.6329     -16143772      -2496.6873     -2498.8931     -2508.6422      6.5671212     -6.6707502      4.5084831      18732.251    
     80000   457.24705      0.04           0.25296246     0.25275636     0.25417105    -2499.8433      631.97184      631.97184      631.97184      2.5240222e+08  1.8546754     -16132733      -16132733       1361.6036     -16131371      -2496.5454     -2494.5114     -2508.4732      5.6683578     -9.127615       5.7783897      18312.622    
     81000   457.12703      0.0405         0.25267248     0.25234026     0.25372844    -2496.0644      632.27567      632.27567      632.27567      2.5276644e+08  1.8520029     -16120326      -16120326       1361.2462     -16118965      -2493.6835     -2490.4047     -2504.105       4.7637902     -9.6064671      6.147423       18717.992    
     82000   456.99315      0.041          0.25213315     0.25196533     0.25342903    -2492.0717      632.5795       632.5795       632.5795       2.5313101e+08  1.8493356     -16107927      -16107927       1360.8476     -16106566      -2488.3607     -2486.7045     -2501.15        5.1641909     -8.5988691      4.7011016      18473.398    
     83000   456.80903      0.0415         0.25181566     0.25193639     0.25336959    -2490.7365      632.88334      632.88334      632.88334      2.5349592e+08  1.8466734     -16095535      -16095535       1360.2993     -16094175      -2485.2274     -2486.4188     -2500.5634      6.2767476     -8.6305632      3.1610616      18572.222    
     84000   456.52211      0.042          0.25177344     0.25215329     0.25335423    -2491.2607      633.18717      633.18717      633.18717      2.5386119e+08  1.8440163     -16083140      -16083140       1359.4449     -16081780      -2484.8107     -2488.5595     -2500.4118      5.8775309     -10.305766      3.4155467      18333.949    
     85000   456.50481      0.0425         0.25148388     0.25200599     0.25302218    -2488.7312      633.491        633.491        633.491        2.5422681e+08  1.8413644     -16070738      -16070738       1359.3934     -16069379      -2481.953      -2487.1058     -2497.1348      3.8271484     -9.656882       5.1486774      18505.581    
     86000   456.59699      0.043          0.25105102     0.25153027     0.25251052    -2484.0589      633.79483      633.79483      633.79483      2.5459278e+08  1.8387175     -16058344      -16058344       1359.6679     -16056984      -2477.6809     -2482.4108     -2492.0851      2.8941792     -7.7820696      6.852974       18342.831    
     87000   456.27341      0.0435         0.25058713     0.25104408     0.25215081    -2479.7501      634.09867      634.09867      634.09867      2.549591e+08   1.8360756     -16045956      -16045956       1358.7043     -16044597      -2473.1027     -2477.6125     -2488.535       4.6710106     -9.4196654      6.3488232      18354.914    
     88000   455.25333      0.044          0.25024832     0.25073208     0.25172746    -2476.2164      634.4025       634.4025       634.4025       2.5532577e+08  1.8334388     -16033568      -16033568       1355.6667     -16032213      -2469.7589     -2474.5333     -2484.3569      8.8308503     -13.807564      4.3690255      18484.984    
     89000   454.11712      0.0445         0.24973226     0.25014826     0.25089667    -2469.8649      634.70633      634.70633      634.70633      2.556928e+08   1.8308071     -16021197      -16021197       1352.2832     -16019845      -2464.6658     -2468.7714     -2476.1576      11.571289     -16.775492      2.942014       18215.017    
     90000   453.37802      0.045          0.24873451     0.24931288     0.24999566    -2460.8703      635.01016      635.01016      635.01016      2.5606017e+08  1.8281804     -16008863      -16008863       1350.0823     -16007513      -2454.8188     -2460.5268     -2467.2654      9.7395904     -17.08852       3.3002745      18449.575    
     91000   452.80368      0.0455         0.24778286     0.24850342     0.24943239    -2453.2237      635.314        635.314        635.314        2.564279e+08   1.8255587     -15996563      -15996563       1348.372      -15995214      -2445.4267     -2452.5381     -2461.7063      6.0455781     -15.841836      5.0058549      18407.408    
     92000   452.13312      0.046          0.2472427      0.24777594     0.24931385    -2448.6635      635.61783      635.61783      635.61783      2.5679597e+08  1.8229421     -15984273      -15984273       1346.3752     -15982927      -2440.0957     -2445.3584     -2460.5364      4.5322541     -14.271916      4.7577417      18332.377    
     93000   451.35416      0.0465         0.24696487     0.24727606     0.24922067    -2445.7985      635.92166      635.92166      635.92166      2.571644e+08   1.8203304     -15971986      -15971986       1344.0556     -15970642      -2437.3538     -2440.4249     -2459.6168      6.2317589     -14.364106      1.5009838      18322.06     
     94000   450.79899      0.047          0.24664179     0.24680395     0.2486673     -2441.3621      636.22549      636.22549      636.22549      2.5753319e+08  1.8177237     -15959710      -15959710       1342.4024     -15958367      -2434.1652     -2435.7656     -2454.1555      7.9539113     -16.587088     -0.30891936     18560.266    
     95000   450.79214      0.0475         0.24589388     0.24608281     0.24765104    -2433.1861      636.52933      636.52933      636.52933      2.5790232e+08  1.815122      -15947461      -15947461       1342.382      -15946118      -2426.7839     -2428.6485     -2444.1257      7.0140687     -18.397301      0.98800349     18408.749    
     96000   450.55152      0.048          0.24471375     0.24527046     0.2465094     -2422.8756      636.83316      636.83316      636.83316      2.5827181e+08  1.8125253     -15935248      -15935248       1341.6655     -15933906      -2415.1369     -2420.6312     -2432.8587      5.0885239     -18.413932      2.8308282      18611.501    
     97000   449.51912      0.0485         0.24332008     0.24437543     0.24549433    -2412.007       637.13699      637.13699      637.13699      2.5864165e+08  1.8099335     -15923073      -15923073       1338.5912     -15921735      -2401.3825     -2411.798      -2422.8407      5.9368297     -18.084134      4.4613317      18403.012    
     98000   448.23821      0.049          0.24209156     0.24330123     0.24467234    -2401.7275      637.44082      637.44082      637.44082      2.5901184e+08  1.8073467     -15910940      -15910940       1334.7768     -15909605      -2389.2579     -2401.1965     -2414.7282      8.5212634     -18.22072       5.6631722      18459.702    
     99000   447.00592      0.0495         0.24115992     0.24221869     0.2439676     -2392.783       637.74466      637.74466      637.74466      2.5938239e+08  1.8047647     -15898845      -15898845       1331.1073     -15897513      -2380.0633     -2390.5126     -2407.773       9.0476942     -19.066476      5.7841705      18562.361    
    100000   445.55601      0.05           0.24020131     0.241086       0.24320224    -2383.3853      638.04849      638.04849      638.04849      2.5975329e+08  1.8021877     -15886783      -15886783       1326.7897     -15885456      -2370.6026     -2379.3339     -2400.2195      7.74899       -20.022848      4.0930122      17710.22     
    101000   444.27644      0.0505         0.23915119     0.23991985     0.24211605    -2372.521       638.35232      638.35232      638.35232      2.6012454e+08  1.7996156     -15874763      -15874763       1322.9794     -15873440      -2360.2387     -2367.8248     -2389.4996      6.1650094     -20.518898      1.4119641      18468.929    
    102000   443.41864      0.051          0.23819204     0.23892738     0.24073972    -2361.573       638.65615      638.65615      638.65615      2.6049615e+08  1.7970484     -15862788      -15862788       1320.425      -15861467      -2350.7727     -2358.0299     -2375.9163      5.5947112     -21.570411      0.21064705     18388.646    
    103000   442.77779      0.0515         0.2373375      0.23793831     0.23943309    -2351.2094      638.95999      638.95999      638.95999      2.6086811e+08  1.7944861     -15850856      -15850856       1318.5166     -15849538      -2342.339      -2348.2685     -2363.0208      6.5044283     -23.08966       1.0318445      18616.148    
    104000   441.94027      0.052          0.23630991     0.23691458     0.23855126    -2341.5601      639.26382      639.26382      639.26382      2.6124042e+08  1.7919286     -15838964      -15838964       1316.0227     -15837647      -2332.1975     -2338.1651     -2354.3178      8.1840647     -22.9151        0.87285759     18256.22     
    105000   440.79054      0.0525         0.23503384     0.23601121     0.23761256    -2331.3023      639.56765      639.56765      639.56765      2.6161309e+08  1.789376      -15827111      -15827111       1312.599      -15825799      -2319.6037     -2329.2495     -2345.0536      9.7056949     -22.730624     -0.21955784     18636.875    
    106000   439.62914      0.053          0.23371527     0.23529163     0.23641131    -2320.6455      639.87149      639.87149      639.87149      2.6198611e+08  1.7868283     -15815300      -15815300       1309.1405     -15813991      -2306.5904     -2322.1478     -2333.1983      9.3461935     -23.247312      0.30061195     18322.968    
    107000   438.35596      0.0535         0.23238994     0.23432908     0.23525591    -2309.318       640.17532      640.17532      640.17532      2.6235949e+08  1.7842853     -15803531      -15803531       1305.3492     -15802226      -2293.5104     -2312.6482     -2321.7953      6.6365251     -23.554454      2.7829888      18600.258    
    108000   437.06185      0.054          0.23105112     0.23276243     0.23415161    -2296.1269      640.47915      640.47915      640.47915      2.6273322e+08  1.7817472     -15791808      -15791808       1301.4955     -15790507      -2280.2973     -2297.1866     -2310.8967      4.1252039     -24.341549      3.5888685      18436.059    
    109000   435.51751      0.0545         0.22987159     0.23099558     0.23298913    -2282.6097      640.78298      640.78298      640.78298      2.6310731e+08  1.7792139     -15780146      -15780146       1296.8968     -15778849      -2268.6562     -2279.7492     -2299.4239      3.6313512     -24.829722      0.83418666     18520.998    
    110000   433.93761      0.055          0.22856863     0.22939434     0.23165932    -2268.681       641.08682      641.08682      641.08682      2.6348175e+08  1.7766854     -15768543      -15768543       1292.1921     -15767251      -2255.797      -2263.9461     -2286.2997      4.8126583     -23.776017     -1.9400688      18203.655    
    111000   432.61653      0.0555         0.22703966     0.22800481     0.23024933    -2254.4413      641.39065      641.39065      641.39065      2.6385654e+08  1.7741617     -15757003      -15757003       1288.2582     -15755715      -2240.7072     -2250.2325     -2272.3842      5.2928553     -22.934332     -2.4083892      18405.599    
    112000   431.61653      0.056          0.2256123      0.22664997     0.22884913    -2240.6823      641.69448      641.69448      641.69448      2.642317e+08   1.7716428     -15745527      -15745527       1285.2803     -15744242      -2226.6203     -2236.8613     -2258.5653      4.9566228     -22.449865     -1.5935946      18536.581    
    113000   430.53243      0.0565         0.22455841     0.22548562     0.2275572     -2229.1347      641.99831      641.99831      641.99831      2.646072e+08   1.7691287     -15734105      -15734105       1282.0521     -15732823      -2216.2192     -2225.37       -2245.815       3.9019167     -23.422305     -0.86510349     18478.648    
    114000   428.96392      0.057          0.22358308     0.22460036     0.22633734    -2219.0009      642.30215      642.30215      642.30215      2.6498307e+08  1.7666193     -15722724      -15722724       1277.3813     -15721447      -2206.5934     -2216.6332     -2233.7759      3.2783752     -25.241983     -0.36561444     18767.525    
    115000   427.43897      0.0575         0.22210763     0.22355436     0.22510964    -2206.6671      642.60598      642.60598      642.60598      2.6535928e+08  1.7641146     -15711382      -15711382       1272.8403     -15710109      -2192.0319     -2206.31       -2221.6594      3.5678702     -26.649957     -1.2149631      18356.755    
    116000   426.36795      0.058          0.22030647     0.222236       0.2237593     -2191.9624      642.90981      642.90981      642.90981      2.6573586e+08  1.7616147     -15700095      -15700095       1269.6509     -15698826      -2174.2559     -2193.2988     -2208.3326      3.5137239     -26.734878     -2.224968       18548.433    
    117000   425.16371      0.0585         0.21876912     0.22072155     0.22238802    -2177.4116      643.21364      643.21364      643.21364      2.6611279e+08  1.7591195     -15688875      -15688875       1266.0649     -15687609      -2159.0833     -2178.3524     -2194.7991      2.5006238     -25.875469     -2.4434866      18420.2      
    118000   423.68663      0.059          0.21734976     0.21899569     0.22098846    -2162.4604      643.51748      643.51748      643.51748      2.6649007e+08  1.756629      -15677732      -15677732       1261.6664     -15676471      -2145.0753     -2161.3194     -2180.9865      0.93986316    -24.476104     -2.748118       18620.378    
    119000   422.20054      0.0595         0.21592062     0.21730081     0.21949431    -2147.2678      643.82131      643.82131      643.82131      2.6686772e+08  1.7541432     -15666662      -15666662       1257.2411     -15665405      -2130.9708     -2144.5923     -2166.2404     -1.8899062     -23.107516     -2.7369448      18297.553    
    120000   420.46988      0.06           0.21451969     0.21581577     0.21787027    -2132.4311      644.12514      644.12514      644.12514      2.6724572e+08  1.7516621     -15655652      -15655652       1252.0875     -15654400      -2117.1447     -2129.936      -2150.2124     -3.8731587     -23.083847     -2.956601       18723.819    
    121000   418.44225      0.0605         0.21333204     0.214337       0.216304      -2118.5066      644.42897      644.42897      644.42897      2.6762407e+08  1.7491856     -15644693      -15644693       1246.0496     -15643447      -2105.4235     -2115.3418     -2134.7545     -2.3780369     -24.235465     -4.3064023      18356.821    
    122000   416.71763      0.061          0.21220391     0.21267941     0.21484205    -2104.5329      644.73281      644.73281      644.73281      2.6800279e+08  1.7467139     -15633787      -15633787       1240.914      -15632546      -2094.2898     -2098.9826     -2120.3262      0.90957363    -24.85545      -6.7185185      18408.648    
    123000   415.5464       0.0615         0.21080358     0.21130979     0.21357113    -2091.2394      645.03664      645.03664      645.03664      2.6838186e+08  1.7442468     -15622945      -15622945       1237.4262     -15621707      -2080.4696     -2085.4655     -2107.7832      2.9636119     -23.859976     -8.1244103      18401.871    
    124000   414.21066      0.062          0.20900306     0.21027138     0.21238941    -2078.0125      645.34047      645.34047      645.34047      2.6876128e+08  1.7417843     -15612170      -15612170       1233.4486     -15610936      -2062.6999     -2075.2172     -2096.1205      3.3362804     -22.971422     -7.7066221      18239.126    
    125000   412.40082      0.0625         0.20711513     0.20908709     0.2111483     -2063.8228      645.64431      645.64431      645.64431      2.6914107e+08  1.7393265     -15601458      -15601458       1228.0592     -15600230      -2044.0674     -2063.5291     -2083.8717      3.0102106     -23.12327      -6.6511404      18543.211    
    126000   410.52025      0.063          0.2056253      0.20763968     0.2094933     -2048.7154      645.94814      645.94814      645.94814      2.6952121e+08  1.7368733     -15590813      -15590813       1222.4592     -15589590      -2029.3639     -2049.2443     -2067.5381      1.4859945     -22.116773     -5.5971948      18292.56     
    127000   408.75645      0.0635         0.20440173     0.20598203     0.20779005    -2033.6337      646.25197      646.25197      646.25197      2.6990171e+08  1.7344247     -15580223      -15580223       1217.2069     -15579006      -2017.2882     -2032.8846     -2050.7284     -1.7764276     -21.566845     -4.8345879      18383.441    
    128000   406.99713      0.064          0.20303073     0.20427184     0.20649506    -2019.2372      646.5558       646.5558       646.5558       2.7028257e+08  1.7319807     -15569693      -15569693       1211.968      -15568481      -2003.7575     -2016.0063     -2037.9478     -4.6823235     -23.022705     -4.6088719      18472.976    
    129000   405.31454      0.0645         0.20163859     0.20271563     0.20526298    -2005.4847      646.85964      646.85964      646.85964      2.7066379e+08  1.7295413     -15559226      -15559226       1206.9575     -15558019      -1990.0182     -2000.6477     -2025.7881     -4.1563223     -23.8125       -5.8019273      18331.235    
    130000   403.93328      0.065          0.20044464     0.2013859      0.20375468    -1992.2205      647.16347      647.16347      647.16347      2.7104536e+08  1.7271064     -15548821      -15548821       1202.8443     -15547618      -1978.2348     -1987.5243     -2010.9023     -1.9391781     -22.10023      -7.9913824      18495.101    
    131000   403.21435      0.0655         0.19912382     0.20007295     0.20208509    -1978.0635      647.4673       647.4673       647.4673       2.714273e+08   1.7246762     -15538485      -15538485       1200.7035     -15537284      -1965.1993     -1974.5665     -1994.4247      0.31186241    -19.809761     -9.2718135      18488.339    
    132000   402.60957      0.066          0.19755839     0.19883609     0.20061906    -1964.0218      647.77113      647.77113      647.77113      2.7180959e+08  1.7222505     -15528216      -15528216       1198.9026     -15527017      -1949.7497     -1962.3596     -1979.9562      1.9580179     -18.777606     -9.1045614      18242.478    
    133000   400.85863      0.0665         0.19614909     0.19765736     0.19936288    -1951.3754      648.07497      648.07497      648.07497      2.7219224e+08  1.7198293     -15517998      -15517998       1193.6885     -15516804      -1935.841      -1950.7265     -1967.5587      1.25909       -19.146941     -7.8170017      18670.362    
    134000   398.00905      0.067          0.19476532     0.19641398     0.19806208    -1938.4534      648.3788       648.3788       648.3788       2.7257525e+08  1.7174127     -15507831      -15507831       1185.203      -15506646      -1922.1843     -1938.4553     -1954.7208     -2.4979748     -20.567294     -6.3856828      18155.709    
    135000   395.1693       0.0675         0.19326864     0.19487754     0.196715      -1924.0437      648.68263      648.68263      648.68263      2.7295862e+08  1.7150006     -15497720      -15497720       1176.7467     -15496543      -1907.4131     -1923.2917     -1941.4261     -5.9403157     -21.469067     -5.0725927      18498.663    
    136000   392.99314      0.068          0.19200259     0.19308291     0.19550468    -1909.9932      648.98646      648.98646      648.98646      2.7334234e+08  1.712593      -15487669      -15487669       1170.2665     -15486499      -1894.9182     -1905.5801     -1929.4812     -6.3595166     -21.841943     -4.477488       18328.288    
    137000   391.55317      0.0685         0.19088367     0.1913961      0.19422283    -1896.5461      649.2903       649.2903       649.2903       2.7372643e+08  1.7101899     -15477685      -15477685       1165.9785     -15476519      -1883.8753     -1888.9326     -1916.8303     -4.8599669     -21.082506     -5.4742696      18300.078    
    138000   390.73398      0.069          0.1894923      0.19013777     0.19274587    -1882.9705      649.59413      649.59413      649.59413      2.7411088e+08  1.7077913     -15467765      -15467765       1163.5391     -15466602      -1870.1436     -1876.5139     -1902.2539     -3.6266948     -18.88099      -8.036332       18432.421    
    139000   390.26972      0.0695         0.18804388     0.18937522     0.19117631    -1870.5335      649.89796      649.89796      649.89796      2.7449569e+08  1.7053972     -15457901      -15457901       1162.1566     -15456739      -1855.8488     -1868.9881     -1886.7635     -3.4991341     -16.756173     -10.646326      18193.347    
    140000   389.36731      0.07           0.18705691     0.18883882     0.18988454    -1861.2724      650.20179      650.20179      650.20179      2.7488085e+08  1.7030076     -15448077      -15448077       1159.4694     -15446918      -1846.1081     -1863.6942     -1874.0147     -4.7435364     -16.323135     -12.37894       18533.428    
    141000   387.60342      0.0705         0.18649968     0.18777366     0.18891778    -1852.7548      650.50563      650.50563      650.50563      2.7526638e+08  1.7006225     -15438288      -15438288       1154.2168     -15437134      -1840.6088     -1853.182      -1864.4736     -6.067766      -17.403649     -12.318261      18116.063    
    142000   385.61386      0.071          0.18551402     0.18600833     0.18777518    -1839.9458      650.80946      650.80946      650.80946      2.7565227e+08  1.6982417     -15428554      -15428554       1148.2922     -15427405      -1830.881      -1835.7595     -1853.1969     -6.7186836     -18.384648     -11.607098      18564.362    
    143000   383.90699      0.0715         0.18380672     0.18415992     0.18623272    -1823.1741      651.11329      651.11329      651.11329      2.7603852e+08  1.6958655     -15418886      -15418886       1143.2095     -15417743      -1814.0313     -1817.5171     -1837.9741     -6.5833434     -19.25668      -10.850598      18229.512    
    144000   382.3848       0.072          0.18204472     0.18279968     0.1847415     -1807.997       651.41712      651.41712      651.41712      2.7642512e+08  1.6934936     -15409278      -15409278       1138.6766     -15408139      -1796.6417     -1804.0926     -1823.2568     -5.9865424     -19.423162     -10.230448      18602.282    
    145000   381.17905      0.0725         0.1806551      0.18190392     0.18344771    -1796.2225      651.72096      651.72096      651.72096      2.7681209e+08  1.6911262     -15399730      -15399730       1135.0861     -15398595      -1782.9273     -1795.2521     -1810.4881     -5.8184068     -17.183896     -10.302839      18290.274    
    146000   380.20982      0.073          0.17973784     0.18110208     0.1825282     -1787.5421      652.02479      652.02479      652.02479      2.7719942e+08  1.6887632     -15390236      -15390236       1132.1999     -15389104      -1773.8745     -1787.3386     -1801.4133     -6.0805617     -14.374598     -10.49839       18650.816    
    147000   378.4933       0.0735         0.17902772     0.18012062     0.18182481    -1779.6633      652.32862      652.32862      652.32862      2.7758712e+08  1.6864046     -15380779      -15380779       1127.0884     -15379652      -1766.8662     -1777.6523     -1794.4714     -5.8640048     -13.303974     -9.974848       18181.811    
    148000   376.0693       0.074          0.17810627     0.17890101     0.1808479     -1769.4059      652.63246      652.63246      652.63246      2.7797517e+08  1.6840504     -15371350      -15371350       1119.8701     -15370230      -1757.7722     -1765.6156     -1784.83       -4.3260258     -13.858629     -9.2338014      18385.794    
    149000   374.01585      0.0745         0.17697658     0.17756746     0.17958944    -1757.1625      652.93629      652.93629      652.93629      2.7836358e+08  1.6817005     -15361957      -15361957       1113.7553     -15360844      -1746.6231     -1752.4546     -1772.41       -2.3996618     -14.393909     -9.0373322      18620.634    
    150000   372.81131      0.075          0.17584626     0.17634332     0.1782339     -1744.9575      653.24012      653.24012      653.24012      2.7875236e+08  1.6793551     -15352615      -15352615       1110.1684     -15351505      -1735.4676     -1740.3732     -1759.0318     -1.8714208     -14.751574     -10.012915      15672.33     
    151000   372.21477      0.0755         0.17471852     0.17531855     0.17685123    -1733.3277      653.54395      653.54395      653.54395      2.791415e+08   1.677014      -15343330      -15343330       1108.392      -15342222      -1724.3377     -1730.2596     -1745.3859     -3.515918      -14.478419     -10.994678      18190.847    
    152000   371.37288      0.076          0.17377552     0.17443076     0.17570235    -1723.5254      653.84779      653.84779      653.84779      2.79531e+08    1.6746772     -15334104      -15334104       1105.885      -15332998      -1715.031      -1721.4978     -1734.0474     -6.9287745     -14.91448      -10.98022       18144.352    
    153000   369.65164      0.0765         0.17300421     0.17360744     0.17485049    -1715.4771      654.15162      654.15162      654.15162      2.7992086e+08  1.6723448     -15324919      -15324919       1100.7595     -15323818      -1707.4188     -1713.3722     -1725.6402     -10.367693     -15.286937     -9.5671779      18452.057    
    154000   367.62099      0.077          0.17212317     0.1726025      0.17419825    -1707.127       654.45545      654.45545      654.45545      2.8031108e+08  1.6700167     -15315761      -15315761       1094.7125     -15314666      -1698.7236     -1703.4543     -1719.2031     -11.079        -13.834332     -9.1205472      18326.239    
    155000   366.25701      0.0775         0.17100895     0.17150335     0.17340363    -1697.2314      654.75928      654.75928      654.75928      2.8070167e+08  1.6676929     -15306629      -15306629       1090.6508     -15305538      -1687.7271     -1692.6064     -1711.3608     -7.5615064     -11.322237     -10.337457      18224.908    
    156000   365.55229      0.078          0.16994838     0.17075321     0.17234149    -1687.7805      655.06312      655.06312      655.06312      2.8109262e+08  1.6653735     -15297535      -15297535       1088.5523     -15296446      -1677.2601     -1685.2031     -1700.8783     -2.1952315     -9.9668317     -11.651936      18529.163    
    157000   364.79357      0.0785         0.16915854     0.17027751     0.17126582    -1680.0785      655.36695      655.36695      655.36695      2.8148393e+08  1.6630583     -15288483      -15288483       1086.293      -15287397      -1669.465      -1680.5083     -1690.2622      1.0425289     -10.068533     -11.755743      18188.145    
    158000   363.5687       0.079          0.16846216     0.16954631     0.17034329    -1672.3473      655.67078      655.67078      655.67078      2.8187561e+08  1.6607474     -15279467      -15279467       1082.6455     -15278384      -1662.5923     -1673.292      -1681.1575      0.42003478    -10.969431     -10.703182      18662.012    
    159000   361.88467      0.0795         0.16769223     0.16837236     0.1694985     -1663.1732      655.97461      655.97461      655.97461      2.8226764e+08  1.6584408     -15270485      -15270485       1077.6308     -15269407      -1654.9936     -1661.706      -1672.8201     -2.5271996     -12.084008     -9.3657401      18506.338    
    160000   360.22406      0.08           0.16676566     0.16722676     0.16846446    -1652.9546      656.27845      656.27845      656.27845      2.8266005e+08  1.6561385     -15261537      -15261537       1072.6857     -15260464      -1645.8491     -1650.3998     -1662.6149     -4.6756304     -11.895478     -7.8573213      18533.149    
    161000   359.03205      0.0805         0.1657859      0.16637938     0.16729009    -1643.0804      656.58228      656.58228      656.58228      2.8305281e+08  1.6538405     -15252632      -15252632       1069.1361     -15251563      -1636.1796     -1642.0368     -1651.0249     -5.1313132     -10.72162      -7.3475449      18321.8      
    162000   358.21433      0.081          0.16503866     0.1655755      0.1663365     -1634.8405      656.88611      656.88611      656.88611      2.8344594e+08  1.6515466     -15243764      -15243764       1066.7011     -15242698      -1628.8049     -1634.1031     -1641.6136     -5.1035454     -9.3179646     -8.2048138      18411.674    
    163000   357.55095      0.0815         0.16462079     0.16458895     0.16579034    -1628.4236      657.18994      657.18994      657.18994      2.8383943e+08  1.6492571     -15234927      -15234927       1064.7257     -15233862      -1624.6809     -1624.3666     -1636.2234     -4.6520054     -8.2783595     -9.6530506      18533.734    
    164000   356.83816      0.082          0.16418165     0.16362887     0.1653338     -1622.3187      657.49378      657.49378      657.49378      2.8423329e+08  1.6469717     -15226117      -15226117       1062.6031     -15225054      -1620.3469     -1614.8914     -1631.7177     -3.7585099     -8.1268135     -10.74675       18380.514    
    165000   356.00144      0.0825         0.16345092     0.16306777     0.16477235    -1616.2219      657.79761      657.79761      657.79761      2.8462751e+08  1.6446906     -15217325      -15217325       1060.1115     -15216265      -1613.1352     -1609.3538     -1626.1767     -3.1579179     -8.572783      -10.627443      18158.789    
    166000   355.07983      0.083          0.16247321     0.16286182     0.16417254    -1610.3547      658.10144      658.10144      658.10144      2.8502209e+08  1.6424137     -15208554      -15208554       1057.3671     -15207497      -1603.4859     -1607.3212     -1620.257      -3.1578613     -8.6239839     -9.8111707      18406.664    
    167000   354.10567      0.0835         0.16154854     0.16244306     0.16339046    -1603.3623      658.40527      658.40527      658.40527      2.8541704e+08  1.640141      -15199811      -15199811       1054.4662     -15198757      -1594.3601     -1603.1884     -1612.5385     -3.5559619     -9.0952247     -8.671003       18439.842    
    168000   353.02869      0.084          0.16083056     0.16172495     0.16221727    -1594.7785      658.70911      658.70911      658.70911      2.8581236e+08  1.6378724     -15191106      -15191106       1051.2591     -15190055      -1587.2742     -1596.1012     -1600.96       -3.1405243     -9.1918149     -7.3251883      18476.6      
    169000   351.86142      0.0845         0.16011223     0.16078444     0.1610222     -1585.3898      659.01294      659.01294      659.01294      2.8620804e+08  1.6356081     -15182433      -15182433       1047.7832     -15181385      -1580.1848     -1586.8191     -1589.1656     -1.7282315     -7.9034486     -6.8716539      18521.888    
    170000   350.6879       0.085          0.15926953     0.15969578     0.16017899    -1576.2622      659.31677      659.31677      659.31677      2.8660408e+08  1.6333479     -15173793      -15173793       1044.2887     -15172749      -1571.8681     -1576.0748     -1580.8437     -0.86120463    -6.4242334     -8.390752       18428.154    
    171000   350.02416      0.0855         0.15847805     0.15862278     0.15965201    -1568.3949      659.62061      659.62061      659.62061      2.8700049e+08  1.6310919     -15165191      -15165191       1042.3122     -15164148      -1564.0568     -1565.4851     -1575.6428     -1.2531936     -6.9500377     -10.253108      18467.878    
    172000   349.71405      0.086          0.15788015     0.15806395     0.15942901    -1563.8559      659.92444      659.92444      659.92444      2.8739727e+08  1.6288401     -15156617      -15156617       1041.3887     -15155576      -1558.156      -1559.9699     -1573.442      -1.4352647     -8.6803188     -9.9323016      18372.47     
    173000   349.07711      0.0865         0.15750222     0.15787717     0.15928336    -1561.519       660.22827      660.22827      660.22827      2.8779441e+08  1.6265924     -15148053      -15148053       1039.492      -15147013      -1554.4261     -1558.1266     -1572.0045     -1.2820577     -10.070223     -7.5065376      18433.528    
    174000   348.11262      0.087          0.15721291     0.1573494      0.15880397    -1557.254       660.5321       660.5321       660.5321       2.8819191e+08  1.6243488     -15139490      -15139490       1036.62       -15138454      -1551.5708     -1552.9178     -1567.2733     -1.2273149     -9.4095019     -5.0797769      18121.278    
    175000   347.46696      0.0875         0.15670217     0.15645648     0.15781386    -1549.3791      660.83594      660.83594      660.83594      2.8858978e+08  1.6221093     -15130956      -15130956       1034.6973     -15129922      -1546.5302     -1544.1054     -1557.5017     -1.877537      -7.2539815     -4.6499691      18506.699    
    176000   347.09526      0.088          0.15593854     0.15571948     0.15665949    -1540.6448      661.13977      661.13977      661.13977      2.8898802e+08  1.619874      -15122464      -15122464       1033.5904     -15121431      -1538.9937     -1536.8318     -1546.1089     -2.8536035     -5.9339743     -5.4572254      18234.862    
    177000   346.79174      0.0885         0.15508165     0.15518272     0.15577195    -1533.1403      661.4436       661.4436       661.4436       2.8938663e+08  1.6176428     -15114006      -15114006       1032.6866     -15112973      -1530.5369     -1531.5343     -1537.3496     -2.9792883     -5.9250845     -5.8606272      18396.47     
    178000   346.4098       0.089          0.15449206     0.15472754     0.15538458    -1528.4289      661.74743      661.74743      661.74743      2.897856e+08   1.6154156     -15105568      -15105568       1031.5492     -15104536      -1524.7181     -1527.0421     -1533.5266     -1.9115311     -5.9612716     -6.304201       18399.833    
    179000   345.44244      0.0895         0.15424485     0.15426909     0.15515109    -1525.3393      662.05127      662.05127      662.05127      2.9018493e+08  1.6131926     -15097141      -15097141       1028.6686     -15096112      -1522.2783     -1522.5176     -1531.2222     -0.22173809    -5.6154735     -7.2634742      18272.688    
    180000   344.28097      0.09           0.15398        0.15362386     0.15464286    -1520.6735      662.3551       662.3551       662.3551       2.9058464e+08  1.6109736     -15088728      -15088728       1025.21       -15087703      -1519.6645     -1516.1497     -1526.2064      1.3736018     -5.4607545     -7.2882773      18544.373    
    181000   343.68231      0.0905         0.15327877     0.15293067     0.15382785    -1513.405       662.65893      662.65893      662.65893      2.9098471e+08  1.6087587     -15080343      -15080343       1023.4272     -15079320      -1512.7439     -1509.3084     -1518.1628      1.640863      -5.3764764     -6.3584611      18208.976    
    182000   343.4765       0.091          0.15242215     0.15233815     0.1531173     -1506.3002      662.96276      662.96276      662.96276      2.9138515e+08  1.6065479     -15071984      -15071984       1022.8144     -15070962      -1504.2897     -1503.4606     -1511.1503      0.20660045    -5.504333      -5.5964497      18641.649    
    183000   343.06445      0.0915         0.15197038     0.15190881     0.15290254    -1502.695       663.2666       663.2666       663.2666       2.9178595e+08  1.6043411     -15063640      -15063640       1021.5873     -15062618      -1499.831      -1499.2234     -1509.0307     -1.5180355     -4.8712989     -5.0662757      18200.044    
    184000   342.47333      0.092          0.15165263     0.15162593     0.1527098     -1500.085       663.57043      663.57043      663.57043      2.9218712e+08  1.6021383     -15055306      -15055306       1019.8271     -15054286      -1496.6951     -1496.4316     -1507.1285     -2.2526983     -3.4083365     -4.1742707      18467.204    
    185000   342.12948      0.0925         0.15114359     0.15116803     0.15222617    -1495.3131      663.87426      663.87426      663.87426      2.9258866e+08  1.5999396     -15046988      -15046988       1018.8032     -15045969      -1491.6713     -1491.9125     -1502.3555     -2.6980998     -3.5563583     -3.6769789      18113.556    
    186000   341.84612      0.093          0.15056036     0.15046293     0.15148695    -1488.643       664.17809      664.17809      664.17809      2.9299057e+08  1.5977449     -15038693      -15038693       1017.9594     -15037675      -1485.9152     -1484.9537     -1495.06       -2.1354327     -4.9203758     -3.630346       18404.76     
    187000   341.19038      0.0935         0.1499982      0.14988552     0.15072422    -1482.3848      664.48193      664.48193      664.48193      2.9339285e+08  1.5955542     -15030422      -15030422       1016.0067     -15029406      -1480.3671     -1479.255      -1487.5324     -0.31801624    -5.4289596     -4.3304331      18344.063    
    188000   340.2962       0.094          0.14943399     0.14928228     0.14995305    -1476.0073      664.78576      664.78576      664.78576      2.9379549e+08  1.5933675     -15022178      -15022178       1013.344      -15021165      -1474.7988     -1473.3015     -1479.9215      0.15166657    -5.2025963     -5.5002878      18423.427    
    189000   339.76018      0.0945         0.14884046     0.14858706     0.14919084    -1469.2602      665.08959      665.08959      665.08959      2.941985e+08   1.5911848     -15013966      -15013966       1011.7478     -15012955      -1468.9411     -1466.4403     -1472.3992     -0.85157198    -5.0113151     -5.4728858      18538.093    
    190000   339.66192      0.095          0.14825041     0.14812068     0.14858855    -1463.8034      665.39342      665.39342      665.39342      2.9460188e+08  1.5890061     -15005777      -15005777       1011.4552     -15004766      -1463.1178     -1461.8374     -1466.4549     -1.6265043     -4.1984144     -4.2730743      18340.981    
    191000   339.59748      0.0955         0.14782156     0.14791509     0.14829272    -1460.743       665.69726      665.69726      665.69726      2.9500563e+08  1.5868314     -14997596      -14997596       1011.2633     -14996585      -1458.8853     -1459.8084     -1463.5353     -1.2595744     -3.4599524     -3.2657504      18376.441    
    192000   339.39632      0.096          0.14752696     0.14763261     0.14828448    -1458.8175      666.00109      666.00109      666.00109      2.9540975e+08  1.5846606     -14989421      -14989421       1010.6643     -14988410      -1455.9778     -1457.0206     -1463.454      -0.51534806    -3.0735521     -3.5090635      18322.339    
    193000   339.15153      0.0965         0.14726553     0.14708746     0.14818419    -1455.8341      666.30492      666.30492      666.30492      2.9581423e+08  1.5824938     -14981256      -14981256       1009.9353     -14980246      -1453.3978     -1451.6403     -1462.4642      0.075854562   -3.7259859     -3.8015975      18502.949    
    194000   339.00083      0.097          0.14679586     0.14633274     0.14759121    -1449.8555      666.60876      666.60876      666.60876      2.9621909e+08  1.5803309     -14973113      -14973113       1009.4866     -14972103      -1448.7625     -1444.1919     -1456.612       0.69954841    -4.998649      -3.0926644      18383.902    
    195000   338.72264      0.0975         0.14624317     0.14579266     0.14666009    -1443.1973      666.91259      666.91259      666.91259      2.9662431e+08  1.578172      -14965000      -14965000       1008.6582     -14963991      -1443.3078     -1438.8617     -1447.4225      1.4466028     -4.7316245     -1.9113798      18361.43     
    196000   338.25761      0.098          0.14583883     0.14548102     0.14602086    -1438.7391      667.21642      667.21642      667.21642      2.9702991e+08  1.576017      -14956906      -14956906       1007.2734     -14955898      -1439.3173     -1435.7861     -1441.1139      2.3571847     -2.634462      -1.6978865      18403.12     
    197000   337.75394      0.0985         0.14564011     0.14531069     0.14575518    -1436.651       667.52025      667.52025      667.52025      2.9743587e+08  1.573866      -14948817      -14948817       1005.7736     -14947812      -1437.3562     -1434.105      -1438.4918      2.6460021     -1.3374912     -2.559794       18431.437    
    198000   337.55106      0.099          0.14542776     0.14513647     0.14538392    -1434.1579      667.82409      667.82409      667.82409      2.978422e+08   1.5717188     -14940730      -14940730       1005.1694     -14939725      -1435.2604     -1432.3856     -1434.8277      1.198508      -2.3934234     -4.0938602      18402.951    
    199000   337.69143      0.0995         0.14493635     0.14480448     0.14496833    -1430.082       668.12792      668.12792      668.12792      2.9824891e+08  1.5695755     -14932651      -14932651       1005.5874     -14931646      -1430.4106     -1429.1092     -1430.7262     -1.0774795     -4.0910183     -4.845127       18426.977    
    200000   337.7743       0.1            0.14420961     0.14428528     0.14471107    -1425.1368      668.43175      668.43175      668.43175      2.9865598e+08  1.5674362     -14924595      -14924595       1005.8342     -14923590      -1423.2381     -1423.985      -1428.1872     -1.4580185     -4.5486868     -4.1479366      17875.84     
    201000   337.25975      0.1005         0.14353323     0.1436051      0.14436708    -1419.5424      668.73558      668.73558      668.73558      2.9906342e+08  1.5653007     -14916567      -14916567       1004.3019     -14915563      -1416.5628     -1417.2721     -1424.7923     -0.56828303    -4.2932674     -2.1773455      18466.838    
    202000   336.70717      0.101          0.14301535     0.14289343     0.14371504    -1413.3525      669.03942      669.03942      669.03942      2.9947124e+08  1.5631691     -14908565      -14908565       1002.6565     -14907563      -1411.4517     -1410.2485     -1418.3572     -0.24391868    -2.9532458      0.37452237     18023.789    
    203000   336.33855      0.1015         0.14252408     0.14226657     0.14305376    -1407.4987      669.34325      669.34325      669.34325      2.9987942e+08  1.5610414     -14900588      -14900588       1001.5588     -14899586      -1406.6033     -1404.0619     -1411.8308     -0.01486845    -1.4080605      1.4286824      18565.163    
    204000   335.97189      0.102          0.14213927     0.14185752     0.14255348    -1403.2413      669.64708      669.64708      669.64708      3.0028798e+08  1.5589175     -14892627      -14892627       1000.4669     -14891627      -1402.8055     -1400.0248     -1406.8935      1.4572169     -0.80491598     0.069114864    18349.798    
    205000   335.41759      0.1025         0.14199818     0.14177412     0.1422783     -1401.5975      669.95091      669.95091      669.95091      3.006969e+08   1.5567975     -14884673      -14884673       998.8163      -14883674      -1401.4131     -1399.2018     -1404.1776      2.3631845     -1.8764407     -2.2440972      18401.131    
    206000   335.24366      0.103          0.14189904     0.14164722     0.14203375    -1400.0494      670.25475      670.25475      670.25475      3.011062e+08   1.5546813     -14876716      -14876716       998.29837     -14875718      -1400.4346     -1397.9493     -1401.7641      0.73829319    -3.1810966     -4.0375274      18441.023    
    207000   335.87529      0.1035         0.14171354     0.14109064     0.14167001    -1396.4116      670.55858      670.55858      670.55858      3.0151587e+08  1.552569      -14868776      -14868776       1000.1793     -14867775      -1398.6039     -1392.4564     -1398.1743     -1.5585793     -2.7283775     -4.360279       18367.643    
    208000   336.57086      0.104          0.14151138     0.14038835     0.14131163    -1392.2571      670.86241      670.86241      670.86241      3.0192591e+08  1.5504605     -14860857      -14860857       1002.2506     -14859854      -1396.6087     -1385.5253     -1394.6373     -1.4311868     -1.6924275     -3.5891312      18635.715    
    209000   336.31911      0.1045         0.14116347     0.1399066      0.14096588    -1388.3903      671.16624      671.16624      671.16624      3.0233632e+08  1.5483558     -14852949      -14852949       1001.5009     -14851947      -1393.1751     -1380.7708     -1391.2251     -0.14868683    -2.1692723     -2.5923021      18233.211    
    210000   335.53387      0.105          0.14057199     0.13965231     0.1405308     -1384.1767      671.47008      671.47008      671.47008      3.027471e+08   1.5462549     -14845046      -14845046       999.16257     -14844047      -1387.3377     -1378.2611     -1386.9312      1.0391067     -3.0656673     -2.187698       18646.221    
    211000   334.86072      0.1055         0.13991272     0.13946479     0.14013985    -1380.1048      671.77391      671.77391      671.77391      3.0315825e+08  1.5441578     -14837155      -14837155       997.15803     -14836158      -1380.8312     -1376.4105     -1383.0728      2.7229076     -2.497661      -1.3140238      18195.074    
    212000   334.42664      0.106          0.13912875     0.13912532     0.13976668    -1375.1814      672.07774      672.07774      672.07774      3.0356978e+08  1.5420645     -14829290      -14829290       995.86544     -14828294      -1373.094      -1373.0602     -1379.3899      3.9473089     -0.2909053      0.31022915     18678.115    
    213000   334.248        0.1065         0.13828929     0.13861358     0.13932464    -1369.282       672.38158      672.38158      672.38158      3.0398168e+08  1.539975      -14821455      -14821455       995.33346     -14820460      -1364.8092     -1368.0096     -1375.0273      3.2095863      0.50925994     1.8448028      18157.279    
    214000   334.1839       0.107          0.13775237     0.13808521     0.13868134    -1363.6612      672.68541      672.68541      672.68541      3.0439395e+08  1.5378892     -14813646      -14813646       995.14258     -14812651      -1359.5102     -1362.7951     -1368.6785      1.0898969     -0.91557702     1.1799844      18518.65     
    215000   333.99826      0.1075         0.13762141     0.13753292     0.13810196    -1359.5075      672.98924      672.98924      672.98924      3.048066e+08   1.5358073     -14805850      -14805850       994.58979     -14804855      -1358.2178     -1357.3444     -1362.9604     -1.0373266     -2.3654733     -1.1816876      18352.056    
    216000   333.79785      0.108          0.13772123     0.13721051     0.13777144    -1357.6879      673.29307      673.29307      673.29307      3.0521961e+08  1.533729      -14798058      -14798058       993.99299     -14797064      -1359.2028     -1354.1625     -1359.6984     -1.8034035     -2.3533111     -3.2649883      18324.049    
    217000   333.80947      0.1085         0.13777967     0.13714726     0.1374928     -1356.7554      673.59691      673.59691      673.59691      3.05633e+08    1.5316546     -14790268      -14790268       994.02761     -14789274      -1359.7796     -1353.5382     -1356.9485     -1.4800892     -1.1042967     -3.9287759      18598.444    
[...]
   3108000   324.31415      1.554          0.0071571098   0.0070062421   0.0068683634  -69.188964      1551.977       1551.977       1551.977       3.7381424e+09  0.1252291     -4166882.9     -4166882.9      965.75217     -4165917.2     -70.635182     -69.146234     -67.785477      0.62603725     0.83958073     1.2783719      17391.958    
   3109000   324.34805      1.5545         0.0071533285   0.0069985371   0.0068635316  -69.135282      1552.2808      1552.2808      1552.2808      3.7403383e+09  0.12515558    -4164825.4     -4164825.4      965.85311     -4163859.5     -70.597863     -69.070191     -67.73779       0.60676856     0.84200696     1.281628       17686.847    
   3110000   324.39106      1.555          0.0071478379   0.0069904447   0.0068577335  -69.071523      1552.5847      1552.5847      1552.5847      3.742535e+09   0.12508211    -4162768.8     -4162768.8      965.9812      -4161802.8     -70.543675     -68.990325     -67.680568      0.59080995     0.84507104     1.2832545      17343.737    
   3111000   324.41221      1.5555         0.0071407338   0.0069818689   0.0068496917  -68.993484      1552.8885      1552.8885      1552.8885      3.7447326e+09  0.12500871    -4160713.6     -4160713.6      966.04417     -4159747.5     -70.473563     -68.905689     -67.601201      0.58715879     0.84737117     1.2804318      17826.663    
   3112000   324.40557      1.556          0.0071331692   0.0069744617   0.0068412992  -68.916622      1553.1923      1553.1923      1553.1923      3.7469311e+09  0.12493536    -4158660.1     -4158660.1      966.02438     -4157694.1     -70.398907     -68.832585     -67.518374      0.59902714     0.84402007     1.2679517      17419.046    
   3113000   324.37992      1.5565         0.0071267994   0.0069694547   0.0068344953  -68.856812      1553.4962      1553.4962      1553.4962      3.7491304e+09  0.12486207    -4156607.9     -4156607.9      965.948       -4155642       -70.336042     -68.78317      -67.451224      0.62569202     0.83141097     1.2560302      17735.03     
   3114000   324.35359      1.557          0.0071220781   0.0069664973   0.0068287539  -68.812663      1553.8         1553.8         1553.8         3.7513306e+09  0.12478884    -4154556.5     -4154556.5      965.8696      -4153590.6     -70.289446     -68.753983     -67.394561      0.65379373     0.81348878     1.2515279      17151.605    
   3115000   324.3454       1.5575         0.0071169055   0.0069669005   0.0068244041  -68.782663      1554.1038      1554.1038      1554.1038      3.7535317e+09  0.12471566    -4152505.4     -4152505.4      965.84523     -4151539.6     -70.238396     -68.757962     -67.351631      0.66634461     0.802544       1.2469019      17530.782    
   3116000   324.36754      1.558          0.0071102513   0.0069698312   0.006821662   -68.761393      1554.4077      1554.4077      1554.4077      3.7557336e+09  0.12464254    -4150454.3     -4150454.3      965.91113     -4149488.4     -70.172725     -68.786886     -67.32457       0.66975341     0.81122661     1.2409842      17468.126    
   3117000   324.41101      1.5585         0.0071030142   0.0069719888   0.006818348   -68.733781      1554.7115      1554.7115      1554.7115      3.7579364e+09  0.12456948    -4148402.9     -4148402.9      966.04059     -4147436.9     -70.101299     -68.808179     -67.291863      0.6777058      0.83533396     1.2330468      17362.512    
   3118000   324.44806      1.559          0.0070957773   0.0069684365   0.006812332   -68.678496      1555.0153      1555.0153      1555.0153      3.76014e+09    0.12449648    -4146351.8     -4146351.8      966.15092     -4145385.7     -70.029878     -68.773121     -67.232489      0.68798588     0.86418161     1.2212613      17406.869    
   3119000   324.46493      1.5595         0.0070888718   0.0069570711   0.0068038689  -68.590548      1555.3192      1555.3192      1555.3192      3.7623445e+09  0.12442353    -4144302.4     -4144302.4      966.20116     -4143336.2     -69.961725     -68.660953     -67.148965      0.68928136     0.88791629     1.1999564      17390.176    
   3120000   324.46504      1.56           0.0070843357   0.0069421981   0.0067960673  -68.501032      1555.623       1555.623       1555.623       3.7645499e+09  0.12435064    -4142255.2     -4142255.2      966.20148     -4141289       -69.916958     -68.514168     -67.07197       0.67665125     0.89894436     1.1782975      17416.534    
   3121000   324.45577      1.5605         0.0070821263   0.0069295645   0.0067899469  -68.432067      1555.9268      1555.9268      1555.9268      3.7667561e+09  0.12427781    -4140209.9     -4140209.9      966.17389     -4139243.7     -69.895153     -68.389484     -67.011566      0.65716011     0.89680001     1.1699041      17445.967    
   3122000   324.43132      1.561          0.007081432    0.0069218262   0.0067853453  -68.389188      1556.2306      1556.2306      1556.2306      3.7689632e+09  0.12420503    -4138165.4     -4138165.4      966.10106     -4137199.3     -69.8883       -68.313113     -66.966151      0.64261156     0.87319653     1.1831131      17421.279    
   3123000   324.39497      1.5615         0.0070801081   0.0069172348   0.0067810899  -68.355729      1556.5345      1556.5345      1556.5345      3.7711711e+09  0.12413231    -4136120.8     -4136120.8      965.99283     -4135154.8     -69.875234     -68.2678       -66.924154      0.6390894      0.83558985     1.2095866      17383.256    
   3124000   324.36285      1.562          0.0070749038   0.0069134308   0.0067743995  -68.304085      1556.8383      1556.8383      1556.8383      3.7733799e+09  0.12405965    -4134076.6     -4134076.6      965.89717     -4133110.7     -69.823872     -68.230257     -66.858125      0.64652589     0.80410609     1.2396731      17348.959    
   3125000   324.35202      1.5625         0.0070674506   0.0069097936   0.0067655885  -68.238614      1557.1421      1557.1421      1557.1421      3.7755896e+09  0.12398704    -4132033.6     -4132033.6      965.86492     -4131067.7     -69.750314     -68.19436      -66.771167      0.6532111      0.78867593     1.2649793      17355.039    
   3126000   324.37076      1.563          0.0070606119   0.0069068824   0.0067594317  -68.186285      1557.446       1557.446       1557.446       3.7778001e+09  0.12391449    -4129991.7     -4129991.7      965.92073     -4129025.8     -69.682822     -68.16563      -66.710404      0.6549418      0.7877278      1.2741539      17110.337    
   3127000   324.41114      1.5635         0.0070551349   0.0069027973   0.0067578328  -68.149568      1557.7498      1557.7498      1557.7498      3.7800115e+09  0.123842      -4127950.5     -4127950.5      966.04096     -4126984.4     -69.628768     -68.125313     -66.694625      0.65593223     0.7854041      1.2643197      17614.409    
   3128000   324.46098      1.564          0.0070511397   0.0068977535   0.006759257   -68.124518      1558.0536      1558.0536      1558.0536      3.7822238e+09  0.12376956    -4125909.5     -4125909.5      966.1894      -4124943.3     -69.589339     -68.075534     -66.70868       0.66833371     0.77480645     1.2364421      17458.894    
   3129000   324.49656      1.5645         0.0070473541   0.0068940857   0.0067593304  -68.100239      1558.3575      1558.3575      1558.3575      3.7844369e+09  0.12369718    -4123868.4     -4123868.4      966.29533     -4122902.1     -69.551978     -68.039336     -66.709405      0.68887547     0.76037887     1.2137439      17198.815    
   3130000   324.50356      1.565          0.0070420007   0.0068907229   0.0067550737  -68.057562      1558.6613      1558.6613      1558.6613      3.7866509e+09  0.12362486    -4121827.4     -4121827.4      966.3162      -4120861.1     -69.499144     -68.006148     -66.667394      0.700673       0.75301307     1.2190699      17630.614    
   3131000   324.48671      1.5655         0.0070344384   0.0068857974   0.0067469472  -67.989746      1558.9651      1558.9651      1558.9651      3.7888657e+09  0.12355259    -4119787.2     -4119787.2      966.26601     -4118821       -69.42451      -67.957537     -66.587191      0.70047281     0.75619137     1.2496017      17137.748    
   3132000   324.45603      1.566          0.0070244331   0.0068802731   0.0067374309  -67.907351      1559.269       1559.269       1559.269       3.7910814e+09  0.12348038    -4117748.7     -4117748.7      966.17466     -4116782.5     -69.325764     -67.903016     -66.493273      0.68116008     0.77032742     1.2842841      17314.777    
   3133000   324.43036      1.5665         0.007013405    0.0068754412   0.0067276783  -67.823092      1559.5728      1559.5728      1559.5728      3.793298e+09   0.12340823    -4115712.1     -4115712.1      966.09822     -4114746       -69.216925     -67.855329     -66.397023      0.6507545      0.78000783     1.3058781      17336.211    
   3134000   324.42303      1.567          0.007004813    0.0068725743   0.0067222457  -67.767524      1559.8766      1559.8766      1559.8766      3.7955155e+09  0.12333613    -4113677       -4113677        966.07639     -4112711       -69.132129     -67.827035     -66.343407      0.63309329     0.78171539     1.3086963      17631.75     
   3135000   324.43733      1.5675         0.0069989913   0.0068712361   0.0067232742  -67.747353      1560.1805      1560.1805      1560.1805      3.7977338e+09  0.12326409    -4111642.4     -4111642.4      966.11896     -4110676.3     -69.074674     -67.813827     -66.353557      0.64262976     0.7873973      1.2999163      17515.608    
   3136000   324.47261      1.568          0.0069956944   0.0068708007   0.0067274486  -67.748808      1560.4843      1560.4843      1560.4843      3.7999529e+09  0.1231921     -4109607.3     -4109607.3      966.22402     -4108641.1     -69.042136     -67.809531     -66.394756      0.6671059      0.80658798     1.2875855      17331.325    
   3137000   324.52298      1.5685         0.0069943768   0.0068704932   0.0067291822  -67.749164      1560.7881      1560.7881      1560.7881      3.802173e+09   0.12312017    -4107571.3     -4107571.3      966.37402     -4106604.9     -69.029132     -67.806495     -66.411865      0.68355845     0.82667183     1.279704       17586.596    
   3138000   324.56517      1.569          0.0069928391   0.006868577    0.0067252235  -67.724779      1561.092       1561.092       1561.092       3.8043938e+09  0.1230483     -4105534.7     -4105534.7      966.49964     -4104568.2     -69.013957     -67.787584     -66.372795      0.68564513     0.84065725     1.2752977      17271.417    
   3139000   324.58348      1.5695         0.0069895136   0.0068629103   0.0067175945  -67.670099      1561.3958      1561.3958      1561.3958      3.8066156e+09  0.12297648    -4103498.6     -4103498.6      966.55418     -4102532       -68.981136     -67.731659     -66.297503      0.67825527     0.84666987     1.2637623      17726.086    
   3140000   324.57969      1.57           0.00698635     0.0068544297   0.0067105978  -67.608775      1561.6996      1561.6996      1561.6996      3.8088382e+09  0.12290472    -4101463.6     -4101463.6      966.54289     -4100497.1     -68.949914     -67.647962     -66.228451      0.6686965      0.84375126     1.249388       17363.132    
   3141000   324.56084      1.5705         0.0069844479   0.0068438691   0.006705206   -67.550038      1562.0035      1562.0035      1562.0035      3.8110617e+09  0.12283301    -4099429.6     -4099429.6      966.48677     -4098463.1     -68.931141     -67.543736     -66.175238      0.67926017     0.84079696     1.2426776      17749.157    
   3142000   324.52864      1.571          0.0069828973   0.0068336465   0.0067002796  -67.495101      1562.3073      1562.3073      1562.3073      3.8132861e+09  0.12276136    -4097396.6     -4097396.6      966.39086     -4096430.2     -68.915838     -67.442847     -66.126618      0.71084542     0.84001447     1.2425769      17474.323    
   3143000   324.48169      1.5715         0.0069800488   0.0068274101   0.006694427   -67.445961      1562.6111      1562.6111      1562.6111      3.8155113e+09  0.12268977    -4095364.3     -4095364.3      966.25107     -4094398       -68.887725     -67.381299     -66.068858      0.73982157     0.83233285     1.2413523      17762.269    
   3144000   324.42245      1.572          0.0069749626   0.0068244916   0.0066873069  -67.396204      1562.915       1562.915       1562.915       3.8177374e+09  0.12261823    -4093332.5     -4093332.5      966.07467     -4092366.4     -68.837528     -67.352495     -65.998588      0.74479228     0.81483073     1.2406208      17983.029    
   3145000   324.37298      1.5725         0.0069658454   0.0068207634   0.0066786433  -67.325445      1563.2188      1563.2188      1563.2188      3.8199643e+09  0.12254674    -4091301.7     -4091301.7      965.92734     -4090335.8     -68.747549     -67.315701     -65.913084      0.73076934     0.79580131     1.2425899      17568.673    
   3146000   324.3461       1.573          0.0069544885   0.0068164328   0.0066705235  -67.247125      1563.5226      1563.5226      1563.5226      3.8221922e+09  0.12247532    -4089272.6     -4089272.6      965.8473      -4088306.8     -68.635465     -67.272961     -65.832949      0.70991465     0.78005949     1.2494536      17995.735    
   3147000   324.33043      1.5735         0.0069461314   0.006812722    0.0066668388  -67.195303      1563.8265      1563.8265      1563.8265      3.8244208e+09  0.12240394    -4087244.9     -4087244.9      965.80065     -4086279.1     -68.552987     -67.236339     -65.796583      0.69033667     0.77090347     1.2539084      17530.503    
   3148000   324.31748      1.574          0.0069422846   0.0068112117   0.0066662971  -67.175897      1564.1303      1564.1303      1564.1303      3.8266504e+09  0.12233263    -4085217.3     -4085217.3      965.76209     -4084251.6     -68.515022     -67.221433     -65.791237      0.66932486     0.76277335     1.2511024      17743.901    
   3149000   324.3177       1.5745         0.0069407465   0.0068108447   0.0066652341  -67.166133      1564.4341      1564.4341      1564.4341      3.8288808e+09  0.12226136    -4083189.2     -4083189.2      965.76273     -4082223.5     -68.499842     -67.217811     -65.780746      0.65136545     0.75067019     1.2439411      17210.612    
   3150000   324.33789      1.575          0.0069400157   0.0068093564   0.0066621748  -67.148768      1564.738       1564.738       1564.738       3.8311121e+09  0.12219016    -4081160.7     -4081160.7      965.82284     -4080194.9     -68.492629     -67.203122     -65.750553      0.64542723     0.73366164     1.234677       17021.918    
   3151000   324.36533      1.5755         0.0069394348   0.0068042292   0.0066573244  -67.114034      1565.0418      1565.0418      1565.0418      3.8333442e+09  0.12211901    -4079132.1     -4079132.1      965.90455     -4078166.2     -68.486897     -67.152521     -65.702684      0.65634251     0.71364455     1.2297864      17561.931    
   3152000   324.38791      1.576          0.0069380194   0.0067946288   0.0066507493  -67.056164      1565.3456      1565.3456      1565.3456      3.8355772e+09  0.12204791    -4077104.3     -4077104.3      965.97181     -4076138.3     -68.472927     -67.057772     -65.637792      0.67279211     0.69907482     1.241971       17341.52     
   3153000   324.38644      1.5765         0.0069345832   0.0067835      0.0066437823  -66.985329      1565.6495      1565.6495      1565.6495      3.8378111e+09  0.12197687    -4075077.8     -4075077.8      965.96742     -4074111.8     -68.439015     -66.947939     -65.569034      0.68001176     0.70142825     1.2689854      17644.947    
   3154000   324.34947      1.577          0.0069286742   0.0067718738   0.0066370266  -66.905418      1565.9533      1565.9533      1565.9533      3.8400459e+09  0.12190588    -4073052.6     -4073052.6      965.85734     -4072086.8     -68.380697     -66.833198     -65.502359      0.66663039     0.71759357     1.2926734      17385.102    
   3155000   324.28618      1.5775         0.0069205413   0.0067607568   0.0066297823  -66.818259      1566.2571      1566.2571      1566.2571      3.8422815e+09  0.12183495    -4071029.3     -4071029.3      965.66887     -4070063.6     -68.300432     -66.723482     -65.430864      0.63711663     0.73117174     1.300101       17518.714    
   3156000   324.21616      1.578          0.0069108778   0.0067524283   0.0066234991  -66.738401      1566.561       1566.561       1566.561       3.844518e+09   0.12176408    -4069007.7     -4069007.7      965.46036     -4068042.3     -68.205061     -66.641286     -65.368854      0.60180066     0.73906918     1.2854         17602.493    
   3157000   324.16703      1.5785         0.0069004409   0.006748094    0.0066198815  -66.677905      1566.8648      1566.8648      1566.8648      3.8467553e+09  0.12169326    -4066987.6     -4066987.6      965.31405     -4066022.3     -68.102056     -66.59851      -65.33315       0.5846821      0.74510622     1.2597355      17438.644    
   3158000   324.16825      1.579          0.0068920176   0.0067464849   0.0066186672  -66.640907      1567.1686      1567.1686      1567.1686      3.8489936e+09  0.12162249    -4064968.1     -4064968.1      965.31769     -4064002.8     -68.018925     -66.58263      -65.321166      0.60297955     0.75116651     1.2435565      17623.064    
   3159000   324.22111      1.5795         0.0068872802   0.0067444513   0.0066168695  -66.612718      1567.4725      1567.4725      1567.4725      3.8512326e+09  0.12155178    -4062948.9     -4062948.9      965.47511     -4061983.4     -67.972171     -66.562559     -65.303425      0.64303397     0.76827881     1.2437887      17550.523    
   3160000   324.28551      1.58           0.0068851821   0.0067411864   0.0066138962  -66.585294      1567.7763      1567.7763      1567.7763      3.8534726e+09  0.12148113    -4060929.7     -4060929.7      965.66689     -4059964.1     -67.951464     -66.530337     -65.274081      0.68615307     0.79709805     1.2522048      17420.324    
   3161000   324.30873      1.5805         0.0068822623   0.0067374206   0.0066098771  -66.550078      1568.0801      1568.0801      1568.0801      3.8557134e+09  0.12141052    -4058910.8     -4058910.8      965.73602     -4057945.1     -67.922648     -66.493171     -65.234415      0.72093873     0.82341697     1.2473566      17534.625    
   3162000   324.27682      1.581          0.0068760403   0.0067336627   0.0066046336  -66.499997      1568.384       1568.384       1568.384       3.8579551e+09  0.12133998    -4056892.4     -4056892.4      965.64099     -4055926.7     -67.861242     -66.456083     -65.182666      0.74088558     0.82685836     1.2248182      17590.587    
   3163000   324.22015      1.5815         0.0068672898   0.0067297172   0.0065977282  -66.435513      1568.6878      1568.6878      1568.6878      3.8601977e+09  0.12126949    -4054874.8     -4054874.8      965.47224     -4053909.3     -67.77488      -66.417145     -65.114515      0.74586157     0.80617863     1.2041478      17249.738    
   3164000   324.1782       1.582          0.0068587123   0.0067248077   0.0065881598  -66.359667      1568.9916      1568.9916      1568.9916      3.8624411e+09  0.12119905    -4052858.6     -4052858.6      965.34733     -4051893.2     -67.690228     -66.368692     -65.020082      0.73701498     0.78430336     1.1998194      17563.012    
   3165000   324.162        1.5825         0.0068519689   0.0067191969   0.0065790641  -66.289102      1569.2955      1569.2955      1569.2955      3.8646854e+09  0.12112867    -4050843.9     -4050843.9      965.29907     -4049878.6     -67.623675     -66.313317     -64.930314      0.71558834     0.76641416     1.1996935      17485.747    
ERROR on proc 0: Pair distance > table outer cutoff: ijtype 2 1 dist 308.0000115232184 (src/pair_table_pgn.cpp:138)
Last command: run				${steps_tensile}
