LAMMPS (23 Jun 2022 - Update 1)
OMP_NUM_THREADS environment is not set. Defaulting to 1 thread. (src/comm.cpp:98)
  using 1 OpenMP thread(s) per MPI task
###

# Read restart info
read_restart ${read_res}
read_restart ./trial9/6040/equpmf70.res
Reading restart file ...
  restart file = 23 Jun 2022, LAMMPS = 23 Jun 2022
  restoring atom style atomic from restart
  orthogonal box = (1682.2423 1682.2423 1682.2423) to (2317.7577 2317.7577 2317.7577)
  1 by 2 by 2 MPI processor grid
  restoring pair style table from restart
  1000 atoms
  read_restart CPU = 0.074 seconds

# Settings
pair_style table/pgn spline 10941
pair_coeff 1 1 N20e.txt DE_GNP 308 72.9   # 1.35 * r
pair_coeff 2 2 N100e.txt DE_GNP 473.9 111.78
WARNING: 20 of 10941 force values in table DE_GNP are inconsistent with -dE/dr.
WARNING:  Should only be flagged at inflection points (src/pair_table_pgn.cpp:478)
pair_coeff 1 2 mixed_potentiale.txt DE_GNP 391.2 92.95
WARNING: 1564 of 10941 force values in table DE_GNP are inconsistent with -dE/dr.
WARNING:  Should only be flagged at inflection points (src/pair_table_pgn.cpp:478)

# Neighbor list
neighbor 2.0 bin
neigh_modify delay 0 every 1 check no once yes

# Temperature
variable T equal ${Temp}
variable T equal 300

# Deformation
reset_timestep 0
variable tmp equal "lx"
variable L0 equal ${tmp}
variable L0 equal 635.515343591254
variable strain equal "(lx - v_L0)/v_L0"
variable stp equal "step"
variable tmpe equal "temp"
variable p1 equal "v_strain"
variable p2 equal "-pxx*1.01325/10000"
variable p3 equal "-pyy*1.01325/10000"
variable p4 equal "-pzz*1.01325/10000"
variable p5 equal "lx"
variable p6 equal "ly"
variable p7 equal "lz"
variable p8 equal "press"
variable p9 equal "epair"
variable p10 equal "etotal"

# Thermo
thermo_style custom step temp v_p1 v_p2 v_p3 v_p4 press lx ly lz vol density epair pe ke etotal pxx pyy pzz pxy pxz pyz spcpu
thermo ${ts_save}
thermo 1000

# Dump
# dump 1 all custom 2000 ./${N20}${N100}/tensile/trajectory/trajectory_${usic}_${trial}_*.tensile.custom id type x y z ix iy iz
# dump_modify 1 sort id
dump 2 all cfg 50000 ./trial${trial}/${N20}${N100}/tensile/trajectory/dumpten.tens_${usic}_${trial}_*.cfg mass type xs ys zs fx fy fz
dump 2 all cfg 50000 ./trial9/${N20}${N100}/tensile/trajectory/dumpten.tens_${usic}_${trial}_*.cfg mass type xs ys zs fx fy fz
dump 2 all cfg 50000 ./trial9/60${N100}/tensile/trajectory/dumpten.tens_${usic}_${trial}_*.cfg mass type xs ys zs fx fy fz
dump 2 all cfg 50000 ./trial9/6040/tensile/trajectory/dumpten.tens_${usic}_${trial}_*.cfg mass type xs ys zs fx fy fz
dump 2 all cfg 50000 ./trial9/6040/tensile/trajectory/dumpten.tens_1_${trial}_*.cfg mass type xs ys zs fx fy fz
dump 2 all cfg 50000 ./trial9/6040/tensile/trajectory/dumpten.tens_1_9_*.cfg mass type xs ys zs fx fy fz
dump_modify 2 element N20 N100

fix 1 all nvt temp ${T} ${T} 100
fix 1 all nvt temp 300 ${T} 100
fix 1 all nvt temp 300 300 100
fix 2 all deform 1 x erate ${strain_rate} y erate ${strain_rate} z erate ${strain_rate} units box
fix 2 all deform 1 x erate 5e-6 y erate ${strain_rate} z erate ${strain_rate} units box
fix 2 all deform 1 x erate 5e-6 y erate 5e-6 z erate ${strain_rate} units box
fix 2 all deform 1 x erate 5e-6 y erate 5e-6 z erate 5e-6 units box
fix             def1 all print ${ts_save} "${p1} ${p2} ${p3} ${p4}" file ./tensile/${trial}/tensile${N20}${N100}_${usic}_${trial}.txt screen no
fix             def1 all print 1000 "${p1} ${p2} ${p3} ${p4}" file ./tensile/${trial}/tensile${N20}${N100}_${usic}_${trial}.txt screen no
fix             def1 all print 1000 "${p1} ${p2} ${p3} ${p4}" file ./tensile/9/tensile${N20}${N100}_${usic}_${trial}.txt screen no
fix             def1 all print 1000 "${p1} ${p2} ${p3} ${p4}" file ./tensile/9/tensile60${N100}_${usic}_${trial}.txt screen no
fix             def1 all print 1000 "${p1} ${p2} ${p3} ${p4}" file ./tensile/9/tensile6040_${usic}_${trial}.txt screen no
fix             def1 all print 1000 "${p1} ${p2} ${p3} ${p4}" file ./tensile/9/tensile6040_1_${trial}.txt screen no
fix             def1 all print 1000 "${p1} ${p2} ${p3} ${p4}" file ./tensile/9/tensile6040_1_9.txt screen no

timestep       		${ts}
timestep       		0.1
run				${steps_tensile}
run				6000000
Generated 0 of 1 mixed pair_coeff terms from geometric mixing rule
Unused restart file global fix info:
  fix style: npt, fix ID: 5
Neighbor list info ...
  update every 1 steps, delay 0 steps, check no
  max neighbors/atom: 2000, page size: 100000
  master list distance cutoff = 113.78
  ghost atom cutoff = 113.78
  binsize = 56.89, bins = 12 12 12
  1 neighbor lists, perpetual/occasional/extra = 1 0 0
  (1) pair table/pgn, perpetual
      attributes: half, newton on
      pair build: half/bin/atomonly/newton
      stencil: half/bin/3d
      bin: standard
Per MPI rank memory allocation (min/avg/max) = 3.852 | 3.853 | 3.853 Mbytes
   Step          Temp           v_p1           v_p2           v_p3           v_p4          Press            Lx             Ly             Lz           Volume        Density         E_pair         PotEng         KinEng         TotEng          Pxx            Pyy            Pzz            Pxy            Pxz            Pyz           S/CPU     
         0   304.4466       1.7888921e-16  0.019499637    0.028641373    0.011702644   -196.87032      635.51534      635.51534      635.51534      2.5667178e+08  1.9533436     -22013731      -22013731       906.58999     -22012825      -192.44646     -282.66838     -115.49611     -33.787299     -26.967688      25.238875      0            
      1000   368.92014      0.0005         0.027322182    0.036484745    0.019602498   -274.39568      635.8331       635.8331       635.8331       2.5705698e+08  1.9504165     -22012669      -22012669       1098.5812     -22011571      -269.64898     -360.07644     -193.46161     -34.003604     -27.610923      23.748837      12551.568    
      2000   474.16372      0.001          0.034462647    0.04336869     0.026861595   -344.41297      636.15086      636.15086      636.15086      2.5744256e+08  1.9474953     -22011482      -22011482       1411.9786     -22010070      -340.11988     -428.01569     -265.10333     -33.176869     -26.164645      22.120185      13190.09     
      3000   554.96921      0.0015         0.040726961    0.049350496    0.033449817   -406.37314      636.46862      636.46862      636.46862      2.5782854e+08  1.9445799     -22010127      -22010127       1652.6035     -22008475      -401.94386     -487.05153     -330.12403     -32.578008     -24.506672      20.065906      13378.452    
      4000   591.54556      0.002          0.046637843    0.055232664    0.039736307   -465.8502       636.78637      636.78637      636.78637      2.5821489e+08  1.9416703     -22008528      -22008528       1761.5217     -22006766      -460.27973     -545.10402     -392.16686     -32.057572     -23.554225      18.10892       15162.118    
      5000   592.7518       0.0025         0.052885541    0.061440809    0.045993234   -527.41043      637.10413      637.10413      637.10413      2.5860163e+08  1.9387665     -22006612      -22006612       1765.1136     -22004847      -521.93971     -606.37364     -453.91793     -30.711061     -22.049656      17.486049      15817.729    
      6000   575.35474      0.003          0.059439536    0.067708424    0.052512827   -591.03804      637.42189      637.42189      637.42189      2.5898876e+08  1.9358685     -22004332      -22004332       1713.3082     -22002619      -586.62261     -668.23019     -518.26131     -29.52806      -20.18048       18.20423       16073.459    
      7000   551.35575      0.0035         0.066175149    0.073914521    0.059337779   -656.0653       637.73965      637.73965      637.73965      2.5937628e+08  1.9329762     -22001665      -22001665       1641.8433     -22000023      -653.09794     -729.4796      -585.61835     -29.583405     -19.723618      18.749118      16153.724    
      8000   526.60669      0.004          0.07272148     0.080083575    0.066059292   -720.00772      638.0574       638.0574       638.0574       2.5976418e+08  1.9300898     -21998601      -21998601       1568.1448     -21997033      -717.70521     -790.36343     -651.95452     -30.697728     -20.228947      17.748719      16101.869    
      9000   504.12343      0.0045         0.078902643    0.086368607    0.07242747    -781.96799      638.37516      638.37516      638.37516      2.6015246e+08  1.927209      -21995132      -21995132       1501.1935     -21993631      -778.70854     -852.39188     -714.80355     -31.496217     -20.521063      15.345726      16074.862    
     10000   484.84119      0.005          0.085034875    0.092618553    0.078452853   -842.52416      638.69292      638.69292      638.69292      2.6054114e+08  1.924334      -21991268      -21991268       1443.7743     -21989824      -839.22897     -914.07405     -774.26946     -31.288375     -20.612666      13.673464      15974.209    
     11000   468.93786      0.0055         0.090903898    0.098181467    0.084200276   -899.03986      639.01068      639.01068      639.01068      2.609302e+08   1.9214647     -21987031      -21987031       1396.4169     -21985635      -897.15172     -968.97574     -830.99211     -30.033693     -20.57323       13.36178       16204.503    
     12000   455.90661      0.006          0.096534436    0.10324362     0.089872619   -952.87663      639.32844      639.32844      639.32844      2.6131965e+08  1.9186012     -21982448      -21982448       1357.612      -21981090      -952.72081     -1018.9353     -886.97379     -28.243395     -19.03178       13.365444      16009.768    
     13000   444.58133      0.0065         0.10218508     0.10848868     0.095675068   -1007.8093      639.64619      639.64619      639.64619      2.6170948e+08  1.9157433     -21977527      -21977527       1323.8873     -21976203      -1008.4883     -1070.7001     -944.23951     -27.206377     -16.121311      12.118358      16188.149    
     14000   434.29041      0.007          0.10765711     0.11390252     0.10140689    -1062.4773      639.96395      639.96395      639.96395      2.6209971e+08  1.912891      -21972271      -21972271       1293.2427     -21970978      -1062.493      -1124.1305     -1000.8082     -27.305568     -13.674543      10.622151      16149.861    
     15000   425.47596      0.0075         0.11275167     0.11908273     0.10685099    -1114.1883      640.28171      640.28171      640.28171      2.6249032e+08  1.9100445     -21966688      -21966688       1266.9947     -21965421      -1112.7724     -1175.2551     -1054.5373     -28.058335     -13.613846      9.8683783      16182.288    
     16000   418.68739      0.008          0.11770409     0.12395729     0.11195125    -1163.2951      640.59947      640.59947      640.59947      2.6288131e+08  1.9072036     -21960798      -21960798       1246.7795     -21959551      -1161.649      -1223.3633     -1104.873      -28.500133     -14.730893      8.8298028      16211.79     
     17000   413.27413      0.0085         0.12265642     0.1286921      0.11698613    -1211.7268      640.91722      640.91722      640.91722      2.632727e+08   1.9043683     -21954609      -21954609       1230.6598     -21953379      -1210.5247     -1270.0923     -1154.5633     -28.335768     -14.610778      7.4741385      16202.201    
     18000   408.25605      0.009          0.12766649     0.13346185     0.12205352    -1260.5703      641.23498      641.23498      641.23498      2.6366448e+08  1.9015386     -21948120      -21948120       1215.7168     -21946904      -1259.9703     -1317.1661     -1204.5745     -27.613251     -13.534781      6.5376075      16066.771    
     19000   403.72842      0.0095         0.13261856     0.13810746     0.12689304    -1308.065       641.55274      641.55274      641.55274      2.6405664e+08  1.8987145     -21941336      -21941336       1202.2343     -21940134      -1308.8434     -1363.0147     -1252.337      -26.796136     -12.191748      5.1211596      16216.717    
     20000   400.09891      0.01           0.13742777     0.14271622     0.13166623    -1354.7503      641.8705       641.8705       641.8705       2.6444919e+08  1.8958961     -21934263      -21934263       1191.4262     -21933071      -1356.3067     -1408.4995     -1299.4446     -26.05911      -10.775649      3.8979687      16242.953    
     21000   397.13629      0.0105         0.14210238     0.14733445     0.13674479    -1402.0285      642.18825      642.18825      642.18825      2.6484213e+08  1.8930832     -21926904      -21926904       1182.6041     -21925722      -1402.4414     -1454.078      -1349.5662     -24.738098     -10.401211      4.2742847      16260.596    
     22000   394.92012      0.011          0.14650478     0.1517437      0.14162431    -1447.069       642.50601      642.50601      642.50601      2.6523546e+08  1.8902758     -21919277      -21919277       1176.0047     -21918101      -1445.8898     -1497.5939     -1397.7232     -23.752983     -11.800558      5.5763434      16246.154    
     23000   393.81637      0.0115         0.15078048     0.15579222     0.14593995    -1488.6508      642.82377      642.82377      642.82377      2.6562918e+08  1.887474      -21911394      -21911394       1172.7179     -21910222      -1488.0876     -1537.5496     -1440.3153     -24.714931     -12.112578      6.3089128      16239.981    
     24000   393.31282      0.012          0.15506499     0.15972712     0.15007212    -1529.2844      643.14153      643.14153      643.14153      2.6602329e+08  1.8846778     -21903258      -21903258       1171.2184     -21902087      -1530.3725     -1576.3841     -1481.0967     -25.266993     -10.639         5.7787491      16249.985    
     25000   392.6741       0.0125         0.15906933     0.16370882     0.15426463    -1569.3487      643.45929      643.45929      643.45929      2.6641779e+08  1.881887      -21894878      -21894878       1169.3164     -21893708      -1569.8922     -1615.6804     -1522.4735     -24.27006      -9.3915056      3.3968486      16181.841    
     26000   391.95435      0.013          0.16281556     0.16766955     0.15829667    -1607.967       643.77704      643.77704      643.77704      2.6681268e+08  1.8791018     -21886265      -21886265       1167.1731     -21885098      -1606.8647     -1654.7698     -1562.2666     -22.405246     -8.6834164      0.63280213     16085.593    
     27000   391.61157      0.0135         0.16674193     0.17141447     0.1621134     -1645.7597      644.0948       644.0948       644.0948       2.6720795e+08  1.8763221     -21877422      -21877422       1166.1524     -21876256      -1645.6149     -1691.7292     -1599.9349     -20.559372     -8.4353897     -0.14247355     16233.948    
     28000   391.83091      0.014          0.17080463     0.17489938     0.1659836     -1683.3213      644.41256      644.41256      644.41256      2.6760362e+08  1.8735478     -21868359      -21868359       1166.8055     -21867193      -1685.7106     -1726.1226     -1638.1307     -19.182479     -7.975426       1.113837       16178.603    
     29000   392.64235      0.0145         0.17466071     0.1784015      0.1699513     -1720.5807      644.73032      644.73032      644.73032      2.6799968e+08  1.870779      -21859079      -21859079       1169.2219     -21857910      -1723.7671     -1760.686      -1677.2889     -19.196668     -8.0637823      2.3185364      16181.818    
     30000   393.74716      0.015          0.1784653      0.18197239     0.17389704    -1757.8246      645.04807      645.04807      645.04807      2.6839613e+08  1.8680157     -21849574      -21849574       1172.5118     -21848402      -1761.3156     -1795.9279     -1716.2304     -21.000379     -8.8132469      1.9808227      16009.211    
     31000   395.01062      0.0155         0.18218722     0.18545202     0.17749951    -1793.3671      645.36583      645.36583      645.36583      2.6879297e+08  1.8652578     -21839851      -21839851       1176.2742     -21838675      -1798.0481     -1830.2692     -1751.7839     -22.875604     -8.3072485      1.3093778      16187.428    
     32000   396.66297      0.016          0.18550268     0.18868208     0.18086199    -1825.9619      645.68359      645.68359      645.68359      2.691902e+08   1.8625053     -21829925      -21829925       1181.1946     -21828744      -1830.7691     -1862.1473     -1784.9691     -22.995133     -5.9466115      0.93179332     16234.444    
     33000   398.21698      0.0165         0.18843193     0.19162943     0.18426961    -1856.5046      646.00135      646.00135      646.00135      2.6958782e+08  1.8597583     -21819813      -21819813       1185.8222     -21818627      -1859.6785     -1891.2354     -1818.5997     -21.700041     -3.3719025     -0.96482759     16266.894    
     34000   399.54122      0.017          0.19121584     0.19454807     0.18750154    -1885.8967      646.3191       646.3191       646.3191       2.6998584e+08  1.8570166     -21809521      -21809521       1189.7655     -21808332      -1887.1536     -1920.0402     -1850.4963     -19.739492     -2.3593846     -3.5109036      16274.985    
     35000   400.79786      0.0175         0.19427693     0.19768517     0.19061781    -1916.5389      646.63686      646.63686      646.63686      2.7038424e+08  1.8542803     -21799052      -21799052       1193.5076     -21797859      -1917.3642     -1951.0009     -1881.2515     -18.238982     -3.1065066     -3.15032        16258.828    
     36000   401.99121      0.018          0.19766714     0.20065717     0.1936531     -1947.4543      646.95462      646.95462      646.95462      2.7078304e+08  1.8515494     -21788400      -21788400       1197.0612     -21787202      -1950.823      -1980.3323     -1911.2075     -17.850299     -4.5379396     -1.4753234      16189.012    
     37000   403.47737      0.0185         0.20104975     0.20332104     0.19647881    -1976.6415      647.27238      647.27238      647.27238      2.7118223e+08  1.8488239     -21777562      -21777562       1201.4867     -21776360      -1984.2068     -2006.6227     -1939.095      -18.32209      -5.2870031     -1.0913132      16211.336    
     38000   405.23216      0.019          0.20395282     0.20606413     0.19947534    -2005.0737      647.59014      647.59014      647.59014      2.7158181e+08  1.8461037     -21766555      -21766555       1206.7122     -21765349      -2012.8578     -2033.6948     -1968.6685     -19.317188     -4.3620743     -1.7779969      16249.858    
     39000   407.19092      0.0195         0.20624899     0.20896473     0.20259428    -2032.4303      647.90789      647.90789      647.90789      2.7198178e+08  1.8433888     -21755391      -21755391       1212.545      -21754178      -2035.5192     -2062.3215     -1999.4501     -19.709772     -3.5286796     -1.7363329      16011.444    
     40000   409.5177       0.02           0.20844241     0.21170862     0.20545516    -2058.0843      648.22565      648.22565      648.22565      2.7238215e+08  1.8406793     -21744067      -21744067       1219.4738     -21742847      -2057.1666     -2089.4016     -2027.6848     -18.7281       -3.8653915     -1.254034       16226.405    
     41000   412.04122      0.0205         0.21087945     0.2141185      0.20822442    -2083.1396      648.54341      648.54341      648.54341      2.727829e+08   1.8379751     -21732584      -21732584       1226.9884     -21731357      -2081.2183     -2113.1853     -2055.0153     -18.130679     -2.8241299     -1.702562       16239.601    
     42000   414.62186      0.021          0.21355807     0.21625334     0.21077087    -2107.3519      648.86117      648.86117      648.86117      2.7318406e+08  1.8352761     -21720956      -21720956       1234.6731     -21719722      -2107.6543     -2134.2546     -2080.1468     -17.383668     -0.18960118    -2.3095345      16188.773    
     43000   416.85863      0.0215         0.21639672     0.2183403      0.21318516    -2131.4983      649.17892      649.17892      649.17892      2.735856e+08   1.8325825     -21709192      -21709192       1241.3338     -21707951      -2135.6696     -2154.8513     -2103.9739     -16.413613      1.4587721     -3.5514487      16090.428    
     44000   418.117        0.022          0.21921205     0.22067613     0.21566812    -2156.6126      649.49668      649.49668      649.49668      2.7398754e+08  1.8298941     -21697276      -21697276       1245.081      -21696031      -2163.4548     -2177.9041     -2128.4788     -15.736998      1.178443      -4.9278211      16121.388    
     45000   419.13547      0.0225         0.22166073     0.22300292     0.21806437    -2180.2057      649.81444      649.81444      649.81444      2.7438987e+08  1.827211      -21685208      -21685208       1248.1138     -21683960      -2187.6213     -2200.8677     -2152.128      -16.659579      0.48357085    -3.9707006      16196.641    
     46000   420.40334      0.023          0.22357398     0.224972       0.22045794    -2200.8518      650.1322       650.1322       650.1322       2.7479259e+08  1.8245331     -21673010      -21673010       1251.8894     -21671758      -2206.5037     -2220.301      -2175.7507     -18.037721      0.28348668    -2.5952479      16201.856    
     47000   422.04566      0.0235         0.22508542     0.22673134     0.22253786    -2218.4542      650.44995      650.44995      650.44995      2.7519571e+08  1.8218604     -21660690      -21660690       1256.7799     -21659434      -2221.4204     -2237.6643     -2196.2779     -18.140327      0.90040092    -3.6360765      16250.875    
     48000   424.20112      0.024          0.22678505     0.22861107     0.22429188    -2235.9996      650.76771      650.76771      650.76771      2.7559922e+08  1.819193      -21648255      -21648255       1263.1985     -21646992      -2238.1944     -2256.2158     -2213.5887     -18.124835      1.2077568     -5.3511549      16209.695    
     49000   426.19519      0.0245         0.22885879     0.23063771     0.22626245    -2255.9716      651.08547      651.08547      651.08547      2.7600313e+08  1.8165308     -21635704      -21635704       1269.1365     -21634435      -2258.6606     -2276.2173     -2233.0368     -18.360183      0.39548989    -5.0273293      16218.725    
     50000   427.76332      0.025          0.23103185     0.2327571      0.22843963    -2277.255       651.40323      651.40323      651.40323      2.7640743e+08  1.8138737     -21623028      -21623028       1273.8061     -21621755      -2280.1071     -2297.134      -2254.5238     -17.466815      0.95959418    -3.6871843      15334.028    
     51000   429.57805      0.0255         0.23297524     0.23468477     0.23056539    -2296.983       651.72098      651.72098      651.72098      2.7681213e+08  1.8112219     -21610238      -21610238       1279.2101     -21608959      -2299.2868     -2316.1586     -2275.5035     -15.624586      3.2254158     -3.1607295      16263.862    
     52000   431.5727       0.026          0.2346039      0.23618585     0.23255538    -2313.8256      652.03874      652.03874      652.03874      2.7721722e+08  1.8085752     -21597340      -21597340       1285.1498     -21596055      -2315.3605     -2330.9731     -2295.1432     -14.910935      3.8281038     -4.2341255      16221.597    
     53000   433.01045      0.0265         0.2360496      0.23736961     0.23428189    -2328.1556      652.3565       652.3565       652.3565       2.7762271e+08  1.8059336     -21584333      -21584333       1289.4312     -21583043      -2329.6284     -2342.6559     -2312.1825     -14.979877      2.9654433     -6.048588       16176.391    
     54000   434.13449      0.027          0.23768354     0.23866418     0.23572531    -2342.5381      652.67426      652.67426      652.67426      2.7802859e+08  1.8032972     -21571224      -21571224       1292.7784     -21569931      -2345.7542     -2355.4323     -2326.4279     -14.358115      3.2073891     -7.0178111      15931.245    
     55000   435.47558      0.0275         0.23947163     0.24017682     0.23693072    -2357.3622      652.99202      652.99202      652.99202      2.7843486e+08  1.8006659     -21558030      -21558030       1296.7719     -21556733      -2363.4012     -2370.3609     -2338.3244     -14.062628      4.111513      -6.4122043      16263.502    
     56000   436.98829      0.028          0.2409437      0.24177966     0.23821979    -2371.7186      653.30977      653.30977      653.30977      2.7884154e+08  1.7980398     -21544746      -21544746       1301.2765     -21543444      -2377.9294     -2386.1797     -2351.0465     -14.841726      4.4395784     -5.6990203      16199.275    
     57000   438.32345      0.0285         0.24210198     0.24332654     0.23978068    -2385.7528      653.62753      653.62753      653.62753      2.792486e+08   1.7954187     -21531375      -21531375       1305.2524     -21530069      -2389.3608     -2401.4462     -2366.4513     -15.780394      4.7491271     -5.1215516      16211.383    
     58000   439.5428       0.029          0.24323355     0.24462268     0.24143045    -2399.1666      653.94529      653.94529      653.94529      2.7965607e+08  1.7928028     -21517919      -21517919       1308.8834     -21516610      -2400.5285     -2414.2381     -2382.7333     -16.087088      5.4559172     -5.4928984      16237.434    
     59000   440.95536      0.0295         0.24434189     0.24553753     0.24286527    -2410.5426      654.26305      654.26305      654.26305      2.8006393e+08  1.7901919     -21504375      -21504375       1313.0898     -21503062      -2411.467      -2423.267      -2396.8939     -16.008569      4.919693      -6.2130511      16136.161    
     60000   442.60415      0.03           0.24553932     0.24636368     0.24397679    -2420.8563      654.5808       654.5808       654.5808       2.8047218e+08  1.7875861     -21490756      -21490756       1317.9996     -21489438      -2423.2847     -2431.4204     -2407.8637     -16.510378      3.5358392     -6.3647777      16223.479    
     61000   443.79963      0.0305         0.24694451     0.24752497     0.24522892    -2433.4185      654.89856      654.89856      654.89856      2.8088084e+08  1.7849853     -21477058      -21477058       1321.5595     -21475737      -2437.1528     -2442.8815     -2420.2212     -15.144391      3.0410198     -6.2637931      16228.817    
     62000   443.98691      0.031          0.24826135     0.24885475     0.24658758    -2446.5949      655.21632      655.21632      655.21632      2.8128989e+08  1.7823896     -21463276      -21463276       1322.1172     -21461954      -2450.149      -2456.0054     -2433.6302     -11.83667       3.2193868     -6.2908435      16188.218    
     63000   444.59881      0.0315         0.24904566     0.24978951     0.24744213    -2455.0614      655.53408      655.53408      655.53408      2.8169933e+08  1.779799      -21449427      -21449427       1323.9394     -21448103      -2457.8896     -2465.2308     -2442.0639     -9.6344459      3.7864161     -6.7165067      16267.952    
     64000   446.16966      0.032          0.24966592     0.25038269     0.24820843    -2461.5743      655.85183      655.85183      655.85183      2.8210918e+08  1.7772133     -21435526      -21435526       1328.6171     -21434198      -2464.011      -2471.085      -2449.6267     -10.445418      5.1618337     -6.9729145      16217.309    
     65000   447.57035      0.0325         0.25057189     0.25105201     0.2491093     -2469.7202      656.16959      656.16959      656.16959      2.8251942e+08  1.7746326     -21421576      -21421576       1332.7881     -21420243      -2472.9523     -2477.6907     -2458.5176     -14.266804      5.8149695     -7.2854828      16153.35     
     66000   447.91785      0.033          0.25164853     0.25193698     0.24998835    -2479.0653      656.48735      656.48735      656.48735      2.8293006e+08  1.772057      -21407560      -21407560       1333.8229     -21406226      -2483.5779     -2486.4246     -2467.1932     -18.512068      4.7798059     -8.5158011      16141.68     
     67000   447.56118      0.0335         0.25263477     0.25285938     0.25078836    -2487.976       656.80511      656.80511      656.80511      2.8334109e+08  1.7694863     -21393468      -21393468       1332.7608     -21392135      -2493.3113     -2495.5281     -2475.0887     -18.670765      4.2666453     -8.8256941      16260.711    
     68000   447.77229      0.034          0.25339677     0.25357866     0.25131471    -2494.5806      657.12287      657.12287      657.12287      2.8375253e+08  1.7669206     -21379320      -21379320       1333.3894     -21377987      -2500.8317     -2502.6268     -2480.2833     -14.177825      4.6582686     -6.4269842      16203.594    
     69000   448.73813      0.0345         0.25397452     0.25405313     0.25178897    -2499.6023      657.44062      657.44062      657.44062      2.8416436e+08  1.7643598     -21365135      -21365135       1336.2655     -21363799      -2506.5336     -2507.3095     -2484.9639     -9.9486489      4.7737978     -5.5537759      16217.791    
     70000   449.738        0.035          0.25433164     0.25430153     0.25242852    -2503.6983      657.75838      657.75838      657.75838      2.8457659e+08  1.761804      -21350916      -21350916       1339.243      -21349576      -2510.0582     -2509.761      -2491.2758     -9.436041       4.8071003     -7.178659       16265.73     
     71000   450.45983      0.0355         0.25463599     0.25445982     0.25330096    -2508.0903      658.07614      658.07614      658.07614      2.8498922e+08  1.7592531     -21336662      -21336662       1341.3925     -21335321      -2513.0618     -2511.3231     -2499.8861     -11.993164      4.832368      -7.6511322      16271.784    
     72000   450.92885      0.036          0.25524152     0.25454373     0.25402905    -2512.7537      658.3939       658.3939       658.3939       2.8540225e+08  1.7567072     -21322373      -21322373       1342.7891     -21321031      -2519.0379     -2512.1513     -2507.0718     -14.196957      4.4402958     -6.7175969      16192.039    
     73000   451.37692      0.0365         0.25580283     0.25478535     0.25431281    -2516.3286      658.71165      658.71165      658.71165      2.8581567e+08  1.7541661     -21308043      -21308043       1344.1234     -21306699      -2524.5776     -2514.5359     -2509.8723     -12.891564      3.5657112     -6.1779066      16289.299    
     74000   451.82384      0.037          0.25599514     0.25510644     0.25433638    -2518.0951      659.02941      659.02941      659.02941      2.862295e+08   1.75163       -21293684      -21293684       1345.4542     -21292338      -2526.4756     -2517.7048     -2510.1049     -10.157463      1.492229      -6.6844282      16283.833    
     75000   452.24204      0.0375         0.25619695     0.25540868     0.25455386    -2520.4688      659.34717      659.34717      659.34717      2.8664372e+08  1.7490987     -21279300      -21279300       1346.6996     -21277954      -2528.4673     -2520.6876     -2512.2513     -9.3487893      0.27911191    -7.4444399      16120.926    
     76000   452.63514      0.038          0.25659833     0.25588927     0.25488449    -2524.4579      659.66493      659.66493      659.66493      2.8705835e+08  1.7465724     -21264890      -21264890       1347.8702     -21263542      -2532.4286     -2525.4307     -2515.5144     -10.418866      0.61243385    -8.5592277      16218.589    
     77000   452.87029      0.0385         0.25700907     0.25639054     0.25519033    -2528.4643      659.98268      659.98268      659.98268      2.8747337e+08  1.7440508     -21250448      -21250448       1348.5704     -21249099      -2536.4823     -2530.3779     -2518.5327     -11.152475      1.4419651     -9.1730765      16146.002    
     78000   452.5884       0.039          0.25725363     0.256501       0.25521909    -2529.7268      660.30044      660.30044      660.30044      2.878888e+08   1.7415342     -21235976      -21235976       1347.731      -21234628      -2538.8959     -2531.4681     -2518.8165     -12.12654       2.6626988     -8.5485109      16224.841    
     79000   452.26062      0.0395         0.25706183     0.2561623      0.2549446     -2527.0786      660.6182       660.6182       660.6182       2.8830462e+08  1.7390223     -21221491      -21221491       1346.7549     -21220145      -2537.003      -2528.1253     -2516.1076     -13.315265      4.0704171     -8.0524276      16155.508    
     80000   452.60927      0.04           0.25661135     0.25552898     0.25467711    -2522.6333      660.93596      660.93596      660.93596      2.8872084e+08  1.7365153     -21207017      -21207017       1347.7931     -21205670      -2532.5571     -2521.875      -2513.4677     -13.182346      4.4645264     -7.7514381      16221.124    
     81000   453.00063      0.0405         0.2565362      0.25519495     0.254804      -2521.7046      661.25372      661.25372      661.25372      2.8913747e+08  1.7340132     -21192546      -21192546       1348.9585     -21191197      -2531.8154     -2518.5784     -2514.7199     -11.362769      2.6357245     -7.0588337      16198.518    
     82000   452.51202      0.041          0.25686699     0.25532592     0.25506426    -2524.0798      661.57147      661.57147      661.57147      2.8955449e+08  1.7315158     -21178050      -21178050       1347.5035     -21176702      -2535.0801     -2519.8709     -2517.2885     -10.296758      0.21030189    -5.612153       16215.341    
     83000   451.54331      0.0415         0.25699238     0.25528825     0.25511852    -2524.5469      661.88923      661.88923      661.88923      2.8997192e+08  1.7290232     -21163531      -21163531       1344.6189     -21162186      -2536.3176     -2519.4991     -2517.824      -9.3094596     -0.90615841    -4.7714599      16244.714    
     84000   450.96811      0.042          0.25643889     0.25471375     0.25490264    -2520.1259      662.20699      662.20699      662.20699      2.9038975e+08  1.7265354     -21149016      -21149016       1342.906      -21147673      -2530.8551     -2513.8292     -2515.6934     -8.4229671      0.022763566   -5.3155533      16286.655    
     85000   450.99552      0.0425         0.25560663     0.25422688     0.25459657    -2514.7794      662.52475      662.52475      662.52475      2.9080797e+08  1.7240524     -21134523      -21134523       1342.9876     -21133180      -2522.6413     -2509.0242     -2512.6728     -8.9100647      1.5586795     -8.0894562      16246.931    
     86000   451.26737      0.043          0.25511645     0.25393312     0.25418876    -2510.8589      662.8425       662.8425       662.8425       2.912266e+08   1.7215741     -21120044      -21120044       1343.7972     -21118700      -2517.8036     -2506.1251     -2508.648      -10.34211       2.0439842     -11.497363      16228.669    
     87000   451.10595      0.0435         0.25496555     0.25370466     0.25371026    -2508.0367      663.16026      663.16026      663.16026      2.9164564e+08  1.7191006     -21105570      -21105570       1343.3165     -21104227      -2516.3144     -2503.8703     -2503.9256     -11.960479      0.92763307    -12.425496      16294.686    
     88000   450.47805      0.044          0.25486294     0.25326116     0.25314793    -2504.3903      663.47802      663.47802      663.47802      2.9206507e+08  1.7166318     -21091098      -21091098       1341.4467     -21089757      -2515.3016     -2499.4933     -2498.3758     -12.892874     -0.85088932    -9.4826571      16085.961    
     89000   449.80019      0.0445         0.25463052     0.25259448     0.25264285    -2499.7709      663.79578      663.79578      663.79578      2.924849e+08   1.7141677     -21076632      -21076632       1339.4282     -21075292      -2513.0079     -2492.9137     -2493.3911     -12.001875     -1.7212456     -7.2078843      16203.789    
     90000   449.16353      0.045          0.25415012     0.25191613     0.25219385    -2494.4818      664.11353      664.11353      664.11353      2.9290514e+08  1.7117084     -21062179      -21062179       1337.5323     -21060842      -2508.2667     -2486.2189     -2488.9598     -9.677906      -1.6765812     -8.0094734      16278.899    
     91000   448.54039      0.0455         0.25341625     0.25150387     0.25195783    -2489.9349      664.43129      664.43129      664.43129      2.9332578e+08  1.7092537     -21047743      -21047743       1335.6767     -21046408      -2501.024      -2482.1502     -2486.6305     -7.9792564     -1.9043862     -8.6639908      16126.286    
     92000   447.71577      0.046          0.25247318     0.25105123     0.25174027    -2484.6276      664.74905      664.74905      664.74905      2.9374682e+08  1.7068038     -21033326      -21033326       1333.2211     -21031993      -2491.7166     -2477.683      -2484.4833     -8.7948431     -2.6947593     -7.8060071      16236.792    
     93000   446.85062      0.0465         0.25132671     0.25010127     0.25110778    -2475.6502      665.06681      665.06681      665.06681      2.9416827e+08  1.7043585     -21018938      -21018938       1330.6449     -21017608      -2480.4018     -2468.3076     -2478.2411     -11.396707     -2.2867327     -6.9888473      16274.225    
     94000   446.13037      0.047          0.25032844     0.2488391      0.24995186    -2464.4112      665.38456      665.38456      665.38456      2.9459011e+08  1.7019179     -21004602      -21004602       1328.5001     -21003274      -2470.5496     -2455.851      -2466.8331     -13.029266     -0.99414366    -7.0922199      16246.618    
     95000   445.18685      0.0475         0.24976202     0.24792152     0.24876075    -2455.6108      665.70232      665.70232      665.70232      2.9501236e+08  1.6994819     -20990311      -20990311       1325.6904     -20988985      -2464.9595     -2446.7952     -2455.0777     -12.308511      0.0557507     -8.9957654      16240.94     
     96000   443.86507      0.048          0.24942358     0.24740083     0.24792102    -2450.022       666.02008      666.02008      666.02008      2.9543502e+08  1.6970506     -20976035      -20976035       1321.7544     -20974714      -2461.6194     -2441.6563     -2446.7902     -9.7658045     -0.24396698    -10.185916      16276.051    
     97000   443.00681      0.0485         0.24882168     0.24693087     0.24739673    -2444.771       666.33784      666.33784      666.33784      2.9585807e+08  1.6946239     -20961772      -20961772       1319.1986     -20960453      -2455.679      -2437.0182     -2441.6159     -7.9733329     -1.9492609     -9.5082859      16231.596    
     98000   442.63518      0.049          0.2479755      0.24637861     0.24696236    -2438.7416      666.6556       666.6556       666.6556       2.9628153e+08  1.6922019     -20947531      -20947531       1318.092      -20946213      -2447.3279     -2431.5679     -2437.329      -9.420429      -3.6618353     -8.4717079      16198.611    
     99000   441.9695       0.0495         0.24698899     0.24547206     0.24620921    -2430.0362      666.97335      666.97335      666.97335      2.967054e+08   1.6897845     -20933329      -20933329       1316.1097     -20932013      -2437.5918     -2422.6209     -2429.896      -13.090777     -5.2682738     -7.9988172      16097.991    
    100000   440.88173      0.05           0.24568925     0.24427004     0.24529582    -2418.8013      667.29111      667.29111      667.29111      2.9712967e+08  1.6873716     -20919176      -20919176       1312.8705     -20917863      -2424.7644     -2410.7579     -2420.8815     -15.088134     -6.5356836     -8.0026001      15746.06     
    101000   439.87197      0.0505         0.24437516     0.24305653     0.24446732    -2407.7605      667.60887      667.60887      667.60887      2.9755434e+08  1.6849634     -20905071      -20905071       1309.8636     -20903761      -2411.7953     -2398.7814     -2412.7049     -13.198349     -5.981034      -8.3152917      16169.734    
    102000   439.05685      0.051          0.2434582      0.24193846     0.24344025    -2397.687       667.92663      667.92663      667.92663      2.9797942e+08  1.6825597     -20891012      -20891012       1307.4363     -20889704      -2402.7456     -2387.7469     -2402.5685     -9.9230774     -4.1907833     -9.0248032      16259.879    
    103000   438.0346       0.0515         0.24281978     0.24106853     0.24240467    -2389.3181      668.24438      668.24438      668.24438      2.984049e+08   1.6801607     -20876986      -20876986       1304.3922     -20875682      -2396.4449     -2379.1615     -2392.3481     -8.0610357     -3.0050887     -10.056283      16209.869    
    104000   436.75103      0.052          0.24192921     0.24032003     0.24141034    -2380.6549      668.56214      668.56214      668.56214      2.9883079e+08  1.6777661     -20862996      -20862996       1300.57       -20861696      -2387.6556     -2371.7742     -2382.5349     -8.0912741     -2.5817852     -11.25137       16242.926    
    105000   435.44909      0.0525         0.24070759     0.23935477     0.24038114    -2370.0749      668.8799       668.8799       668.8799       2.9925708e+08  1.6753762     -20849053      -20849053       1296.693      -20847756      -2375.5992     -2362.2479     -2372.3774     -8.8675365     -3.74592       -12.469486      16217.653    
    106000   434.38704      0.053          0.23921743     0.23796995     0.23918061    -2356.6675      669.19766      669.19766      669.19766      2.9968378e+08  1.6729907     -20835176      -20835176       1293.5304     -20833882      -2360.8925     -2348.5808     -2360.5291     -9.7328401     -5.5781994     -12.727516      16281.093    
    107000   433.46755      0.0535         0.23789415     0.23657507     0.23797117    -2343.7467      669.51541      669.51541      669.51541      3.0011088e+08  1.6706098     -20821368      -20821368       1290.7923     -20820078      -2347.8327     -2334.8145     -2348.5929     -10.235135     -5.7234218     -11.119363      16130.356    
    108000   431.72675      0.054          0.23692568     0.2352471      0.23705497    -2333.1779      669.83317      669.83317      669.83317      3.0053839e+08  1.6682334     -20807607      -20807607       1285.6085     -20806321      -2338.2746     -2321.7084     -2339.5507     -9.6348178     -5.3054356     -9.7672534      16269.826    
    109000   429.67121      0.0545         0.23568427     0.23386663     0.23616894    -2321.6378      670.15093      670.15093      670.15093      3.009663e+08   1.6658615     -20793876      -20793876       1279.4875     -20792597      -2326.0229     -2308.0842     -2330.8062     -8.9643789     -5.5275556     -8.8900574      16209.394    
    110000   428.51096      0.055          0.23412064     0.23263369     0.23494995    -2308.4276      670.46869      670.46869      670.46869      3.0139462e+08  1.6634941     -20780210      -20780210       1276.0325     -20778934      -2310.5911     -2295.916      -2318.7757     -8.5714682     -5.5631631     -8.4426575      16272.515    
    111000   427.63214      0.0555         0.23279548     0.23163999     0.23357547    -2296.2775      670.78645      670.78645      670.78645      3.0182335e+08  1.6611312     -20766620      -20766620       1273.4155     -20765347      -2297.5128     -2286.1089     -2305.2107     -8.6087862     -4.265877      -9.3616207      15943.065    
    112000   426.16861      0.056          0.23176976     0.23056657     0.23234646    -2285.3287      671.1042       671.1042       671.1042       3.0225248e+08  1.6587727     -20753090      -20753090       1269.0573     -20751821      -2287.3897     -2275.5151     -2293.0813     -7.9648712     -2.6261662     -11.220432      16236.962    
    113000   424.82788      0.0565         0.23050335     0.22915611     0.23101698    -2272.1488      671.42196      671.42196      671.42196      3.0268202e+08  1.6564188     -20739613      -20739613       1265.0649     -20738348      -2274.8912     -2261.595      -2279.9603     -7.0101931     -2.8535195     -13.04136       16254.023    
    114000   424.03566      0.057          0.22907854     0.22770793     0.2295342     -2257.8195      671.73972      671.73972      671.73972      3.0311197e+08  1.6540692     -20726195      -20726195       1262.7058     -20724932      -2260.8294     -2247.3026     -2265.3265     -7.4490789     -4.3263455     -13.73034       16221.092    
    115000   423.04064      0.0575         0.2276088      0.22635197     0.22829445    -2244.4452      672.05748      672.05748      672.05748      3.0354232e+08  1.6517241     -20712849      -20712849       1259.7428     -20711589      -2246.3242     -2233.9202     -2253.091      -9.6748123     -5.5811935     -12.556684      16277.864    
    116000   421.54421      0.058          0.22621454     0.22496074     0.22720345    -2231.6925      672.37523      672.37523      672.37523      3.0397308e+08  1.6493835     -20699569      -20699569       1255.2867     -20698314      -2232.5639     -2220.1899     -2242.3237     -11.301311     -5.9390492     -10.273833      16145.782    
    117000   419.94655      0.0585         0.22506142     0.2235566      0.22606793    -2219.5442      672.69299      672.69299      672.69299      3.0440425e+08  1.6470472     -20686356      -20686356       1250.5291     -20685106      -2221.1835     -2206.3321     -2231.117      -10.088652     -5.3018216     -8.6252165      16253.642    
    118000   418.52826      0.059          0.22386349     0.22220273     0.22468271    -2206.5924      673.01075      673.01075      673.01075      3.0483582e+08  1.6447154     -20673203      -20673203       1246.3057     -20671956      -2209.3609     -2192.9705     -2217.446      -7.857992      -5.3463387     -9.5447141      16237.359    
    119000   417.0769       0.0595         0.22239676     0.22100421     0.22303277    -2192.3966      673.32851      673.32851      673.32851      3.0526781e+08  1.642388      -20660105      -20660105       1241.9838     -20658863      -2194.8854     -2181.142      -2201.1623     -6.7506088     -5.3750563     -10.639398      16215.165    
    120000   415.54279      0.06           0.2206058      0.21968597     0.22142358    -2176.8743      673.64626      673.64626      673.64626      3.057002e+08   1.640065      -20647083      -20647083       1237.4155     -20645845      -2177.21       -2168.1319     -2185.2808     -6.7895835     -4.7287075     -10.985261      16294.118    
    121000   413.92375      0.0605         0.21885559     0.21807995     0.2200584     -2161.342       673.96402      673.96402      673.96402      3.0613299e+08  1.6377463     -20634145      -20634145       1232.5943     -20632912      -2159.9368     -2152.2818     -2171.8076     -6.7859388     -4.0780164     -11.855825      16241.476    
    122000   412.43028      0.061          0.21732154     0.21636643     0.21882979    -2146.6166      674.28178      674.28178      674.28178      3.065662e+08   1.635432      -20621287      -20621287       1228.147      -20620059      -2144.7969     -2135.3707     -2159.6822     -7.0704537     -3.8736761     -12.65662       16294.22     
    123000   411.07869      0.0615         0.21587714     0.21487693     0.21745147    -2132.4304      674.59954      674.59954      674.59954      3.0699982e+08  1.6331221     -20608509      -20608509       1224.1221     -20607285      -2130.5417     -2120.6704     -2146.0792     -7.6868984     -3.6444728     -11.684861      16246.577    
    124000   409.37948      0.062          0.21453203     0.21358022     0.21592023    -2118.7021      674.91729      674.91729      674.91729      3.0743384e+08  1.6308165     -20595792      -20595792       1219.0622     -20594573      -2117.2666     -2107.8729     -2130.967      -8.6602801     -3.45037       -10.348098      16137.443    
    125000   407.33802      0.0625         0.21334692     0.21227177     0.21441879    -2105.5596      675.23505      675.23505      675.23505      3.0786827e+08  1.6285152     -20583131      -20583131       1212.9831     -20581918      -2105.5704     -2094.9595     -2116.1489     -9.6106548     -4.1932252     -10.134002      16249.605    
    126000   405.6742       0.063          0.21207906     0.21090656     0.21307601    -2092.4801      675.55281      675.55281      675.55281      3.0830312e+08  1.6262183     -20570542      -20570542       1208.0285     -20569334      -2093.0576     -2081.4859     -2102.8967     -9.4176287     -5.1482233     -10.485746      16288.851    
    127000   404.61907      0.0635         0.21064994     0.20948452     0.2117851     -2078.8537      675.87057      675.87057      675.87057      3.0873837e+08  1.6239257     -20558033      -20558033       1204.8865     -20556828      -2078.9533     -2067.4515     -2090.1564     -8.5933459     -5.8367354     -10.487642      16225.666    
    128000   403.55445      0.064          0.20907538     0.2081206      0.21040825    -2064.6574      676.18833      676.18833      676.18833      3.0917403e+08  1.6216374     -20545597      -20545597       1201.7162     -20544395      -2063.4136     -2053.9906     -2076.568      -7.3247127     -6.5715915     -9.6981618      16203.368    
    129000   402.06347      0.0645         0.20747417     0.20684886     0.20900818    -2050.6003      676.50608      676.50608      676.50608      3.096101e+08   1.6193534     -20533225      -20533225       1197.2764     -20532027      -2047.6109     -2041.4396     -2062.7504     -6.8166519     -6.5846158     -8.6132949      16271.538    
    130000   400.32493      0.065          0.20591513     0.20535408     0.20771522    -2036.3005      676.82384      676.82384      676.82384      3.1004658e+08  1.6170737     -20520915      -20520915       1192.0993     -20519723      -2032.2243     -2026.6872     -2049.9899     -7.5456466     -5.5689653     -8.2887515      16175.88     
    131000   398.59412      0.0655         0.2044657      0.20351879     0.20633159    -2020.9428      677.1416       677.1416       677.1416       3.1048347e+08  1.6147983     -20508677      -20508677       1186.9452     -20507490      -2017.9195     -2008.5743     -2036.3344     -8.9617166     -3.6833222     -8.0983432      16221.951    
    132000   397.03507      0.066          0.2031357      0.2017753      0.20471242    -2005.5051      677.45936      677.45936      677.45936      3.1092077e+08  1.6125271     -20496527      -20496527       1182.3026     -20495345      -2004.7935     -1991.3674     -2020.3545     -10.304984     -2.2640833     -7.598013       16153.514    
    133000   395.50705      0.0665         0.20182389     0.20044796     0.20317781    -1991.7745      677.77711      677.77711      677.77711      3.1135848e+08  1.6102602     -20484465      -20484465       1177.7524     -20483287      -1991.8469     -1978.2676     -2005.209      -10.735036     -2.8331343     -7.8075611      16201.079    
    134000   393.86079      0.067          0.20043962     0.19937651     0.2019082     -1979.5191      678.09487      678.09487      678.09487      3.117966e+08   1.6079976     -20472463      -20472463       1172.8502     -20471290      -1978.1853     -1967.6932     -1992.679      -10.313321     -4.4491739     -8.5885631      16169.463    
    135000   392.26312      0.0675         0.19891594     0.19826207     0.20068162    -1966.8053      678.41263      678.41263      678.41263      3.1223514e+08  1.6057391     -20460515      -20460515       1168.0926     -20459347      -1963.1477     -1956.6945     -1980.5736     -10.402146     -5.6726679     -9.0101896      16226.615    
    136000   390.98522      0.068          0.19730165     0.19689063     0.19932003    -1952.5037      678.73039      678.73039      678.73039      3.1267408e+08  1.6034849     -20448637      -20448637       1164.2872     -20447473      -1947.2158     -1943.1595     -1967.1358     -10.920543     -6.0746082     -7.7370649      16214.266    
    137000   389.73699      0.0685         0.1957638      0.19532601     0.19793319    -1937.735       679.04814      679.04814      679.04814      3.1311343e+08  1.601235      -20436837      -20436837       1160.5702     -20435677      -1932.0385     -1927.7179     -1953.4487     -10.441898     -5.9880922     -6.1587905      16044.612    
    138000   388.2953       0.069          0.19436017     0.19384933     0.19635542    -1923.0691      679.3659       679.3659       679.3659       3.135532e+08   1.5989892     -20425110      -20425110       1156.2771     -20423954      -1918.1857     -1913.1442     -1937.8773     -9.7005619     -5.4302417     -5.9010615      16191.635    
    139000   386.88628      0.0695         0.19311561     0.19259225     0.19484848    -1909.8819      679.68366      679.68366      679.68366      3.1399338e+08  1.5967476     -20413453      -20413453       1152.0813     -20412301      -1905.9029     -1900.7378     -1923.005      -9.4759218     -3.9221119     -7.1576901      16279.692    
    140000   385.28027      0.07           0.1918885      0.19126665     0.1934918     -1897.021       680.00142      680.00142      680.00142      3.1443397e+08  1.5945102     -20401869      -20401869       1147.2989     -20400722      -1893.7922     -1887.6551     -1909.6156     -8.9047696     -1.7916635     -8.4485297      16118.894    
    141000   383.40536      0.0705         0.19077668     0.18984265     0.1923022     -1884.7653      680.31918      680.31918      680.31918      3.1487497e+08  1.592277      -20390351      -20390351       1141.7157     -20389209      -1882.8194     -1873.6013     -1897.8752     -7.9405827     -1.1049314     -8.1093481      16268.349    
    142000   381.52703      0.071          0.18970382     0.188553       0.19123651    -1873.4874      680.63693      680.63693      680.63693      3.1531638e+08  1.590048      -20378892      -20378892       1136.1223     -20377755      -1872.2311     -1860.8735     -1887.3577     -7.0207649     -2.2797364     -6.155178       16200.092    
    143000   380.10624      0.0715         0.18840768     0.18735871     0.19010095    -1861.5588      680.95469      680.95469      680.95469      3.1575821e+08  1.5878231     -20367484      -20367484       1131.8915     -20366352      -1859.4393     -1849.0867     -1876.1505     -7.047207      -3.8662242     -5.0476988      16205.576    
    144000   379.16177      0.072          0.18701634     0.18613583     0.18879576    -1848.6649      681.27245      681.27245      681.27245      3.1620045e+08  1.5856024     -20356137      -20356137       1129.079      -20355008      -1845.7077     -1837.0178     -1863.2693     -8.2484489     -4.0933163     -5.5147989      16245.64     
    145000   378.37326      0.0725         0.18590469     0.18502314     0.1876318     -1837.5183      681.59021      681.59021      681.59021      3.166431e+08   1.5833858     -20344855      -20344855       1126.731      -20343728      -1834.7366     -1826.0365     -1851.7819     -8.5981197     -2.4657758     -6.558199       16179.452    
    146000   377.13221      0.073          0.18501402     0.18416472     0.18661781    -1828.4285      681.90796      681.90796      681.90796      3.1708616e+08  1.5811733     -20333624      -20333624       1123.0353     -20332501      -1825.9464     -1817.5644     -1841.7746     -8.8397013     -1.4696379     -6.3070671      16267.09     
    147000   375.38538      0.0735         0.18400556     0.18311277     0.18535251    -1817.4878      682.22572      682.22572      682.22572      3.1752964e+08  1.578965      -20322438      -20322438       1117.8336     -20321320      -1815.9937     -1807.1826     -1829.287      -10.184606     -2.6497156     -5.8882876      16212.904    
    148000   373.53996      0.074          0.18265614     0.18152269     0.18383075    -1802.8114      682.54348      682.54348      682.54348      3.1797353e+08  1.5767607     -20311313      -20311313       1112.3382     -20310201      -1802.6759     -1791.4897     -1814.2684     -11.104638     -3.7806801     -6.5045282      16222.328    
    149000   371.8795       0.0745         0.18126872     0.17991667     0.1823473     -1788.0836      682.86124      682.86124      682.86124      3.1841783e+08  1.5745606     -20300267      -20300267       1107.3937     -20299160      -1788.9832     -1775.6395     -1799.6279     -9.9613787     -3.71132       -7.2056181      16243.349    
    150000   370.05853      0.075          0.18023297     0.17896612     0.18115814    -1777.6371      683.17899      683.17899      683.17899      3.1886255e+08  1.5723646     -20289289      -20289289       1101.9711     -20288187      -1778.7611     -1766.2583     -1787.8918     -8.030838      -2.9989785     -6.3377272      15730.217    
    151000   368.23291      0.0755         0.17925744     0.17831642     0.1801842     -1769.0865      683.49675      683.49675      683.49675      3.1930768e+08  1.5701726     -20278354      -20278354       1096.5347     -20277257      -1769.1334     -1759.8463     -1778.2798     -6.5675172     -2.4673197     -3.5348441      16182.096    
    152000   367.14306      0.076          0.17815516     0.17726423     0.17925055    -1758.9273      683.81451      683.81451      683.81451      3.1975323e+08  1.5679847     -20267463      -20267463       1093.2893     -20266369      -1758.2547     -1749.4619     -1769.0654     -6.7055499     -2.6019271     -1.2960575      16289.444    
    153000   366.43562      0.0765         0.1771157      0.17618493     0.17840086    -1749.1619      684.13227      684.13227      684.13227      3.2019919e+08  1.5658009     -20256621      -20256621       1091.1827     -20255530      -1747.9961     -1738.8101     -1760.6796     -8.2893251     -2.6912257     -1.9713153      16250.894    
    154000   365.41342      0.077          0.1761697      0.17527143     0.17754766    -1740.2378      684.45003      684.45003      684.45003      3.2064556e+08  1.5636211     -20245822      -20245822       1088.1388     -20244734      -1738.6598     -1729.7945     -1752.2592     -10.115754     -2.0061202     -4.4109797      16280.612    
    155000   364.32116      0.0775         0.17524196     0.17442613     0.17649561    -1730.944       684.76778      684.76778      684.76778      3.2109235e+08  1.5614454     -20235067      -20235067       1084.8862     -20233982      -1729.5037     -1721.4521     -1741.8762     -10.044332     -1.1368926     -6.3819631      16256.906    
    156000   363.49406      0.078          0.17432177     0.17351077     0.17530047    -1720.9738      685.08554      685.08554      685.08554      3.2153955e+08  1.5592737     -20224364      -20224364       1082.4232     -20223282      -1720.4221     -1712.4181     -1730.0811     -8.3397516     -0.37653228    -6.0581295      16161.759    
    157000   362.52667      0.0785         0.17339238     0.17256769     0.17424427    -1711.3393      685.4033       685.4033       685.4033       3.2198717e+08  1.5571061     -20213715      -20213715       1079.5425     -20212635      -1711.2498     -1703.1107     -1719.6573     -7.0195942     -0.54887194    -4.9431779      16215.718    
    158000   361.34752      0.079          0.17239298     0.17153705     0.17324337    -1701.3682      685.72106      685.72106      685.72106      3.2243521e+08  1.5549424     -20203112      -20203112       1076.0312     -20202036      -1701.3864     -1692.9391     -1709.7791     -6.7797223     -0.27396923    -4.2564337      16214.237    
    159000   360.26028      0.0795         0.17136604     0.17051955     0.1722268     -1691.2982      686.03881      686.03881      686.03881      3.2288366e+08  1.5527828     -20192558      -20192558       1072.7936     -20191485      -1691.2513     -1682.8971     -1699.7463     -7.0360947      0.56377044    -3.5020752      16269.422    
    160000   359.24961      0.08           0.17054106     0.16960063     0.17136943    -1682.7407      686.35657      686.35657      686.35657      3.2333252e+08  1.5506271     -20182050      -20182050       1069.784      -20180980      -1683.1094     -1673.828      -1691.2848     -6.8974879      0.15270641    -2.3872209      16165.966    
    161000   358.3069       0.0805         0.16984649     0.16888004     0.17070653    -1675.9045      686.67433      686.67433      686.67433      3.237818e+08   1.5484755     -20171578      -20171578       1066.9768     -20170511      -1676.2546     -1666.7164     -1684.7424     -6.5416965     -1.0433719     -1.480932       16273.221    
    162000   357.13106      0.081          0.1691413      0.16833425     0.17004663    -1669.6182      686.99209      686.99209      686.99209      3.242315e+08   1.5463278     -20161129      -20161129       1063.4753     -20160066      -1669.2948     -1661.3299     -1678.2297     -6.2617177     -1.5255305     -1.5522206      16023.917    
    163000   355.89535      0.0815         0.16824811     0.16756791     0.16904596    -1660.8668      687.30984      687.30984      687.30984      3.2468161e+08  1.5441841     -20150706      -20150706       1059.7956     -20149646      -1660.4797     -1653.7667     -1668.3539     -5.7833523     -1.7941866     -2.5793167      16185.502    
    164000   355.02463      0.082          0.16716398     0.16660623     0.16787924    -1650.2983      687.6276       687.6276       687.6276       3.2513214e+08  1.5420443     -20140340      -20140340       1057.2027     -20139282      -1649.7802     -1644.2756     -1656.8392     -5.9147075     -1.7915099     -3.816841       16252.34     
    165000   354.42455      0.0825         0.16617404     0.16566077     0.16697203    -1640.9469      687.94536      687.94536      687.94536      3.2558309e+08  1.5399085     -20130035      -20130035       1055.4158     -20128979      -1640.0102     -1634.9447     -1647.8858     -6.5005636     -1.2126249     -4.9370076      14287.447    
    166000   353.53272      0.083          0.16547369     0.16487141     0.16638538    -1634.1163      688.26312      688.26312      688.26312      3.2603445e+08  1.5377767     -20119768      -20119768       1052.7601     -20118715      -1633.0984     -1627.1543     -1642.0961     -6.449347      -0.59590781    -5.6713126      16106.244    
    167000   352.43128      0.0835         0.16498235     0.16426435     0.16562801    -1628.0112      688.58087      688.58087      688.58087      3.2648623e+08  1.5356488     -20109522      -20109522       1049.4802     -20108473      -1628.2492     -1621.1631     -1634.6214     -6.2728129      0.18964115    -4.7353343      16195.445    
    168000   351.39534      0.084          0.16451355     0.16363783     0.16478762    -1621.6432      688.89863      688.89863      688.89863      3.2693843e+08  1.5335248     -20099300      -20099300       1046.3953     -20098254      -1623.6225     -1614.9799     -1626.3274     -6.5872491      0.68772297    -2.2934843      16222.607    
    169000   350.56732      0.0845         0.16396569     0.16284061     0.16408584    -1614.9096      689.21639      689.21639      689.21639      3.2739104e+08  1.5314047     -20089109      -20089109       1043.9296     -20088065      -1618.2155     -1607.1119     -1619.4014     -6.2037459      0.11134143    -0.72764953     16158.61     
    170000   350.03008      0.085          0.16328895     0.16209973     0.16337265    -1607.8998      689.53415      689.53415      689.53415      3.2784407e+08  1.5292885     -20078955      -20078955       1042.3298     -20077913      -1611.5366     -1599.8        -1612.3627     -5.855775      -0.75587976    -0.98323699     16173.117    
    171000   349.48582      0.0855         0.16246135     0.16156027     0.16264124    -1600.9963      689.85191      689.85191      689.85191      3.2829752e+08  1.5271762     -20068832      -20068832       1040.7091     -20067791      -1603.3689     -1594.4759     -1605.1442     -5.530095      -0.84479185    -1.3724446      16221.896    
    172000   348.58807      0.086          0.16164562     0.16097302     0.16194054    -1594.0758      690.16966      690.16966      690.16966      3.2875139e+08  1.5250679     -20058741      -20058741       1038.0357     -20057703      -1595.3183     -1588.6802     -1598.2289     -5.9572624     -0.54006272    -0.85743653     16094.568    
    173000   347.67254      0.0865         0.16094097     0.16022556     0.16124823    -1587.0212      690.48742      690.48742      690.48742      3.2920568e+08  1.5229633     -20048686      -20048686       1035.3095     -20047651      -1588.3639     -1581.3034     -1591.3963     -6.7746256      0.33302459    -0.76185986     16171.156    
    174000   347.01168      0.087          0.16044189     0.1596033      0.1607197     -1581.5935      690.80518      690.80518      690.80518      3.2966038e+08  1.5208627     -20038656      -20038656       1033.3415     -20037622      -1583.4383     -1575.1621     -1586.1801     -6.3639428      0.86881423    -1.6269809      16185.518    
    175000   346.48422      0.0875         0.16003754     0.15916509     0.16027802    -1577.3687      691.12294      691.12294      691.12294      3.301155e+08   1.5187659     -20028641      -20028641       1031.7708     -20027609      -1579.4477     -1570.8373     -1581.8211     -5.5012441      0.24791179    -3.1883772      16156.15     
    176000   346.25328      0.088          0.15950435     0.15868028     0.15971703    -1572.1742      691.44069      691.44069      691.44069      3.3057104e+08  1.516673      -20018648      -20018648       1031.0831     -20017617      -1574.1855     -1566.0526     -1576.2845     -4.6204085     -0.88003835    -3.7340594      16244.297    
    177000   346.16782      0.0885         0.15877735     0.15811181     0.15887414    -1565.1396      691.75845      691.75845      691.75845      3.31027e+08    1.5145839     -20008690      -20008690       1030.8287     -20007659      -1567.0106     -1560.4423     -1567.9659     -3.949743      -1.6861078     -3.4731722      16163.43     
    178000   345.84751      0.089          0.15805033     0.15748305     0.15790935    -1557.5055      692.07621      692.07621      692.07621      3.3148338e+08  1.5124987     -19998766      -19998766       1029.8748     -19997736      -1559.8355     -1554.2369     -1558.4441     -4.149547      -1.2458918     -2.6596986      16172.342    
    179000   345.12843      0.0895         0.15741666     0.1568084      0.15712444    -1550.6193      692.39397      692.39397      692.39397      3.3194018e+08  1.5104173     -19988871      -19988871       1027.7335     -19987844      -1553.5816     -1547.5785     -1550.6977     -5.023013      -0.79613512    -1.6321352      16215.719    
    180000   344.15277      0.09           0.15683133     0.15612357     0.15657664    -1544.6387      692.71172      692.71172      692.71172      3.323974e+08   1.5083397     -19979006      -19979006       1024.8282     -19977981      -1547.8049     -1540.8199     -1545.2913     -6.5108633     -0.647074      -0.58087985     16036.971    
    181000   343.16748      0.0905         0.15628641     0.15549264     0.15615049    -1539.3685      693.02948      693.02948      693.02948      3.3285504e+08  1.5062659     -19969172      -19969172       1021.8942     -19968150      -1542.427      -1534.5931     -1541.0855     -7.7485764      0.29067936    -0.72451444     16198.703    
    182000   342.20895      0.091          0.15568566     0.15496019     0.15580305    -1534.4976      693.34724      693.34724      693.34724      3.3331309e+08  1.5041959     -19959362      -19959362       1019.0398     -19958343      -1536.498      -1529.3382     -1537.6565     -7.7515878      1.4653306     -1.1683639      16140.869    
    183000   341.43329      0.0915         0.15502986     0.15445145     0.15530257    -1529.0201      693.665        693.665        693.665        3.3377157e+08  1.5021297     -19949569      -19949569       1016.73       -19948552      -1530.0258     -1524.3173     -1532.7172     -6.394224       1.3152226     -0.88776911     16088.737    
    184000   341.06974      0.092          0.15448468     0.15387734     0.15452821    -1522.7905      693.98276      693.98276      693.98276      3.3423047e+08  1.5000672     -19939798      -19939798       1015.6474     -19938782      -1524.6453     -1518.6513     -1525.0749     -4.7182373      0.044539896   -0.74269873     16199.208    
    185000   341.26654      0.0925         0.15403126     0.15335831     0.1538238     -1517.274       694.30051      694.30051      694.30051      3.3468979e+08  1.4980086     -19930057      -19930057       1016.2335     -19929041      -1520.1704     -1513.5289     -1518.1229     -4.1873315     -0.88474131    -1.1217887      15977.816    
    186000   341.77255      0.093          0.15358356     0.15302216     0.15356029    -1513.8285      694.61827      694.61827      694.61827      3.3514952e+08  1.4959537     -19920341      -19920341       1017.7403     -19919323      -1515.7519     -1510.2113     -1515.5222     -5.2179022     -1.4261487     -2.0441615      16159.966    
    187000   341.80082      0.0935         0.15321454     0.15278006     0.15342879    -1511.3854      694.93603      694.93603      694.93603      3.3560968e+08  1.4939026     -19910634      -19910634       1017.8245     -19909616      -1512.1099     -1507.8219     -1514.2244     -6.7304933     -2.1631264     -3.3250546      16220.247    
    188000   341.23897      0.094          0.15287518     0.15238868     0.15291724    -1507.2986      695.25379      695.25379      695.25379      3.3607026e+08  1.4918552     -19900940      -19900940       1016.1514     -19899923      -1508.7607     -1503.9593     -1509.1758     -7.2087589     -1.9441906     -3.6944588      16026.262    
    189000   340.47327      0.0945         0.1524304      0.15185066     0.15201638    -1501.1018      695.57154      695.57154      695.57154      3.3653127e+08  1.4898116     -19891269      -19891269       1013.8713     -19890256      -1504.371      -1498.6495     -1500.285      -6.443932      -0.41441309    -2.6360107      16121.989    
    190000   339.6825       0.095          0.15183551     0.15125872     0.15117339    -1494.4243      695.8893       695.8893       695.8893       3.3699269e+08  1.4877717     -19881629      -19881629       1011.5165     -19880618      -1498.5        -1492.8075     -1491.9654     -5.1047197      1.1120304     -0.28155113     16158.246    
    191000   338.745        0.0955         0.15114317     0.15056552     0.15060411    -1487.9934      696.20706      696.20706      696.20706      3.3745453e+08  1.4857355     -19872016      -19872016       1008.7248     -19871007      -1491.6671     -1485.9662     -1486.347      -3.9467061      1.0843606      1.0804161      16136.869    
    192000   337.84832      0.096          0.15041192     0.14993239     0.15017031    -1482.0779      696.52482      696.52482      696.52482      3.379168e+08   1.483703      -19862423      -19862423       1006.0546     -19861417      -1484.4502     -1479.7176     -1482.0658     -3.1827317      0.10538485     0.89072421     15960.824    
    193000   337.52329      0.0965         0.14983654     0.14944076     0.14973555    -1477.1375      696.84257      696.84257      696.84257      3.3837949e+08  1.4816743     -19852859      -19852859       1005.0867     -19851853      -1478.7717     -1474.8657     -1477.775      -3.7250635     -0.54032341     0.34490312     16085.423    
    194000   337.59096      0.097          0.14956805     0.14912215     0.14945881    -1474.2956      697.16033      697.16033      697.16033      3.388426e+08   1.4796492     -19843314      -19843314       1005.2882     -19842308      -1476.1219     -1471.7212     -1475.0438     -5.5566702     -0.32545465    -0.1433152      16163.707    
    195000   337.44751      0.0975         0.14940285     0.14885017     0.14923938    -1472.1355      697.47809      697.47809      697.47809      3.3930613e+08  1.4776278     -19833780      -19833780       1004.8611     -19832776      -1474.4915     -1469.0369     -1472.8782     -6.7926392      0.176522      -0.49949382     16138.312    
    196000   337.42626      0.098          0.14900745     0.1484606      0.14882165    -1468.179       697.79585      697.79585      697.79585      3.3977009e+08  1.4756101     -19824258      -19824258       1004.7978     -19823253      -1470.5892     -1465.1922     -1468.7555     -5.9566587     -0.50916067    -0.44359278     16199.302    
    197000   337.71466      0.0985         0.14846585     0.14798672     0.14820687    -1462.8158      698.1136       698.1136       698.1136       3.4023447e+08  1.4735961     -19814756      -19814756       1005.6566     -19813750      -1465.244      -1460.5154     -1462.6881     -5.1723463     -1.5483552      0.36475375     16179.231    
    198000   337.86993      0.099          0.14804276     0.14762352     0.14768071    -1458.4982      698.43136      698.43136      698.43136      3.4069927e+08  1.4715857     -19805272      -19805272       1006.119      -19804266      -1461.0685     -1456.9309     -1457.4953     -5.3683123     -1.6191184      0.49547481     15667.816    
    199000   337.27514      0.0995         0.14777421     0.14728233     0.14728826    -1455.2013      698.74912      698.74912      698.74912      3.4116449e+08  1.469579      -19795802      -19795802       1004.3478     -19794798      -1458.4181     -1453.5636     -1453.6222     -5.4532755     -0.41772361    -0.85005252     16170.361    
    200000   336.18936      0.1            0.1474271      0.14675122     0.14681464    -1450.754       699.06688      699.06688      699.06688      3.4163014e+08  1.467576      -19786347      -19786347       1001.1145     -19785346      -1454.9923     -1448.3219     -1448.9478     -4.6797104      0.65213511    -1.3326008      15620.63     
    201000   335.39673      0.1005         0.14691079     0.14617114     0.14621931    -1445.1887      699.38464      699.38464      699.38464      3.4209621e+08  1.4655765     -19776917      -19776917       998.75419     -19775918      -1449.8967     -1442.597      -1443.0724     -3.9365959     -0.0087811251  -0.023344713    16149.509    
    202000   335.41648      0.101          0.14610625     0.14556119     0.14558429    -1438.4464      699.70239      699.70239      699.70239      3.425627e+08   1.4635807     -19767523      -19767523       998.81299     -19766524      -1441.9566     -1436.5772     -1436.8052     -3.9551217     -1.4064362      1.2756681      16160.071    
    203000   335.81465      0.1015         0.14532782     0.14503817     0.14509122    -1432.5428      700.02015      700.02015      700.02015      3.4302962e+08  1.4615886     -19758162      -19758162       999.99869     -19757162      -1434.274      -1431.4155     -1431.939      -4.2950803     -1.031784       0.71518058     16180.441    
    204000   335.78056      0.102          0.1450161      0.14478783     0.14478057    -1429.6718      700.33791      700.33791      700.33791      3.4349697e+08  1.4596        -19748819      -19748819       999.89717     -19747819      -1431.1976     -1428.9447     -1428.8732     -4.8757976      0.60955315    -1.0409976      16025.484    
    205000   335.30038      0.1025         0.1451044      0.14479547     0.14474135    -1429.8584      700.65567      700.65567      700.65567      3.4396473e+08  1.4576151     -19739473      -19739473       998.46727     -19738474      -1432.0691     -1429.0202     -1428.486      -6.1074682      1.5226569     -2.3216092      16175.933    
    206000   334.87528      0.103          0.14502146     0.14469941     0.14462442    -1428.8849      700.97342      700.97342      700.97342      3.4443292e+08  1.4556337     -19730115      -19730115       997.2014      -19729118      -1431.2505     -1428.0722     -1427.3321     -6.4313452      0.40309799    -2.0574022      16139.794    
    207000   334.86668      0.1035         0.14456678     0.14425702     0.14422954    -1424.6347      701.29118      701.29118      701.29118      3.4490154e+08  1.453656      -19720759      -19720759       997.17578     -19719761      -1426.7632     -1423.7061     -1423.4349     -5.3859154     -1.742338      -1.0270729      16096.849    
    208000   335.01599      0.104          0.14394848     0.14353566     0.1436289     -1418.2516      701.60894      701.60894      701.60894      3.4537058e+08  1.4516818     -19711436      -19711436       997.62042     -19710439      -1420.6611     -1416.5868     -1417.507      -4.008228      -2.580978       0.45675582     16160.527    
    209000   334.76878      0.1045         0.14338247     0.14282131     0.14297623    -1411.8924      701.9267       701.9267       701.9267       3.4584005e+08  1.4497112     -19702155      -19702155       996.88426     -19701158      -1415.075      -1409.5367     -1411.0656     -4.2054911     -1.7733301      1.6929772      16103.87     
    210000   334.03669      0.105          0.14290793     0.142226       0.14230781    -1406.174       702.24445      702.24445      702.24445      3.4630994e+08  1.4477441     -19692904      -19692904       994.70422     -19691909      -1410.3916     -1403.6615     -1404.4689     -5.2021513     -0.73135781     2.1766022      16170.152    
    211000   333.50969      0.1055         0.14253428     0.14177839     0.14168799    -1401.4332      702.56221      702.56221      702.56221      3.4678026e+08  1.4457806     -19683675      -19683675       993.13491     -19682682      -1406.704      -1399.2439     -1398.3518     -5.463525      -0.70077767     2.1324775      16090.739    
    212000   333.73084      0.106          0.14216125     0.1414498      0.141221      -1397.5888      702.87997      702.87997      702.87997      3.47251e+08    1.4438207     -19674463      -19674463       993.79345     -19673469      -1403.0225     -1396.001      -1393.7429     -4.9568036     -1.3027111      2.0314091      16110.719    
    213000   334.11515      0.1065         0.14178365     0.14127917     0.14102339    -1395.1352      703.19773      703.19773      703.19773      3.4772217e+08  1.4418643     -19665262      -19665262       994.93785     -19664267      -1399.2958     -1394.317      -1391.7926     -4.1630686     -1.3329081      1.3936089      16152.672    
    214000   334.03827      0.107          0.14140407     0.14105525     0.14101413    -1393.1193      703.51549      703.51549      703.51549      3.4819376e+08  1.4399114     -19656067      -19656067       994.70892     -19655072      -1395.5497     -1392.107      -1391.7012     -4.1405626     -0.6560871      0.33900932     16107.213    
    215000   333.95566      0.1075         0.1410523      0.14066005     0.14084071    -1390.0915      703.83324      703.83324      703.83324      3.4866578e+08  1.4379621     -19646879      -19646879       994.46294     -19645885      -1392.078      -1388.2068     -1389.9898     -5.1691241     -0.34140339    -0.31777203     16162.659    
    216000   333.97276      0.108          0.14075844     0.14028291     0.14048775    -1386.7229      704.151        704.151        704.151        3.4913823e+08  1.4360163     -19637710      -19637710       994.51385     -19636716      -1389.1778     -1384.4847     -1386.5062     -5.8485173     -0.37629686    -0.39590537     16106.456    
    217000   333.52531      0.1085         0.14037495     0.14013656     0.13998993    -1383.3422      704.46876      704.46876      704.46876      3.496111e+08   1.434074      -19628556      -19628556       993.18142     -19627563      -1385.3931     -1383.0403     -1381.5932     -4.9069581     -0.36648119    -0.21223886     16162.692    
[...]
   3089000   325.24746      1.5445         0.0089101912   0.0087605899   0.0085384101  -86.221535      1617.0688      1617.0688      1617.0688      4.2284917e+09  0.11856903    -5879131.2     -5879131.2      968.5314      -5878162.7     -87.93675      -86.4603       -84.267555     -0.14751257     0.087715558    1.6885651      13723.533    
   3090000   325.21937      1.545          0.0089027265   0.0087526939   0.0085266843  -86.132428      1617.3865      1617.3865      1617.3865      4.230985e+09   0.11849916    -5876159.9     -5876159.9      968.44774     -5875191.4     -87.863079     -86.382372     -84.151831     -0.12690114     0.11336721     1.6815891      13775.831    
   3091000   325.19154      1.5455         0.0088936866   0.0087433354   0.008515479   -86.035039      1617.7043      1617.7043      1617.7043      4.2334792e+09  0.11842935    -5873190.7     -5873190.7      968.36488     -5872222.3     -87.773863     -86.290011     -84.041243     -0.13549144     0.14400918     1.6833512      13798.051    
   3092000   325.17053      1.546          0.0088846753   0.0087334622   0.0085056278  -85.940506      1618.0221      1618.0221      1618.0221      4.2359743e+09  0.11835959    -5870223.8     -5870223.8      968.30231     -5869255.5     -87.684928     -86.19257      -83.94402      -0.16848896     0.16620933     1.6876829      13781.714    
   3093000   325.15246      1.5465         0.0088771156   0.0087258674   0.008497598   -85.864235      1618.3398      1618.3398      1618.3398      4.2384705e+09  0.11828988    -5867258.8     -5867258.8      968.2485      -5866290.6     -87.610319     -86.117616     -83.864771     -0.2063555      0.17075023     1.6828836      13766.137    
   3094000   325.12886      1.547          0.0088710356   0.0087200129   0.008491442   -85.804722      1618.6576      1618.6576      1618.6576      4.2409676e+09  0.11822023    -5864294.9     -5864294.9      968.17822     -5863326.7     -87.550314     -86.059837     -83.804016     -0.22794814     0.15736577     1.6610032      13740.464    
   3095000   325.10747      1.5475         0.008864276    0.0087134108   0.0084874197  -85.747534      1618.9753      1618.9753      1618.9753      4.2434657e+09  0.11815064    -5861331.7     -5861331.7      968.11452     -5860363.6     -87.483603     -85.994679     -83.76432      -0.23122478     0.1374456      1.644379       13710.14     
   3096000   325.09233      1.548          0.00885489     0.0087050465   0.0084837321  -85.677008      1619.2931      1619.2931      1619.2931      4.2459648e+09  0.1180811     -5858369.5     -5858369.5      968.06945     -5857401.4     -87.390969     -85.91213      -83.727926     -0.2337728      0.12765799     1.6488388      13706.419    
   3097000   325.08365      1.5485         0.0088439601   0.0086953078   0.0084773183  -85.587914      1619.6109      1619.6109      1619.6109      4.2484649e+09  0.11801161    -5855409.1     -5855409.1      968.04359     -5854441       -87.2831       -85.816015     -83.664627     -0.23847944     0.1280211      1.6625319      13700.828    
   3098000   325.08076      1.549          0.0088327944   0.0086877348   0.0084676549  -85.494479      1619.9286      1619.9286      1619.9286      4.250966e+09   0.11794218    -5852450.8     -5852450.8      968.035       -5851482.8     -87.172903     -85.741276     -83.569256     -0.24089503     0.12492316     1.6705295      13667.387    
   3099000   325.08933      1.5495         0.0088216585   0.0086825365   0.0084569753  -85.40561       1620.2464      1620.2464      1620.2464      4.253468e+09   0.1178728     -5849494.7     -5849494.7      968.0605      -5848526.6     -87.063001     -85.689973     -83.463857     -0.24619988     0.11961586     1.6769915      13694.302    
   3100000   325.11118      1.55           0.0088129496   0.0086764591   0.0084478432  -85.326925      1620.5641      1620.5641      1620.5641      4.255971e+09   0.11780348    -5846540.5     -5846540.5      968.12559     -5845572.4     -86.97705      -85.629994     -83.37373      -0.26164318     0.12045868     1.6856922      13466.352    
   3101000   325.13249      1.5505         0.008807889    0.0086696242   0.008441545   -85.267072      1620.8819      1620.8819      1620.8819      4.258475e+09   0.11773421    -5843587.9     -5843587.9      968.18904     -5842619.7     -86.927106     -85.562539     -83.311572     -0.26730286     0.12689698     1.6917678      13668.753    
   3102000   325.13303      1.551          0.0088059747   0.0086658584   0.0084376724  -85.235646      1621.1996      1621.1996      1621.1996      4.26098e+09    0.11766499    -5840635.7     -5840635.7      968.19065     -5839667.5     -86.908213     -85.525373     -83.273352     -0.25018177     0.13106954     1.6918217      13630.189    
   3103000   325.11129      1.5515         0.008803533    0.0086649915   0.0084349718  -85.215877      1621.5174      1621.5174      1621.5174      4.263486e+09   0.11759583    -5837682.7     -5837682.7      968.12591     -5836714.6     -86.884115     -85.516818     -83.246699     -0.22844243     0.12620726     1.6868412      13683.375    
   3104000   325.08789      1.552          0.0087977968   0.0086630162   0.0084316668  -85.179636      1621.8352      1621.8352      1621.8352      4.2659929e+09  0.11752672    -5834729.4     -5834729.4      968.05624     -5833761.4     -86.827504     -85.497323     -83.214081     -0.2224399      0.11064001     1.679442       13729.335    
   3105000   325.07371      1.5525         0.0087906481   0.0086590146   0.008429117   -85.134566      1622.1529      1622.1529      1622.1529      4.2685009e+09  0.11745767    -5831776.5     -5831776.5      968.014       -5830808.5     -86.756952     -85.457829     -83.188917     -0.23464962     0.091085188    1.6763686      13660.162    
   3106000   325.06422      1.553          0.00878555     0.008651897    0.0084269179  -85.087145      1622.4707      1622.4707      1622.4707      4.2710098e+09  0.11738867    -5828823.9     -5828823.9      967.98573     -5827855.9     -86.706637     -85.387584     -83.167213     -0.25006492     0.084168044    1.671586       13646.566    
   3107000   325.06548      1.5535         0.0087823215   0.0086418211   0.0084221382  -85.027653      1622.7884      1622.7884      1622.7884      4.2735197e+09  0.11731973    -5825872.2     -5825872.2      967.98948     -5824904.2     -86.674774     -85.288143     -83.120041     -0.26314499     0.10221661     1.655271       13677.193    
   3108000   325.07298      1.554          0.0087778389   0.0086316219   0.0084137754  -84.951842      1623.1062      1623.1062      1623.1062      4.2760306e+09  0.11725084    -5822921.7     -5822921.7      968.01184     -5821953.7     -86.630534     -85.187485     -83.037507     -0.27542394     0.1316025      1.6276523      13701.115    
   3109000   325.06805      1.5545         0.0087700858   0.0086219989   0.008402756   -84.858428      1623.4239      1623.4239      1623.4239      4.2785424e+09  0.117182      -5819973       -5819973        967.99714     -5819005       -86.554018     -85.092513     -82.928754     -0.2810232      0.15315641     1.6003666      13643.518    
   3110000   325.033        1.555          0.0087612668   0.0086132566   0.0083910416  -84.762118      1623.7417      1623.7417      1623.7417      4.2810553e+09  0.11711322    -5817026.5     -5817026.5      967.89276     -5816058.6     -86.46698      -85.006233     -82.813142     -0.27338905     0.163899       1.5863146      13769.659    
   3111000   324.97964      1.5555         0.0087533983   0.0086071591   0.008381959   -84.686295      1624.0595      1624.0595      1624.0595      4.2835691e+09  0.11704449    -5814082       -5814082        967.73388     -5813114.3     -86.389325     -84.946056     -82.723503     -0.25074498     0.1635667      1.5887884      13689.994    
   3112000   324.94993      1.556          0.0087472019   0.0086039583   0.0083769913  -84.639038      1624.3772      1624.3772      1624.3772      4.2860839e+09  0.11697582    -5811138.5     -5811138.5      967.64542     -5810170.8     -86.328171     -84.914466     -82.674476     -0.23486768     0.13677181     1.6060118      13731.133    
   3113000   324.98329      1.5565         0.0087436399   0.0086020767   0.0083748877  -84.614209      1624.695       1624.695       1624.695       4.2885997e+09  0.1169072     -5808195.1     -5808195.1      967.74475     -5807227.3     -86.293017     -84.895896     -82.653716     -0.24274668     0.090951363    1.6268626      13750.536    
   3114000   325.08335      1.557          0.0087410639   0.0086011804   0.0083756242  -84.60521       1625.0127      1625.0127      1625.0127      4.2911165e+09  0.11683863    -5805251.4     -5805251.4      968.0427      -5804283.3     -86.267593     -84.887051     -82.660984     -0.26259927     0.054905273    1.6497359      13813.586    
   3115000   325.20331      1.5575         0.0087373139   0.0086017142   0.0083775048  -84.600815      1625.3305      1625.3305      1625.3305      4.2936343e+09  0.11677012    -5802307       -5802307        968.39992     -5801338.6     -86.230583     -84.892319     -82.679544     -0.27116931     0.03472761     1.6778098      13842.939    
   3116000   325.28391      1.558          0.00873271     0.0086008249   0.0083771899  -84.581708      1625.6482      1625.6482      1625.6482      4.296153e+09   0.11670166    -5799361.8     -5799361.8      968.63995     -5798393.2     -86.185147     -84.883542     -82.676436     -0.26630724     0.021262589    1.7011537      13793.202    
   3117000   325.29993      1.5585         0.0087282382   0.0085936913   0.0083723222  -84.527516      1625.966       1625.966       1625.966       4.2986728e+09  0.11663325    -5796416.6     -5796416.6      968.68765     -5795447.9     -86.141014     -84.813139     -82.628396     -0.25789231     0.018758731    1.7066056      13792.79     
   3118000   325.25907      1.559          0.0087226579   0.0085809931   0.0083627952  -84.436043      1626.2838      1626.2838      1626.2838      4.3011935e+09  0.1165649     -5793472.8     -5793472.8      968.56596     -5792504.3     -86.08594      -84.687817     -82.534372     -0.25982494     0.027787945    1.6915616      13779.597    
   3119000   325.17816      1.5595         0.00871564     0.0085681526   0.0083515249  -84.333638      1626.6015      1626.6015      1626.6015      4.3037152e+09  0.1164966     -5790531.5     -5790531.5      968.32504     -5789563.2     -86.016679     -84.561092     -82.423142     -0.27562516     0.037818472    1.6512211      13626.212    
   3120000   325.08616      1.56           0.00870926     0.0085602428   0.0083428702  -84.258156      1626.9193      1626.9193      1626.9193      4.3062379e+09  0.11642835    -5787592       -5787592        968.05107     -5786624       -85.953713     -84.483028     -82.337727     -0.29818025     0.042436732    1.6053038      13761.507    
   3121000   325.03498      1.5605         0.008703684    0.0085564408   0.0083363203  -84.205757      1627.237       1627.237       1627.237       4.3087616e+09  0.11636016    -5784653.4     -5784653.4      967.89866     -5783685.5     -85.898682     -84.445505     -82.273085     -0.30854965     0.052217288    1.5739129      13713.89     
   3122000   325.05121      1.561          0.0086983981   0.0085536177   0.0083295558  -84.156827      1627.5548      1627.5548      1627.5548      4.3112862e+09  0.11629202    -5781715.5     -5781715.5      967.947       -5780747.5     -85.846514     -84.417644     -82.206324     -0.29356824     0.073148764    1.5652496      13701.522    
   3123000   325.09021      1.5615         0.0086931919   0.0085505915   0.0083226873  -84.107149      1627.8726      1627.8726      1627.8726      4.3138119e+09  0.11622393    -5778778.4     -5778778.4      968.06313     -5777810.3     -85.795133     -84.387777     -82.138537     -0.26113677     0.091392055    1.5862301      13777.029    
   3124000   325.10104      1.562          0.0086864851   0.0085458275   0.0083156673  -84.046319      1628.1903      1628.1903      1628.1903      4.3163385e+09  0.1161559     -5775842       -5775842        968.09539     -5774873.9     -85.728942     -84.34076      -82.069256     -0.23678091     0.089139703    1.6239498      13715.123    
   3125000   325.08728      1.5625         0.0086758115   0.0085371572   0.0083080744  -83.957704      1628.5081      1628.5081      1628.5081      4.3188661e+09  0.11608792    -5772906.9     -5772906.9      968.05442     -5771938.9     -85.623602     -84.255191     -81.994319     -0.22916926     0.07494049     1.6544919      13689.735    
   3126000   325.07857      1.563          0.0086620282   0.0085254075   0.0083009527  -83.850278      1628.8258      1628.8258      1628.8258      4.3213947e+09  0.11601999    -5769974.4     -5769974.4      968.02848     -5769006.4     -85.487572     -84.13923      -81.924033     -0.2256424      0.064872123    1.6633316      13726.905    
   3127000   325.08249      1.5635         0.0086512665   0.0085150826   0.0082965705  -83.766492      1629.1436      1629.1436      1629.1436      4.3239243e+09  0.11595212    -5767044.6     -5767044.6      968.04014     -5766076.5     -85.381362     -84.037331     -81.880784     -0.21718828     0.064352414    1.6447225      13727.42     
   3128000   325.07371      1.564          0.0086473911   0.0085091743   0.0082944327  -83.727274      1629.4613      1629.4613      1629.4613      4.3264549e+09  0.11588429    -5764115.7     -5764115.7      968.01399     -5763147.7     -85.343115     -83.97902      -81.859686     -0.20877182     0.072238017    1.62082        13662.02     
   3129000   325.0367       1.5645         0.0086469645   0.0085053495   0.0082903911  -83.699992      1629.7791      1629.7791      1629.7791      4.3289865e+09  0.11581653    -5761186.5     -5761186.5      967.90379     -5760218.6     -85.338905     -83.941274     -81.819799     -0.20566207     0.08723929     1.6095337      13717.091    
   3130000   324.99845      1.565          0.0086435937   0.0085005637   0.0082839839  -83.652081      1630.0969      1630.0969      1630.0969      4.3315191e+09  0.11574881    -5758257.2     -5758257.2      967.78988     -5757289.4     -85.305638     -83.894041     -81.756564     -0.21442187     0.10332594     1.6042711      13579.868    
   3131000   324.98799      1.5655         0.0086362182   0.0084958246   0.0082789545  -83.595682      1630.4146      1630.4146      1630.4146      4.3340526e+09  0.11568115    -5755328.8     -5755328.8      967.75873     -5754361.1     -85.232847     -83.847269     -81.706928     -0.22789344     0.11336218     1.5969196      13667.126    
   3132000   324.99389      1.566          0.0086275521   0.0084919355   0.0082746875  -83.540341      1630.7324      1630.7324      1630.7324      4.3365871e+09  0.11561354    -5752401.2     -5752401.2      967.77629     -5751433.4     -85.147319     -83.808888     -81.664816     -0.23571062     0.11366324     1.5959911      13699.418    
   3133000   324.98279      1.5665         0.0086181433   0.0084876954   0.0082675883  -83.472085      1631.0501      1631.0501      1631.0501      4.3391227e+09  0.11554598    -5749474.5     -5749474.5      967.74325     -5748506.7     -85.054462     -83.767041     -81.594752     -0.2555122      0.10697162     1.6051611      13738.541    
   3134000   324.94581      1.567          0.0086083946   0.0084808008   0.0082568234  -83.381919      1631.3679      1631.3679      1631.3679      4.3416592e+09  0.11547847    -5746549.4     -5746549.4      967.63312     -5745581.8     -84.958249     -83.698996     -81.488511     -0.28885467     0.11077111     1.6141591      13693.632    
   3135000   324.90647      1.5675         0.0085998059   0.008470434    0.0082447883  -83.279968      1631.6856      1631.6856      1631.6856      4.3441967e+09  0.11541102    -5743626.8     -5743626.8      967.516       -5742659.3     -84.873485     -83.596684     -81.369734     -0.29425857     0.12731057     1.6060892      13694.165    
   3136000   324.89178      1.568          0.0085913162   0.0084585231   0.0082344594  -83.178876      1632.0034      1632.0034      1632.0034      4.3467352e+09  0.11534362    -5740706.6     -5740706.6      967.47224     -5739739.2     -84.789698     -83.479133     -81.267796     -0.25552764     0.14719459     1.5931748      13651.102    
   3137000   324.9169       1.5685         0.0085834114   0.0084489027   0.0082281384  -83.100428      1632.3212      1632.3212      1632.3212      4.3492746e+09  0.11527627    -5737788.8     -5737788.8      967.54704     -5736821.3     -84.711685     -83.384187     -81.205412     -0.20376198     0.16089452     1.5977582      13664.236    
   3138000   324.96748      1.569          0.0085776107   0.0084438991   0.008226914   -83.060856      1632.6389      1632.6389      1632.6389      4.3518151e+09  0.11520898    -5734872.2     -5734872.2      967.69766     -5733904.5     -84.654436     -83.334805     -81.193328     -0.17278446     0.16094925     1.6111819      13679.239    
   3139000   325.01103      1.5695         0.0085733253   0.0084431603   0.0082270391  -83.04474       1632.9567      1632.9567      1632.9567      4.3543565e+09  0.11514174    -5731955.3     -5731955.3      967.82735     -5730987.5     -84.612142     -83.327514     -81.194564     -0.17115019     0.14718246     1.6246623      13668.392    
   3140000   325.03527      1.57           0.0085692804   0.0084428871   0.0082246164  -83.022564      1633.2744      1633.2744      1633.2744      4.356899e+09   0.11507455    -5729037.9     -5729037.9      967.89953     -5728070       -84.572222     -83.324817     -81.170653     -0.1861553      0.1258052      1.6350827      13708.483    
   3141000   325.04526      1.5705         0.0085643265   0.008440102    0.0082198419  -82.981398      1633.5922      1633.5922      1633.5922      4.3594424e+09  0.11500741    -5726120.3     -5726120.3      967.92929     -5725152.4     -84.52333      -83.297331     -81.123532     -0.2116763      0.10837269     1.6417712      13745.086    
   3142000   325.04214      1.571          0.0085582716   0.0084334896   0.0082137624  -82.919725      1633.9099      1633.9099      1633.9099      4.3619868e+09  0.11494032    -5723203.4     -5723203.4      967.91999     -5722235.5     -84.463573     -83.232071     -81.063532     -0.2352458      0.097941235    1.6387285      13711.055    
   3143000   325.02556      1.5715         0.0085522248   0.0084239812   0.0082068715  -82.845883      1634.2277      1634.2277      1634.2277      4.3645323e+09  0.11487329    -5720287.8     -5720287.8      967.87062     -5719320       -84.403896     -83.13823      -80.995524     -0.23555853     0.091088613    1.6224922      13643.082    
   3144000   325.00191      1.572          0.0085473647   0.0084124149   0.0081988866  -82.765577      1634.5455      1634.5455      1634.5455      4.3670787e+09  0.11480631    -5717373.9     -5717373.9      967.8002      -5716406.1     -84.355931     -83.02408      -80.91672      -0.22327727     0.083386149    1.6066147      13759.685    
   3145000   324.98606      1.5725         0.0085433082   0.0084009455   0.0081893806  -82.683228      1634.8632      1634.8632      1634.8632      4.369626e+09   0.11473938    -5714461.8     -5714461.8      967.753       -5713494       -84.315897     -82.910886     -80.822903     -0.21982775     0.089541553    1.6006757      13759.007    
   3146000   324.98229      1.573          0.008537294    0.0083919259   0.0081778066  -82.595696      1635.181       1635.181       1635.181       4.3721744e+09  0.1146725     -5711551.6     -5711551.6      9