LAMMPS (23 Jun 2022 - Update 1)
OMP_NUM_THREADS environment is not set. Defaulting to 1 thread. (src/comm.cpp:98)
  using 1 OpenMP thread(s) per MPI task
###

# Read restart info
read_restart ${read_res}
read_restart ./trial9/3070/equpmf70.res
Reading restart file ...
  restart file = 23 Jun 2022, LAMMPS = 23 Jun 2022
  restoring atom style atomic from restart
  orthogonal box = (1645.3775 1645.3775 1645.3775) to (2354.6225 2354.6225 2354.6225)
  1 by 2 by 2 MPI processor grid
  restoring pair style table from restart
  1000 atoms
  read_restart CPU = 0.019 seconds

# Settings
pair_style table/pgn spline 10941
pair_coeff 1 1 N20e.txt DE_GNP 308 72.9   # 1.35 * r
pair_coeff 2 2 N100e.txt DE_GNP 473.9 111.78
WARNING: 20 of 10941 force values in table DE_GNP are inconsistent with -dE/dr.
WARNING:  Should only be flagged at inflection points (src/pair_table_pgn.cpp:478)
pair_coeff 1 2 mixed_potentiale.txt DE_GNP 391.2 92.95
WARNING: 1564 of 10941 force values in table DE_GNP are inconsistent with -dE/dr.
WARNING:  Should only be flagged at inflection points (src/pair_table_pgn.cpp:478)

# Neighbor list
neighbor 2.0 bin
neigh_modify delay 0 every 1 check no once yes

# Temperature
variable T equal ${Temp}
variable T equal 300

# Deformation
reset_timestep 0
variable tmp equal "lx"
variable L0 equal ${tmp}
variable L0 equal 709.244927999351
variable strain equal "(lx - v_L0)/v_L0"
variable stp equal "step"
variable tmpe equal "temp"
variable p1 equal "v_strain"
variable p2 equal "-pxx*1.01325/10000"
variable p3 equal "-pyy*1.01325/10000"
variable p4 equal "-pzz*1.01325/10000"
variable p5 equal "lx"
variable p6 equal "ly"
variable p7 equal "lz"
variable p8 equal "press"
variable p9 equal "epair"
variable p10 equal "etotal"

# Thermo
thermo_style custom step temp v_p1 v_p2 v_p3 v_p4 press lx ly lz vol density epair pe ke etotal pxx pyy pzz pxy pxz pyz spcpu
thermo ${ts_save}
thermo 1000

# Dump
# dump 1 all custom 2000 ./${N20}${N100}/tensile/trajectory/trajectory_${usic}_${trial}_*.tensile.custom id type x y z ix iy iz
# dump_modify 1 sort id
dump 2 all cfg 50000 ./trial${trial}/${N20}${N100}/tensile/trajectory/dumpten.tens_${usic}_${trial}_*.cfg mass type xs ys zs fx fy fz
dump 2 all cfg 50000 ./trial9/${N20}${N100}/tensile/trajectory/dumpten.tens_${usic}_${trial}_*.cfg mass type xs ys zs fx fy fz
dump 2 all cfg 50000 ./trial9/30${N100}/tensile/trajectory/dumpten.tens_${usic}_${trial}_*.cfg mass type xs ys zs fx fy fz
dump 2 all cfg 50000 ./trial9/3070/tensile/trajectory/dumpten.tens_${usic}_${trial}_*.cfg mass type xs ys zs fx fy fz
dump 2 all cfg 50000 ./trial9/3070/tensile/trajectory/dumpten.tens_1_${trial}_*.cfg mass type xs ys zs fx fy fz
dump 2 all cfg 50000 ./trial9/3070/tensile/trajectory/dumpten.tens_1_9_*.cfg mass type xs ys zs fx fy fz
dump_modify 2 element N20 N100

fix 1 all nvt temp ${T} ${T} 100
fix 1 all nvt temp 300 ${T} 100
fix 1 all nvt temp 300 300 100
fix 2 all deform 1 x erate ${strain_rate} y erate ${strain_rate} z erate ${strain_rate} units box
fix 2 all deform 1 x erate 5e-6 y erate ${strain_rate} z erate ${strain_rate} units box
fix 2 all deform 1 x erate 5e-6 y erate 5e-6 z erate ${strain_rate} units box
fix 2 all deform 1 x erate 5e-6 y erate 5e-6 z erate 5e-6 units box
fix             def1 all print ${ts_save} "${p1} ${p2} ${p3} ${p4}" file ./tensile/${trial}/tensile${N20}${N100}_${usic}_${trial}.txt screen no
fix             def1 all print 1000 "${p1} ${p2} ${p3} ${p4}" file ./tensile/${trial}/tensile${N20}${N100}_${usic}_${trial}.txt screen no
fix             def1 all print 1000 "${p1} ${p2} ${p3} ${p4}" file ./tensile/9/tensile${N20}${N100}_${usic}_${trial}.txt screen no
fix             def1 all print 1000 "${p1} ${p2} ${p3} ${p4}" file ./tensile/9/tensile30${N100}_${usic}_${trial}.txt screen no
fix             def1 all print 1000 "${p1} ${p2} ${p3} ${p4}" file ./tensile/9/tensile3070_${usic}_${trial}.txt screen no
fix             def1 all print 1000 "${p1} ${p2} ${p3} ${p4}" file ./tensile/9/tensile3070_1_${trial}.txt screen no
fix             def1 all print 1000 "${p1} ${p2} ${p3} ${p4}" file ./tensile/9/tensile3070_1_9.txt screen no

timestep       		${ts}
timestep       		0.1
run				${steps_tensile}
run				6000000
Generated 0 of 1 mixed pair_coeff terms from geometric mixing rule
Unused restart file global fix info:
  fix style: npt, fix ID: 5
Neighbor list info ...
  update every 1 steps, delay 0 steps, check no
  max neighbors/atom: 2000, page size: 100000
  master list distance cutoff = 113.78
  ghost atom cutoff = 113.78
  binsize = 56.89, bins = 13 13 13
  1 neighbor lists, perpetual/occasional/extra = 1 0 0
  (1) pair table/pgn, perpetual
      attributes: half, newton on
      pair build: half/bin/atomonly/newton
      stencil: half/bin/3d
      bin: standard
Per MPI rank memory allocation (min/avg/max) = 3.847 | 3.848 | 3.848 Mbytes
   Step          Temp           v_p1           v_p2           v_p3           v_p4          Press            Lx             Ly             Lz           Volume        Density         E_pair         PotEng         KinEng         TotEng          Pxx            Pyy            Pzz            Pxy            Pxz            Pyz           S/CPU     
         0   304.59258      1.6029278e-16  0.0014893731  -9.738079e-05   0.013603277   -49.3306        709.24493      709.24493      709.24493      3.5677032e+08  1.6848379     -39946506      -39946506       907.02469     -39945599      -14.698969      0.96107368    -134.2539       74.26088       27.615488     -12.143674      0            
      1000   355.69442      0.0005         0.0093331094   0.0079485453   0.021301804   -126.92971      709.59955      709.59955      709.59955      3.5730574e+08  1.6823131     -39946038      -39946038       1059.1972     -39944979      -92.110628     -78.446043     -210.23246      73.795646      27.358114     -11.639547      13304.734    
      2000   425.88262      0.001          0.016887999    0.015480384    0.028504852   -200.25737      709.95417      709.95417      709.95417      3.578417e+08   1.6797935     -39945159      -39945159       1268.2057     -39943891      -166.67159     -152.77951     -281.32101      73.210288      26.592087     -10.822862      13840.167    
      3000   479.13671      0.0015         0.024137364    0.02250531     0.035389637   -269.86532      710.3088       710.3088       710.3088       3.5837819e+08  1.6772788     -39943846      -39943846       1426.7873     -39942419      -238.21726     -222.11014     -349.26856      72.728333      25.45861      -9.9010991      14473.105    
      4000   506.79776      0.002          0.031133272    0.029557997    0.042298918   -338.81137      710.66342      710.66342      710.66342      3.5891522e+08  1.6747691     -39942063      -39942063       1509.1572     -39940554      -307.26151     -291.71475     -417.45786      71.530751      24.704221     -9.360246       14570.362    
      5000   512.34475      0.0025         0.038182042    0.03671179     0.049384496   -408.84391      711.01804      711.01804      711.01804      3.5945279e+08  1.6722645     -39939764      -39939764       1525.6752     -39938238      -376.82746     -362.3172      -487.38708      69.743849      25.133501     -9.2978681      14719.868    
      6000   504.30878      0.003          0.045250184    0.043818674    0.056413829   -478.60083      711.37266      711.37266      711.37266      3.5999089e+08  1.6697649     -39936922      -39936922       1501.7454     -39935420      -446.58459     -432.45669     -556.76121      68.60844       26.095642     -9.4231127      15033.082    
      7000   490.22648      0.0035         0.052088309    0.050785341    0.063191436   -546.31166      711.72729      711.72729      711.72729      3.6052953e+08  1.6672702     -39933541      -39933541       1459.8107     -39932081      -514.07164     -501.21235     -623.65098      67.258043      25.42205      -8.8544111      16796.196    
      8000   474.5259       0.004          0.058727668    0.05758666     0.069667671   -611.83321      712.08191      712.08191      712.08191      3.6106871e+08  1.6647805     -39929620      -39929620       1413.0571     -39928207      -579.59702     -568.33614     -687.56645      65.031629      23.315933     -7.7053263      17240.548    
      9000   459.57867      0.0045         0.06530538     0.064374235    0.076027396   -676.72345      712.43653      712.43653      712.43653      3.6160842e+08  1.6622957     -39925156      -39925156       1368.5468     -39923787      -644.51399     -635.3243      -750.33206      62.671168      22.048343     -7.5637352      17214.066    
     10000   446.59313      0.005          0.071838458    0.071070004    0.082454083   -741.38513      712.79115      712.79115      712.79115      3.6214868e+08  1.6598159     -39920151      -39920151       1329.8781     -39918821      -708.99046     -701.4064      -813.75853      61.709072      22.196034     -8.3813934      17242.96     
     11000   435.60298      0.0055         0.078296396    0.077515865    0.088761407   -804.58481      713.14578      713.14578      713.14578      3.6268947e+08  1.6573411     -39914614      -39914614       1297.1513     -39913316      -772.72534     -765.02211     -876.00698      61.870435      22.355427     -8.623381       17271.825    
     12000   426.42048      0.006          0.084579037    0.083666793    0.094812824   -865.39569      713.5004       713.5004       713.5004       3.6323079e+08  1.6548711     -39908565      -39908565       1269.8074     -39907295      -834.73019     -825.72705     -935.72982      61.588421      21.850918     -7.7789248      17293.96     
     13000   418.47203      0.0065         0.09069209     0.089680003    0.10082053    -925.0518       713.85502      713.85502      713.85502      3.6377266e+08  1.6524061     -39902024      -39902024       1246.1383     -39900778      -895.06133     -885.07282     -995.02126      60.000638      20.880504     -6.4698225      17158.889    
     14000   411.28762      0.007          0.096682507    0.095672294    0.10678957    -984.10846      714.20964      714.20964      714.20964      3.6431506e+08  1.6499459     -39894997      -39894997       1224.7443     -39893772      -954.18216     -944.21213     -1053.9311      58.130048      20.380824     -6.2483815      17247.365    
     15000   405.0396       0.0075         0.1024923      0.1016091      0.11250272    -1041.5466      714.56426      714.56426      714.56426      3.6485801e+08  1.6474906     -39887491      -39887491       1206.1388     -39886285      -1011.5204     -1002.8038     -1110.3156      57.313367      20.313113     -6.9271082      17211.299    
     16000   400.20153      0.008          0.10812221     0.10738534     0.11789118    -1096.7965      714.91889      714.91889      714.91889      3.6540149e+08  1.6450402     -39879521      -39879521       1191.7318     -39878330      -1067.0833     -1059.8109     -1163.4955      56.901853      19.982463     -6.8067185      17332.136    
     17000   396.84875      0.0085         0.11366458     0.11299723     0.12320214    -1150.9629      715.27351      715.27351      715.27351      3.6594551e+08  1.6425947     -39871099      -39871099       1181.7478     -39869918      -1121.7822     -1115.196      -1215.9106      55.451304      19.776824     -5.652384       17142.976    
     18000   394.54631      0.009          0.11913089     0.11857724     0.12858888    -1205.0235      715.62813      715.62813      715.62813      3.6649007e+08  1.640154      -39862232      -39862232       1174.8915     -39861057      -1175.7305     -1170.2663     -1269.0736      52.893886      19.338071     -4.5558044      17319.998    
     19000   392.71675      0.0095         0.12466378     0.12422901     0.1341279     -1260.0401      715.98275      715.98275      715.98275      3.6703517e+08  1.6377181     -39852917      -39852917       1169.4434     -39851747      -1230.3358     -1226.045      -1323.7395      51.134466      18.317802     -4.3846348      17231.105    
     20000   391.19731      0.01           0.13015448     0.12973913     0.13941648    -1313.6281      716.33738      716.33738      716.33738      3.6758082e+08  1.635287      -39843161      -39843161       1164.9188     -39841996      -1284.5248     -1280.4257     -1375.9336      51.505466      17.553701     -4.9178695      17254.917    
     21000   390.40988      0.0105         0.13541991     0.13491338     0.14423654    -1363.8287      716.692        716.692        716.692        3.68127e+08    1.6328608     -39832986      -39832986       1162.574      -39831824      -1336.4906     -1331.4916     -1423.504       51.875938      17.100983     -4.8628113      17253.954    
     22000   390.08365      0.011          0.14045462     0.13976147     0.1489979     -1412.0042      717.04662      717.04662      717.04662      3.6867372e+08  1.6304394     -39822414      -39822414       1161.6025     -39821253      -1386.1793     -1379.3384     -1470.495       51.16859       16.445351     -4.2774199      17247.657    
     23000   389.61391      0.0115         0.14517721     0.14445194     0.15382858    -1458.8625      717.40124      717.40124      717.40124      3.6922099e+08  1.6280227     -39811450      -39811450       1160.2037     -39810290      -1432.7876     -1425.6298     -1518.1701      50.198248      16.461846     -3.8277749      17152.182    
     24000   389.25099      0.012          0.14969175     0.14918141     0.15849201    -1504.6144      717.75587      717.75587      717.75587      3.6976879e+08  1.6256108     -39800102      -39800102       1159.123      -39798943      -1477.3427     -1472.306      -1564.1945      49.063396      16.796736     -3.4131302      17388.43     
     25000   389.51711      0.0125         0.15422777     0.15400804     0.1630911     -1550.545       718.11049      718.11049      718.11049      3.7031714e+08  1.6232037     -39788380      -39788380       1159.9154     -39787221      -1522.1098     -1519.9411     -1609.584       47.404419      16.280165     -2.7532213      17321.308    
     26000   390.2678       0.013          0.15893376     0.15882551     0.16762247    -1596.7818      718.46511      718.46511      718.46511      3.7086603e+08  1.6208013     -39776284      -39776284       1162.1509     -39775122      -1568.5543     -1567.4859     -1654.3051      46.245287      15.907498     -1.5653599      17416.853    
     27000   391.33283      0.0135         0.16361189     0.1634818      0.17184027    -1641.3651      718.81973      718.81973      718.81973      3.7141546e+08  1.6184037     -39763815      -39763815       1165.3223     -39762650      -1614.7238     -1613.4399     -1695.9316      45.826437      15.940024     -0.7395731      17303.486    
     28000   392.50675      0.014          0.16795239     0.16794627     0.17602557    -1684.0998      719.17436      719.17436      719.17436      3.7196543e+08  1.6160108     -39750983      -39750983       1168.8181     -39749815      -1657.5612     -1657.5008     -1737.2373      45.078223      15.227985     -0.78203416     17446.001    
     29000   393.47258      0.0145         0.17212796     0.17216522     0.18024029    -1725.581       719.52898      719.52898      719.52898      3.7251595e+08  1.6136226     -39737803      -39737803       1171.6941     -39736631      -1698.7709     -1699.1386     -1778.8334      44.427072      14.675023     -1.1160171      17090.943    
     30000   394.56588      0.015          0.17636325     0.17621288     0.18421738    -1765.9133      719.8836       719.8836       719.8836       3.7306701e+08  1.6112391     -39724285      -39724285       1174.9498     -39723110      -1740.57       -1739.0859     -1818.0842      43.67217       14.798538     -1.4010563      17192.467    
     31000   395.95165      0.0155         0.18060112     0.18032298     0.18805777    -1806.0099      720.23822      720.23822      720.23822      3.7361861e+08  1.6088603     -39710434      -39710434       1179.0764     -39709255      -1782.3945     -1779.6494     -1855.9858      42.525168      15.455994     -0.39940396     17442.407    
     32000   397.5744       0.016          0.184722       0.18437093     0.19197415    -1845.7672      720.59285      720.59285      720.59285      3.7417075e+08  1.6064862     -39696260      -39696260       1183.9087     -39695076      -1823.0644     -1819.5996     -1894.6375      41.703224      15.35005       0.45100602     17299.573    
     33000   399.32593      0.0165         0.18859694     0.18822404     0.19580058    -1883.7785      720.94747      720.94747      720.94747      3.7472344e+08  1.6041167     -39681775      -39681775       1189.1244     -39680585      -1861.3071     -1857.6268     -1932.4015      41.202466      14.254018      0.40556249     17436.373    
     34000   401.17573      0.017          0.19219552     0.19184424     0.19929877    -1919.0345      721.30209      721.30209      721.30209      3.7527668e+08  1.6017519     -39666986      -39666986       1194.6328     -39665791      -1896.8223     -1893.3554     -1966.9259      40.050043      13.778658      0.173192       17444.285    
     35000   402.92586      0.0175         0.19577375     0.19538205     0.20273634    -1953.7532      721.65671      721.65671      721.65671      3.7583046e+08  1.5993918     -39651897      -39651897       1199.8444     -39650698      -1932.1367     -1928.271      -2000.8521      38.117304      14.065792      0.2656956      17231.657    
     36000   404.45732      0.018          0.1993807      0.19906928     0.20628836    -1989.4345      722.01134      722.01134      722.01134      3.7638478e+08  1.5970363     -39636519      -39636519       1204.4048     -39635315      -1967.7345     -1964.6611     -2035.9078      36.34085       14.02418       0.29103268     17430.487    
     37000   406.11307      0.0185         0.20295448     0.20280205     0.20979651    -2025.012       722.36596      722.36596      722.36596      3.7693964e+08  1.5946854     -39620848      -39620848       1209.3354     -39619638      -2003.005      -2001.5006     -2070.5306      35.045898      12.900414     -0.12618218     17270.048    
     38000   407.9308       0.019          0.20657709     0.20629988     0.21306705    -2059.1957      722.72058      722.72058      722.72058      3.7749506e+08  1.5923391     -39604883      -39604883       1214.7483     -39603668      -2038.7574     -2036.0215     -2102.8083      34.389526      12.105168     -0.069961104    17448.807    
     39000   409.76596      0.0195         0.21005029     0.20961499     0.21615808    -2091.6962      723.0752       723.0752       723.0752       3.7805101e+08  1.5899974     -39588640      -39588640       1220.2131     -39587420      -2073.0352     -2068.7391     -2133.3144      34.336038      12.709786      0.63560125     17249.609    
     40000   411.5219       0.02           0.21323519     0.21282644     0.21922099    -2122.8148      723.42983      723.42983      723.42983      3.7860752e+08  1.5876604     -39572132      -39572132       1225.4419     -39570907      -2104.4677     -2100.4337     -2163.543       33.662196      12.7764        0.94766832     17197.674    
     41000   413.24718      0.0205         0.21627409     0.2158804      0.22216511    -2152.5441      723.78445      723.78445      723.78445      3.7916456e+08  1.5853278     -39555365      -39555365       1230.5795     -39554134      -2134.4593     -2130.5739     -2192.5992      32.827468      11.50351       0.9143532      17434.117    
     42000   414.99938      0.021          0.21918827     0.21892435     0.22503651    -2181.591       724.13907      724.13907      724.13907      3.7972216e+08  1.5829999     -39538342      -39538342       1235.7973     -39537106      -2163.2201     -2160.6154     -2220.9376      31.866896      10.818338      1.4319394      17496.629    
     43000   416.61275      0.0215         0.22199128     0.22186888     0.22797043    -2210.1508      724.49369      724.49369      724.49369      3.802803e+08   1.5806765     -39521076      -39521076       1240.6016     -39519836      -2190.8836     -2189.6756     -2249.8932      30.674343      11.989321      2.811273       17294.848    
     44000   417.86188      0.022          0.22487866     0.22468658     0.23079427    -2238.2088      724.84832      724.84832      724.84832      3.8083899e+08  1.5783577     -39503572      -39503572       1244.3213     -39502327      -2219.3798     -2217.4842     -2277.7624      29.258532      13.360245      4.0022428      17517.625    
     45000   418.87283      0.0225         0.22780209     0.2274137      0.23333251    -2265.1478      725.20294      725.20294      725.20294      3.8139822e+08  1.5760434     -39485835      -39485835       1247.3318     -39484588      -2248.2318     -2244.3987     -2302.8128      27.89328       13.797639      4.4487923      17268.482    
     46000   420.12601      0.023          0.23054989     0.23008904     0.23570935    -2290.8077      725.55756      725.55756      725.55756      3.8195801e+08  1.5737336     -39467874      -39467874       1251.0635     -39466623      -2275.3505     -2270.8023     -2326.2704      26.444423      13.354181      4.2699884      17472.733    
     47000   421.79786      0.0235         0.2331019      0.23279871     0.23822566    -2316.3953      725.91218      725.91218      725.91218      3.8251834e+08  1.5714283     -39449689      -39449689       1256.042      -39448433      -2300.5369     -2297.5447     -2351.1045      25.503356      12.017429      3.6534383      17288.27     
     48000   423.72903      0.024          0.23555795     0.235476       0.24075967    -2341.619       726.26681      726.26681      726.26681      3.8307921e+08  1.5691275     -39431287      -39431287       1261.7927     -39430025      -2324.7762     -2323.9675     -2376.1132      25.204697      10.717         2.9404918      17438.65     
     49000   425.80555      0.0245         0.23808927     0.23789073     0.24306576    -2365.4767      726.62143      726.62143      726.62143      3.8364064e+08  1.5668313     -39412681      -39412681       1267.9762     -39411413      -2349.7584     -2347.799      -2398.8726      24.76999       10.342579      2.5430711      17281.71     
     50000   427.33425      0.025          0.24061097     0.24004856     0.24525621    -2388.0771      726.97605      726.97605      726.97605      3.8420261e+08  1.5645395     -39393875      -39393875       1272.5284     -39392602      -2374.6456     -2369.0951     -2420.4906      23.86661       10.581466      2.8294483      16733.535    
     51000   428.20731      0.0255         0.24284527     0.24220447     0.2472766     -2409.1664      727.33067      727.33067      727.33067      3.8476513e+08  1.5622521     -39374865      -39374865       1275.1283     -39373589      -2396.6965     -2390.3723     -2440.4303      22.377857      10.353785      3.5263779      17232.255    
     52000   429.02018      0.026          0.24479199     0.24439513     0.24920652    -2429.1262      727.6853       727.6853       727.6853       3.853282e+08   1.5599692     -39355666      -39355666       1277.5488     -39354388      -2415.9091     -2411.9924     -2459.4772      20.885707      10.454372      3.9946034      17418.642    
     53000   429.86789      0.0265         0.24676377     0.24653456     0.25127665    -2449.4612      728.03992      728.03992      728.03992      3.8589182e+08  1.5576908     -39336287      -39336287       1280.0732     -39335007      -2435.3691     -2433.1069     -2479.9077      19.861025      10.464247      4.5905529      16424.803    
     54000   431.04051      0.027          0.24883854     0.24855343     0.25329608    -2469.5717      728.39454      728.39454      728.39454      3.8645599e+08  1.5554168     -39316741      -39316741       1283.565      -39315457      -2455.8455     -2453.0316     -2499.838       19.02846       10.237294      5.5704197      17346.502    
     55000   432.84997      0.0275         0.25093797     0.25056716     0.25522809    -2489.4588      728.74916      728.74916      728.74916      3.8702071e+08  1.5531472     -39297027      -39297027       1288.9533     -39295738      -2476.5652     -2472.9056     -2518.9054      17.468206      10.649369      5.7541798      17422.441    
     56000   434.14154      0.028          0.25288223     0.25256776     0.25707392    -2508.5086      729.10379      729.10379      729.10379      3.8758598e+08  1.5508821     -39277137      -39277137       1292.7994     -39275844      -2495.7536     -2492.6499     -2537.1223      16.166588      11.060476      5.1494115      17368.18     
     57000   434.69075      0.0285         0.25454817     0.25434228     0.25870239    -2525.1841      729.45841      729.45841      729.45841      3.881518e+08   1.5486213     -39257075      -39257075       1294.4348     -39255781      -2512.1951     -2510.1631     -2553.1941      15.928926      10.783297      4.1604243      17245.089    
     58000   435.35317      0.029          0.25602524     0.25594685     0.26017798    -2540.1762      729.81303      729.81303      729.81303      3.8871817e+08  1.5463649     -39236863      -39236863       1296.4074     -39235567      -2526.7726     -2525.999      -2567.757       15.355357      9.812015       3.6630709      17475.767    
     59000   436.49096      0.0295         0.25756467     0.25747657     0.26169171    -2555.2527      730.16765      730.16765      730.16765      3.8928509e+08  1.5441129     -39216512      -39216512       1299.7956     -39215213      -2541.9657     -2541.0962     -2582.6964      14.217984      7.925921       4.2612545      17305.812    
     60000   437.61213      0.03           0.25924506     0.25906987     0.2632785     -2571.2425      730.52228      730.52228      730.52228      3.8985256e+08  1.5418653     -39196018      -39196018       1303.1342     -39194715      -2558.5499     -2556.8209     -2598.3568      12.631821      6.3556729      4.8852125      17350.263    
     61000   438.17851      0.0305         0.26090121     0.26081613     0.26481781    -2587.4995      730.8769       730.8769       730.8769       3.9042058e+08  1.5396221     -39175377      -39175377       1304.8208     -39174072      -2574.8948     -2574.055      -2613.5486      11.260519      6.9168308      5.4232283      17361.542    
     62000   438.65104      0.031          0.26234641     0.26240175     0.26613639    -2601.8079      731.23152      731.23152      731.23152      3.9098916e+08  1.5373832     -39154605      -39154605       1306.2279     -39153299      -2589.1578     -2589.7039     -2626.562       10.648841      8.9972482      5.7498184      17456.911    
     63000   439.36802      0.0315         0.26358146     0.26367041     0.26720689    -2613.5661      731.58614      731.58614      731.58614      3.9155828e+08  1.5351486     -39133712      -39133712       1308.3629     -39132404      -2601.3467     -2602.2246     -2637.127       10.56983       10.072953      5.6709675      17365.379    
     64000   440.01942      0.032          0.26477542     0.26481001     0.26817851    -2624.4393      731.94077      731.94077      731.94077      3.9212796e+08  1.5329184     -39112699      -39112699       1310.3027     -39111389      -2613.1303     -2613.4716     -2646.7161      9.9816659      9.0918215      5.889515       17338.977    
     65000   440.35931      0.0325         0.26595688     0.26586486     0.26927881    -2635.4159      732.29539      732.29539      732.29539      3.9269819e+08  1.5306924     -39091573      -39091573       1311.3148     -39090262      -2624.7903     -2623.8822     -2657.5753      8.6044562      7.0202561      6.3805131      17501.131    
     66000   440.54739      0.033          0.26707881     0.26691978     0.27053912    -2646.7233      732.65001      732.65001      732.65001      3.9326897e+08  1.5284708     -39070332      -39070332       1311.8749     -39069020      -2635.8629     -2634.2934     -2670.0135      6.7271217      5.3809338      7.051855       17364.037    
     67000   440.73909      0.0335         0.26814214     0.26806949     0.27161192    -2657.5329      733.00463      733.00463      733.00463      3.938403e+08   1.5262535     -39048984      -39048984       1312.4457     -39047672      -2646.3571     -2645.6402     -2680.6013      4.4956397      5.6210276      7.8052595      17498.149    
     68000   441.17275      0.034          0.26903704     0.26921593     0.27241739    -2666.8981      733.35926      733.35926      733.35926      3.9441219e+08  1.5240405     -39027543      -39027543       1313.7371     -39026229      -2655.1892     -2656.9546     -2688.5506      3.1455917      6.8862724      7.4676585      17385.803    
     69000   441.86582      0.0345         0.26977404     0.27012429     0.27307624    -2674.4784      733.71388      733.71388      733.71388      3.9498463e+08  1.5218317     -39006021      -39006021       1315.801      -39004705      -2662.4627     -2665.9195     -2695.053       3.5509036      7.4209251      6.2526636      17487.138    
     70000   442.69532      0.035          0.27054757     0.2708891      0.27368954    -2681.5567      734.0685       734.0685       734.0685       3.9555763e+08  1.5196272     -38984415      -38984415       1318.2711     -38983097      -2670.097      -2673.4675     -2701.1058      4.5693507      6.9171855      5.3220851      17361.186    
     71000   443.14835      0.0355         0.27146503     0.27159329     0.27446456    -2689.4412      734.42312      734.42312      734.42312      3.9613118e+08  1.517427      -38962720      -38962720       1319.6201     -38961400      -2679.1515     -2680.4174     -2708.7546      4.7507602      6.3689832      5.6419784      17379.21     
     72000   443.16274      0.036          0.27236639     0.27242896     0.27522649    -2697.6621      734.77775      734.77775      734.77775      3.9670528e+08  1.515231      -38940935      -38940935       1319.663      -38939615      -2688.0473     -2688.6648     -2716.2743      3.9251382      5.9213039      6.5690624      17509.485    
     73000   443.01298      0.0365         0.27306988     0.27339106     0.27584844    -2705.1875      735.13237      735.13237      735.13237      3.9727994e+08  1.5130393     -38919071      -38919071       1319.217      -38917752      -2694.9902     -2698.16       -2722.4125      2.4636696      5.5928702      6.7791235      17380.49     
     74000   442.90714      0.037          0.27353622     0.27412996     0.27639553    -2710.9522      735.48699      735.48699      735.48699      3.9785515e+08  1.5108517     -38897137      -38897137       1318.9018     -38895818      -2699.5926     -2705.4523     -2727.8118      0.97483642     5.4432938      6.5188673      17330.078    
     75000   442.74654      0.0375         0.27393338     0.27448905     0.27683645    -2714.8906      735.84161      735.84161      735.84161      3.9843092e+08  1.5086684     -38875143      -38875143       1318.4236     -38873825      -2703.5123     -2708.9963     -2732.1634     -0.79499492     5.683427       6.3675823      17387.347    
     76000   442.74073      0.038          0.27428548     0.27471311     0.27699724    -2717.315       736.19624      736.19624      736.19624      3.9900724e+08  1.5064893     -38853102      -38853102       1318.4063     -38851784      -2706.9872     -2711.2076     -2733.7502     -2.6313705      5.3923443      5.9889821      17345.619    
     77000   443.05154      0.0385         0.27458305     0.27502385     0.27710945    -2719.6853      736.55086      736.55086      736.55086      3.9958412e+08  1.5043144     -38831016      -38831016       1319.3318     -38829696      -2709.924      -2714.2744     -2734.8576     -3.7670524      4.0320139      5.3368134      17390.99     
     78000   443.17372      0.039          0.27488386     0.27534837     0.27740295    -2722.708       736.90548      736.90548      736.90548      4.0016155e+08  1.5021437     -38808885      -38808885       1319.6957     -38807565      -2712.8928     -2717.4771     -2737.7542     -3.9077098      2.7317886      4.985315       17524.486    
     79000   442.90252      0.0395         0.27520338     0.27558336     0.27767173    -2725.4165      737.2601       737.2601       737.2601       4.0073954e+08  1.4999771     -38786710      -38786710       1318.8881     -38785391      -2716.0462     -2719.7963     -2740.4069     -3.9548231      2.2582983      5.1956127      17340.301    
     80000   442.58465      0.04           0.27552056     0.27581838     0.27785072    -2727.8219      737.61473      737.61473      737.61473      4.0131809e+08  1.4978147     -38764495      -38764495       1317.9415     -38763178      -2719.1765     -2722.1157     -2742.1734     -4.9740385      3.2320131      5.3855522      17538.708    
     81000   442.15639      0.0405         0.27567506     0.27606175     0.27804587    -2729.7727      737.96935      737.96935      737.96935      4.0189719e+08  1.4956565     -38742246      -38742246       1316.6662     -38740929      -2720.7013     -2724.5176     -2744.0993     -6.1073356      5.1558642      4.9635121      17364.685    
     82000   441.71647      0.041          0.27560673     0.27620103     0.27804427    -2730.0009      738.32397      738.32397      738.32397      4.0247685e+08  1.4935024     -38719968      -38719968       1315.3562     -38718653      -2720.0269     -2725.8922     -2744.0836     -6.2716509      5.4874031      5.0105152      17521.46     
     83000   441.70268      0.0415         0.27550902     0.27622252     0.27778145    -2728.8856      738.67859      738.67859      738.67859      4.0305707e+08  1.4913525     -38697671      -38697671       1315.3152     -38696356      -2719.0626     -2726.1043     -2741.4898     -5.5667012      3.4097485      5.7309326      17189.416    
     84000   441.75814      0.042          0.2754267      0.27611964     0.27760262    -2727.688       739.03321      739.03321      739.03321      4.0363784e+08  1.4892066     -38675356      -38675356       1315.4803     -38674041      -2718.2502     -2725.089      -2739.7248     -4.7469531      1.5191385      5.7455584      17462.724    
     85000   441.49106      0.0425         0.2753484      0.27582357     0.27751833    -2726.1791      739.38784      739.38784      739.38784      4.0421917e+08  1.4870649     -38653027      -38653027       1314.685      -38651712      -2717.4774     -2722.167      -2738.893      -5.0696125      1.5019229      4.9855927      17329.296    
     86000   441.1872       0.043          0.27529938     0.27546435     0.27732235    -2724.1914      739.74246      739.74246      739.74246      4.0480106e+08  1.4849273     -38630695      -38630695       1313.7801     -38629382      -2716.9937     -2718.6218     -2736.9588     -7.1405618      2.4411781      4.6675926      17380.304    
     87000   440.75333      0.0435         0.27521473     0.27522081     0.27706285    -2722.258       740.09708      740.09708      740.09708      4.0538351e+08  1.4827938     -38608365      -38608365       1312.4882     -38607053      -2716.1582     -2716.2182     -2734.3977     -9.1074316      2.9938801      4.7961424      17496.468    
     88000   439.98053      0.044          0.27489797     0.27502281     0.27666139    -2719.2439      740.4517       740.4517       740.4517       4.0596651e+08  1.4806644     -38586035      -38586035       1310.1869     -38584725      -2713.032      -2714.2641     -2730.4356     -9.5209229      2.9555964      4.772118       17378.196    
     89000   439.08892      0.0445         0.27439465     0.27482063     0.27614157    -2715.2129      740.80633      740.80633      740.80633      4.0655008e+08  1.478539      -38563709      -38563709       1307.5318     -38562401      -2708.0647     -2712.2687     -2725.3054     -9.0013039      2.0795965      4.7077087      17508.189    
     90000   438.28152      0.045          0.27397188     0.27455138     0.27566055    -2711.3539      741.16095      741.16095      741.16095      4.071342e+08   1.4764177     -38541388      -38541388       1305.1275     -38540083      -2703.8923     -2709.6114     -2720.5581     -8.4793576      0.73357519     4.524683       17384.707    
     91000   437.52565      0.0455         0.27357843     0.27410069     0.27519545    -2707.0469      741.51557      741.51557      741.51557      4.0771888e+08  1.4743005     -38519074      -38519074       1302.8767     -38517771      -2700.0092     -2705.1635     -2715.9679     -8.2647892      1.0987206      4.268115       17380.901    
     92000   437.05697      0.046          0.2730912      0.2734601      0.27461       -2701.4107      741.87019      741.87019      741.87019      4.0830413e+08  1.4721873     -38496784      -38496784       1301.481      -38495482      -2695.2006     -2698.8414     -2710.19       -8.7122564      2.4320212      3.9177004      17253.518    
     93000   436.75086      0.0465         0.27250082     0.27272356     0.27389363    -2694.6887      742.22482      742.22482      742.22482      4.0888993e+08  1.4700781     -38474533      -38474533       1300.5695     -38473232      -2689.374      -2691.5722     -2703.12       -9.5882213      2.9613488      3.3198148      17471.872    
     94000   436.10693      0.047          0.27189461     0.27204816     0.27312887    -2687.9567      742.57944      742.57944      742.57944      4.0947629e+08  1.467973      -38452315      -38452315       1298.652      -38451016      -2683.3912     -2684.9066     -2695.5724     -10.977411      2.7093382      2.8803323      17379.413    
     95000   435.00499      0.0475         0.27132617     0.27141251     0.27237188    -2681.5053      742.93406      742.93406      742.93406      4.1006321e+08  1.4658719     -38430120      -38430120       1295.3706     -38428824      -2677.7811     -2678.6333     -2688.1015     -11.965578      2.1576548      2.8887591      17495.252    
     96000   433.67322      0.048          0.27061776     0.27072257     0.27164082    -2674.5         743.28868      743.28868      743.28868      4.106507e+08   1.4637748     -38407954      -38407954       1291.4048     -38406663      -2670.7897     -2671.824      -2680.8864     -12.20968       1.6816675      3.2086102      17518.067    
     97000   432.68688      0.0485         0.26976299     0.26989778     0.27083931    -2666.338       743.64331      743.64331      743.64331      4.1123874e+08  1.4616817     -38385836      -38385836       1288.4676     -38384548      -2662.3537     -2663.684      -2672.9762     -12.076285      1.6891418      3.2462391      17382.502    
     98000   432.24677      0.049          0.26903416     0.2691191      0.2700166     -2658.6721      743.99793      743.99793      743.99793      4.1182735e+08  1.4595926     -38363774      -38363774       1287.1571     -38362486      -2655.1607     -2655.9991     -2664.8566     -11.56959       1.7940815      3.1998286      17516.613    
     99000   431.49858      0.0495         0.26841158     0.26841851     0.26918461    -2651.5822      744.35255      744.35255      744.35255      4.1241651e+08  1.4575075     -38341750      -38341750       1284.9291     -38340465      -2649.0163     -2649.0847     -2656.6455     -11.183146      1.9277306      3.7370196      17372.326    
    100000   430.11467      0.05           0.26751268     0.26750125     0.26821245    -2642.4093      744.70717      744.70717      744.70717      4.1300624e+08  1.4554263     -38319763      -38319763       1280.808      -38318482      -2640.1449     -2640.032      -2647.0511     -10.903948      1.8597576      4.4916289      16987.101    
    101000   428.76213      0.0505         0.26630343     0.26647251     0.26709723    -2631.3781      745.0618       745.0618       745.0618       4.1359653e+08  1.4533491     -38297831      -38297831       1276.7804     -38296554      -2628.2105     -2629.8792     -2636.0447     -10.751165      1.9143293      4.4090944      17546.962    
    102000   427.26224      0.051          0.26513107     0.2654189      0.26599131    -2620.417       745.41642      745.41642      745.41642      4.1418738e+08  1.4512758     -38275968      -38275968       1272.314      -38274696      -2616.6402     -2619.4808     -2625.1301     -11.356501      1.9469189      2.6949929      17325.019    
    103000   425.74603      0.0515         0.26400642     0.26413492     0.26476642    -2608.4637      745.77104      745.77104      745.77104      4.147788e+08   1.4492065     -38254178      -38254178       1267.799      -38252910      -2605.5408     -2606.8089     -2613.0414     -12.195172      1.2206134      0.69000913     17356.48     
    104000   424.84795      0.052          0.26296675     0.26282316     0.263591      -2596.8613      746.12566      746.12566      746.12566      4.1537077e+08  1.4471412     -38232471      -38232471       1265.1246     -38231206      -2595.28       -2593.8629     -2601.4409     -13.453267      0.93698107     0.67705196     17374.738    
    105000   424.00333      0.0525         0.26213037     0.26173552     0.26266283    -2587.4783      746.48029      746.48029      746.48029      4.1596331e+08  1.4450797     -38210839      -38210839       1262.6095     -38209577      -2587.0257     -2583.1287     -2592.2806     -14.520306      1.8172255      2.3159567      17362.765    
    106000   422.84736      0.053          0.26117171     0.26075937     0.26166613    -2577.8344      746.83491      746.83491      746.83491      4.1655642e+08  1.4430222     -38189259      -38189259       1259.1672     -38188000      -2577.5644     -2573.4949     -2582.4439     -13.694736      2.8080569      3.1219521      17531.416    
    107000   421.87145      0.0535         0.25992348     0.25960744     0.26038089    -2565.7104      747.18953      747.18953      747.18953      4.1715008e+08  1.4409685     -38167748      -38167748       1256.2611     -38166492      -2565.2453     -2562.1263     -2569.7596     -11.17201       2.3963058      2.2067948      17386.953    
    108000   420.78264      0.054          0.25874292     0.25831102     0.259033      -2553.1275      747.54415      747.54415      747.54415      4.1774432e+08  1.4389188     -38146316      -38146316       1253.0189     -38145063      -2553.5941     -2549.3315     -2556.457      -9.5161955      1.5687733      0.52505661     17501.66     
    109000   418.89322      0.0545         0.25758932     0.25699856     0.25776201    -2540.8336      747.89878      747.89878      747.89878      4.1833911e+08  1.4368729     -38124960      -38124960       1247.3925     -38123713      -2542.209      -2536.3786     -2543.9133     -10.223254      1.5514877     -0.29044035     17381.313    
    110000   416.79176      0.055          0.25611549     0.25551678     0.25642469    -2526.7109      748.2534       748.2534       748.2534       4.1893447e+08  1.434831      -38103693      -38103693       1241.1347     -38102452      -2527.6634     -2521.7545     -2530.7149     -12.227131      2.5385816     -0.093773191    17465.224    
    111000   415.25379      0.0555         0.25453933     0.2539526      0.25500696    -2511.7161      748.60802      748.60802      748.60802      4.1953039e+08  1.4327928     -38082531      -38082531       1236.5549     -38081294      -2512.1079     -2506.3173     -2516.723      -13.838435      4.0373861      0.05755187     17499.089    
    112000   414.06309      0.056          0.25313258     0.25258391     0.2535135     -2497.6725      748.96264      748.96264      748.96264      4.2012688e+08  1.4307586     -38061478      -38061478       1233.0092     -38060245      -2498.2243     -2492.8094     -2501.9837     -14.159386      4.7175518     -0.10394284     17476.62     
    113000   413.14924      0.0565         0.25188435     0.25135333     0.25193073    -2484.3109      749.31727      749.31727      749.31727      4.2072394e+08  1.4287282     -38040516      -38040516       1230.2879     -38039286      -2485.9053     -2480.6645     -2486.363      -14.008845      4.0669937     -0.40672666     17472.463    
    114000   412.40115      0.057          0.25073946     0.25005123     0.25048092    -2471.4915      749.67189      749.67189      749.67189      4.2132155e+08  1.4267016     -38019639      -38019639       1228.0602     -38018411      -2474.6061     -2467.8138     -2472.0545     -13.537431      2.781001      -0.66861535     17257.939    
    115000   411.53484      0.0575         0.24950732     0.24860604     0.24917065    -2458.3733      750.02651      750.02651      750.02651      4.2191974e+08  1.4246789     -37998855      -37998855       1225.4805     -37997630      -2462.4458     -2453.5509     -2459.1231     -13.027541      2.1517918     -1.2316212      17465.2      
    116000   410.23279      0.058          0.24804969     0.24712086     0.24781733    -2444.2401      750.38113      750.38113      750.38113      4.2251849e+08  1.42266       -37978175      -37978175       1221.6032     -37976954      -2448.0601     -2438.8932     -2445.7669     -13.14355       2.0184769     -3.0268962      17551.596    
    117000   408.54529      0.0585         0.24634644     0.2455662      0.24625409    -2428.3798      750.73576      750.73576      750.73576      4.2311781e+08  1.4206449     -37957598      -37957598       1216.5781     -37956382      -2431.2503     -2423.55       -2430.3389     -13.689449      2.0690929     -4.4163521      17549.799    
    118000   406.93442      0.059          0.24456812     0.24391126     0.24462307    -2411.7195      751.09038      751.09038      751.09038      4.2371769e+08  1.4186336     -37937130      -37937130       1211.7812     -37935918      -2413.6997     -2407.217      -2414.2419     -13.565862      2.4174735     -3.9336079      17502.033    
    119000   405.72044      0.0595         0.24302826     0.24225215     0.24317212    -2396.4225      751.445        751.445        751.445        4.2431814e+08  1.4166261     -37916771      -37916771       1208.1662     -37915563      -2398.5024     -2390.8429     -2399.9222     -12.981257      2.1633489     -2.9765476      17475.533    
    120000   404.33346      0.06           0.24168559     0.24063465     0.24173324    -2381.9508      751.79962      751.79962      751.79962      4.2491916e+08  1.4146224     -37896523      -37896523       1204.036      -37895319      -2385.2513     -2374.8793     -2385.7216     -13.164586      1.605239      -3.2054624      17518.71     
    121000   402.85473      0.0605         0.24034121     0.23903472     0.24001635    -2366.6166      752.15425      752.15425      752.15425      4.2552074e+08  1.4126224     -37876387      -37876387       1199.6326     -37875187      -2371.9833     -2359.0893     -2368.7772     -13.419455      2.0173012     -3.8742412      17467.627    
    122000   401.41904      0.061          0.2389197      0.23752758     0.23825343    -2351.1825      752.50887      752.50887      752.50887      4.2612289e+08  1.4106263     -37856366      -37856366       1195.3573     -37855170      -2357.9541     -2344.215      -2351.3785     -13.283721      3.1927325     -3.7588912      17528.87     
    123000   399.77988      0.0615         0.23739494     0.23604597     0.23657945    -2335.7854      752.86349      752.86349      752.86349      4.2672561e+08  1.4086339     -37836447      -37836447       1190.4762     -37835257      -2342.9059     -2329.5926     -2334.8576     -12.96417       3.2791645     -3.4818825      17414.034    
    124000   398.12876      0.062          0.23581248     0.23444634     0.2349735     -2320.0339      753.21811      753.21811      753.21811      4.273289e+08   1.4066452     -37816631      -37816631       1185.5595     -37815445      -2327.2882     -2313.8054     -2319.0081     -12.484294      2.3739924     -4.0757209      17540.761    
    125000   396.6421       0.0625         0.23414523     0.23272081     0.23341464    -2303.7443      753.57274      753.57274      753.57274      4.2793276e+08  1.4046603     -37796936      -37796936       1181.1325     -37795755      -2310.8337     -2296.7758     -2303.6234     -12.171967      1.635084      -5.5856454      17466.353    
    126000   394.93738      0.063          0.23239954     0.23094995     0.23181304    -2286.9069      753.92736      753.92736      753.92736      4.2853718e+08  1.4026791     -37777372      -37777372       1176.0561     -37776196      -2293.6052     -2279.2988     -2287.8168     -12.855709      0.70212914    -6.7616077      17538.407    
    127000   392.92916      0.0635         0.23064726     0.22913933     0.23013056    -2269.651       754.28198      754.28198      754.28198      4.2914218e+08  1.4007016     -37757931      -37757931       1170.076      -37756760      -2276.3115     -2261.4294     -2271.2121     -13.766949      0.16144987    -6.9596082      17348.087    
    128000   391.20492      0.064          0.228975       0.22739015     0.22838845    -2252.6642      754.6366       754.6366       754.6366       4.2974774e+08  1.3987279     -37738606      -37738606       1164.9415     -37737441      -2259.8076     -2244.1663     -2254.0188     -14.129878      0.67956613    -6.184624       17535.048    
    129000   390.15779      0.0645         0.22743619     0.22580245     0.2266752     -2236.7426      754.99123      754.99123      754.99123      4.3035387e+08  1.3967578     -37719397      -37719397       1161.8233     -37718236      -2244.6207     -2228.4969     -2237.1103     -13.245696      1.5903164     -5.4508568      17449.189    
    130000   389.39091      0.065          0.22597957     0.22426175     0.22509659    -2221.689       755.34585      755.34585      755.34585      4.3096057e+08  1.3947915     -37700310      -37700310       1159.5396     -37699151      -2230.2449     -2213.2914     -2221.5306     -11.479419      1.9012251     -6.0164729      17514.187    
    131000   388.1605       0.0655         0.22450026     0.22280675     0.22360628    -2207.1331      755.70047      755.70047      755.70047      4.3156784e+08  1.3928289     -37681338      -37681338       1155.8757     -37680182      -2215.6453     -2198.9317     -2206.8224     -10.398444      1.8278732     -7.1138964      17476.271    
    132000   386.55361      0.066          0.2229075      0.22135354     0.22199516    -2191.8125      756.05509      756.05509      756.05509      4.3217569e+08  1.3908699     -37662475      -37662475       1151.0906     -37661324      -2199.9259     -2184.5896     -2190.9219     -10.828603      1.706739      -6.950976       17525.358    
    133000   384.9889       0.0665         0.22115304     0.21974189     0.22017253    -2174.7428      756.40972      756.40972      756.40972      4.327841e+08   1.3889146     -37643733      -37643733       1146.4312     -37642587      -2182.6108     -2168.6838     -2172.9339     -12.096241      0.66474032    -6.4849703      17313.425    
    134000   383.12278      0.067          0.21939165     0.21792521     0.21835713    -2156.9997      756.76434      756.76434      756.76434      4.3339308e+08  1.3869629     -37625118      -37625118       1140.8742     -37623977      -2165.2272     -2150.7546     -2155.0173     -12.953852     -0.22566872    -6.9492916      17418.314    
    135000   381.0058       0.0675         0.21771386     0.2159953      0.21660253    -2139.3591      757.11896      757.11896      757.11896      4.3400264e+08  1.385015      -37606626      -37606626       1134.5702     -37605491      -2148.6687     -2131.7079     -2137.7008     -12.68344       0.66245357    -7.2512472      17374.433    
    136000   379.36152      0.068          0.21601644     0.21417225     0.21493341    -2122.2867      757.47358      757.47358      757.47358      4.3461276e+08  1.3830706     -37588260      -37588260       1129.6738     -37587130      -2131.9165     -2113.7157     -2121.2278     -12.203354      2.3869892     -6.7445929      17493.569    
    137000   378.17002      0.0685         0.21435204     0.21267382     0.21342429    -2106.9172      757.82821      757.82821      757.82821      4.3522346e+08  1.3811299     -37570015      -37570015       1126.1257     -37568889      -2115.4902     -2098.9274     -2106.334      -12.182646      3.2613605     -6.2324338      17491.873    
    138000   376.86636      0.069          0.21282554     0.21142836     0.21199731    -2093.1037      758.18283      758.18283      758.18283      4.3583473e+08  1.3791929     -37551886      -37551886       1122.2437     -37550763      -2100.4248     -2086.6357     -2092.2508     -11.554535      2.4417043     -6.4759892      17522.518    
    139000   375.4072       0.0695         0.21142218     0.21009253     0.21052054    -2079.2343      758.53745      758.53745      758.53745      4.3644657e+08  1.3772594     -37533868      -37533868       1117.8985     -37532750      -2086.5746     -2073.452      -2077.6762     -9.9933235      0.87726632    -7.638695       17337.249    
    140000   373.83766      0.07           0.21005705     0.20854026     0.20898198    -2064.5754      758.89207      758.89207      758.89207      4.3705898e+08  1.3753296     -37515958      -37515958       1113.2247     -37514844      -2073.1019     -2058.1324     -2062.4918     -8.8740857     -0.26751575    -8.4464658      17465.618    
    141000   372.16921      0.0705         0.20853085     0.2067248      0.20741873    -2048.4394      759.2467       759.2467       759.2467       4.3767197e+08  1.3734033     -37498147      -37498147       1108.2564     -37497038      -2058.0395     -2040.2152     -2047.0637     -8.6876408     -0.14549206    -7.9681505      13954.852    
    142000   370.5663       0.071          0.20672757     0.20477047     0.20587323    -2030.9935      759.60132      759.60132      759.60132      4.3828553e+08  1.3714807     -37480450      -37480450       1103.4832     -37479347      -2040.2424     -2020.9274     -2031.8108     -8.9445397      1.1197594     -6.9346111      8474.2148    
    143000   369.28923      0.0715         0.20490978     0.20305574     0.20435728    -2014.3854      759.95594      759.95594      759.95594      4.3889966e+08  1.3695617     -37462885      -37462885       1099.6803     -37461785      -2022.3023     -2004.0044     -2016.8495     -9.5823935      2.5024886     -6.785603       16357.729    
    144000   368.154        0.072          0.20345561     0.20177536     0.20293099    -2000.6973      760.31056      760.31056      760.31056      4.3951436e+08  1.3676462     -37445440      -37445440       1096.2998     -37444343      -2007.9507     -1991.368      -2002.7732     -10.305519      2.6903498     -7.2095194      17292.869    
    145000   367.12517      0.0725         0.20224787     0.20056485     0.20149117    -1988.0053      760.66519      760.66519      760.66519      4.4012964e+08  1.3657343     -37428102      -37428102       1093.2361     -37427009      -1996.0313     -1979.4212     -1988.5633     -10.609374      2.1096475     -7.4389469      14163.828    
    146000   366.22287      0.073          0.20091745     0.19932033     0.20009392    -1974.9377      761.01981      761.01981      761.01981      4.407455e+08   1.363826      -37410865      -37410865       1090.5492     -37409774      -1982.9011     -1967.1387     -1974.7734     -10.427095      1.6420495     -7.1842231      17515.831    
    147000   365.07403      0.0735         0.19950737     0.19808121     0.1987899     -1961.9326      761.37443      761.37443      761.37443      4.4136192e+08  1.3619212     -37393717      -37393717       1087.1281     -37392630      -1968.9846     -1954.9096     -1961.9037     -9.4854303      1.843729      -6.835007       17475.599    
    148000   363.4917       0.074          0.19823953     0.19670212     0.19748524    -1948.933       761.72905      761.72905      761.72905      4.4197892e+08  1.3600199     -37376657      -37376657       1082.4162     -37375575      -1956.4721     -1941.299      -1949.0278     -8.1574445      2.217636      -7.1485244      17531.631    
    149000   361.68915      0.0745         0.19706605     0.19528137     0.19619359    -1936.1494      762.08368      762.08368      762.08368      4.425965e+08   1.3581222     -37359685      -37359685       1077.0485     -37358608      -1944.8907     -1927.2773     -1936.2802     -7.2619013      2.3376209     -8.0957802      17440.629    
    150000   359.97073      0.075          0.19588835     0.19394438     0.19492335    -1923.6979      762.4383       762.4383       762.4383       4.4321465e+08  1.3562281     -37342803      -37342803       1071.9314     -37341731      -1933.2677     -1914.0822     -1923.7439     -6.9768046      1.7429211     -8.9255512      16918.318    
    151000   358.74395      0.0755         0.19455593     0.19265349     0.19364436    -1910.8604      762.79292      762.79292      762.79292      4.4383338e+08  1.3543374     -37326017      -37326017       1068.2782     -37324949      -1920.1178     -1901.3421     -1911.1212     -7.0670419      1.053081      -8.4928568      17405.579    
    152000   357.83305      0.076          0.19308493     0.19137723     0.1924197     -1897.7938      763.14754      763.14754      763.14754      4.4445268e+08  1.3524503     -37309335      -37309335       1065.5657     -37308269      -1905.6001     -1888.7464     -1899.0348     -6.963004       1.5254491     -7.2287139      17543.006    
    153000   356.8314       0.0765         0.19169043     0.19022106     0.19129071    -1885.6886      763.50216      763.50216      763.50216      4.4507256e+08  1.3505666     -37292743      -37292743       1062.583      -37291680      -1891.8374     -1877.3359     -1887.8926     -6.8232889      2.6347438     -6.5691571      17475.731    
    154000   355.57584      0.077          0.19050747     0.18914078     0.19015123    -1874.4945      763.85679      763.85679      763.85679      4.4569301e+08  1.3486865     -37276233      -37276233       1058.8441     -37275175      -1880.1625     -1866.6743     -1876.6468     -7.2334414      3.0658756     -7.0489749      17547.797    
    155000   354.25584      0.0775         0.18940478     0.18802825     0.18898854    -1863.3821      764.21141      764.21141      764.21141      4.4631404e+08  1.3468098     -37259800      -37259800       1054.9134     -37258745      -1869.2799     -1855.6946     -1865.1719     -8.0438087      3.0174541     -7.8185902      17478.56     
    156000   352.94236      0.078          0.18834854     0.18694016     0.18784877    -1852.5783      764.56603      764.56603      764.56603      4.4693565e+08  1.3449367     -37243440      -37243440       1051.0021     -37242389      -1858.8555     -1844.956      -1853.9233     -8.4353488      3.0087551     -7.4519596      17449.545    
    157000   351.92953      0.0785         0.18733207     0.18587818     0.18672359    -1842.0391      764.92065      764.92065      764.92065      4.4755784e+08  1.343067      -37227159      -37227159       1047.986      -37226111      -1848.8237     -1834.475      -1842.8185     -7.6655883      2.8518239     -5.8211162      17574.102    
    158000   351.15238      0.079          0.1863086      0.18483546     0.18569831    -1831.869       765.27528      765.27528      765.27528      4.481806e+08   1.3412007     -37210961      -37210961       1045.6718     -37209915      -1838.7229     -1824.1841     -1832.6998     -6.2967993      2.6935451     -5.1325426      17482.768    
    159000   350.12626      0.0795         0.18520552     0.1838385      0.18471504    -1821.7257      765.6299       765.6299       765.6299       4.4880394e+08  1.339338      -37194837      -37194837       1042.6162     -37193794      -1827.8364     -1814.3449     -1822.9957     -5.3957389      2.8021816     -6.0210555      17552.098    
    160000   348.81697      0.08           0.18410031     0.1827978      0.18370886    -1811.3561      765.98452      765.98452      765.98452      4.4942785e+08  1.3374786     -37178780      -37178780       1038.7174     -37177742      -1816.9288     -1804.074      -1813.0655     -5.2672478      3.2366164     -6.920952       17226.159    
    161000   347.49454      0.0805         0.18309897     0.18177337     0.18265295    -1801.2181      766.33914      766.33914      766.33914      4.5005235e+08  1.3356227     -37162791      -37162791       1034.7794     -37161756      -1807.0463     -1793.9637     -1802.6444     -4.9786212      3.5580252     -6.513437       17537.828    
    162000   346.38001      0.081          0.18222525     0.18080387     0.18157347    -1791.6032      766.69377      766.69377      766.69377      4.5067742e+08  1.3337703     -37146866      -37146866       1031.4605     -37145835      -1798.4234     -1784.3955     -1791.9908     -4.4029494      3.5637399     -5.3829806      17454.719    
    163000   345.36193      0.0815         0.18137802     0.17988451     0.18058232    -1782.531       767.04839      767.04839      767.04839      4.5130307e+08  1.3319212     -37131008      -37131008       1028.4289     -37129980      -1790.0619     -1775.3221     -1782.209      -4.2968873      3.2714804     -4.6871812      17564.418    
    164000   344.4211       0.082          0.18034485     0.17903405     0.17976506    -1773.6457      767.40301      767.40301      767.40301      4.519293e+08   1.3300756     -37115220      -37115220       1025.6272     -37114194      -1779.8653     -1766.9287     -1774.1432     -4.2085733      3.9291803     -4.742673       17492.08     
    165000   343.70936      0.0825         0.17926193     0.17822248     0.17908096    -1765.1628      767.75763      767.75763      767.75763      4.5255611e+08  1.3282334     -37099499      -37099499       1023.5078     -37098475      -1769.1777     -1758.9191     -1767.3917     -3.7999678      5.181799      -5.4340398      17472.533    
    166000   343.06493      0.083          0.17830147     0.17745352     0.17847588    -1757.4829      768.11226      768.11226      768.11226      4.531835e+08   1.3263946     -37083829      -37083829       1021.5888     -37082807      -1759.6987     -1751.3301     -1761.4199     -3.6129605      5.1922161     -5.8076082      17576.875    
    167000   342.46962      0.0835         0.17757077     0.17673995     0.17773163    -1750.2832      768.46688      768.46688      768.46688      4.5381146e+08  1.3245592     -37068201      -37068201       1019.816      -37067181      -1752.4872     -1744.2877     -1754.0748     -4.1635136      4.1773655     -5.3561516      17533.757    
    168000   342.02166      0.084          0.17695133     0.17596857     0.17681413    -1742.6895      768.8215       768.8215       768.8215       4.5444001e+08  1.3227272     -37052622      -37052622       1018.4821     -37051603      -1746.3739     -1736.6747     -1745.0198     -4.6573009      3.860312      -4.8355903      17566.994    
    169000   341.33132      0.0845         0.17632052     0.17514584     0.17595848    -1735.0928      769.17612      769.17612      769.17612      4.5506914e+08  1.3208985     -37037096      -37037096       1016.4264     -37036080      -1740.1482     -1728.5551     -1736.5751     -4.4393678      4.6147818     -5.2558683      17470.57     
    170000   340.39534      0.085          0.17557327     0.17427376     0.17509307    -1726.9187      769.53075      769.53075      769.53075      4.5569885e+08  1.3190732     -37021624      -37021624       1013.6392     -37020611      -1732.7734     -1719.9483     -1728.0343     -3.3230671      5.3594178     -5.9536922      17518.967    
    171000   339.70841      0.0855         0.17469547     0.17339927     0.17431389    -1718.5908      769.88537      769.88537      769.88537      4.5632914e+08  1.3172513     -37006214      -37006214       1011.5936     -37005202      -1724.1103     -1711.3178     -1720.3443     -2.470258       5.2573677     -5.6302954      17499.603    
    172000   338.89903      0.086          0.17379564     0.17255364     0.1736757     -1710.7492      770.23999      770.23999      770.23999      4.5696001e+08  1.3154327     -36990863      -36990863       1009.1834     -36989854      -1715.2296     -1702.972      -1714.0459     -3.3294853      4.4176026     -4.7424407      17557.182    
    173000   337.72603      0.0865         0.17292427     0.17176821     0.17294029    -1702.8794      770.59461      770.59461      770.59461      4.5759146e+08  1.3136175     -36975563      -36975563       1005.6904     -36974557      -1706.6298     -1695.2204     -1706.788      -4.7110049      3.8778426     -4.7069291      17494.59     
    174000   336.80403      0.087          0.17220802     0.17108268     0.17211389    -1695.5493      770.94924      770.94924      770.94924      4.5822349e+08  1.3118056     -36960309      -36960309       1002.9449     -36959306      -1699.561      -1688.4548     -1698.6321     -4.9322017      4.2211398     -5.0622468      17540.361    
    175000   336.53647      0.0875         0.17163468     0.17050451     0.17143016    -1689.5118      771.30386      771.30386      771.30386      4.588561e+08   1.3099971     -36945098      -36945098       1002.1481     -36944096      -1693.9026     -1682.7487     -1691.8841     -3.817689       4.8548471     -5.0901598      17482.625    
    176000   336.70577      0.088          0.17111788     0.16989892     0.17093649    -1684.1954      771.65848      771.65848      771.65848      4.594893e+08   1.3081918     -36929924      -36929924       1002.6523     -36928922      -1688.8022     -1676.772      -1687.012      -2.659456       5.3965394     -4.4153732      17328.822    
    177000   336.68115      0.0885         0.1706697      0.16925525     0.17054529    -1679.3166      772.0131       772.0131       772.0131       4.6012308e+08  1.3063899     -36914786      -36914786       1002.579      -36913783      -1684.379      -1670.4195     -1683.1512     -2.4203343      6.3593175     -3.3556677      17352.553    
    178000   336.2476       0.089          0.17011397     0.1686466      0.1700382     -1673.8178      772.36773      772.36773      772.36773      4.6075744e+08  1.3045913     -36899683      -36899683       1001.2879     -36898681      -1678.8944     -1664.4125     -1678.1466     -2.5652988      6.7290911     -3.3064172      17378.828    
    179000   335.54656      0.0895         0.16938909     0.1681728      0.16935265    -1667.6191      772.72235      772.72235      772.72235      4.6139238e+08  1.302796      -36884619      -36884619       999.20035     -36883620      -1671.7403     -1659.7365     -1671.3807     -2.6815766      5.5968911     -4.4813289      17531.786    
    180000   334.86016      0.09           0.16856748     0.16765024     0.16852273    -1660.467       773.07697      773.07697      773.07697      4.6202791e+08  1.301004      -36869597      -36869597       997.15639     -36868600      -1663.6317     -1654.5792     -1663.19       -2.8639916      4.6332495     -5.5025833      17483.085    
    181000   334.37123      0.0905         0.16784424     0.16696911     0.1677664     -1653.3588      773.43159      773.43159      773.43159      4.6266402e+08  1.2992152     -36854617      -36854617       995.70043     -36853622      -1656.4938     -1647.857      -1655.7256     -2.673625       4.756338      -4.9056954      17543.047    
    182000   333.96896      0.091          0.16728802     0.16624731     0.1672141     -1647.3375      773.78622      773.78622      773.78622      4.6330071e+08  1.2974298     -36839683      -36839683       994.50252     -36838688      -1651.0044     -1640.7334     -1650.2749     -2.0300787      4.7822644     -3.4162617      17464.274    
    183000   333.30542      0.0915         0.16687305     0.16563542     0.16678643    -1642.5525      774.14084      774.14084      774.14084      4.6393799e+08  1.2956476     -36824783      -36824783       992.52663     -36823790      -1646.9089     -1634.6945     -1646.0541     -2.0137108      4.3926212     -2.839152       17530.561    
    184000   332.62459      0.092          0.16639659     0.16515235     0.16625137    -1637.6357      774.49546      774.49546      774.49546      4.6457585e+08  1.2938687     -36809911      -36809911       990.49923     -36808921      -1642.2066     -1629.927      -1640.7734     -2.9149818      4.0697777     -2.5858302      17396.59     
    185000   332.42846      0.0925         0.16579974     0.1647124      0.16556458    -1631.9655      774.85008      774.85008      774.85008      4.652143e+08   1.292093      -36795072      -36795072       989.91519     -36794082      -1636.3162     -1625.585      -1633.9954     -3.4975629      4.3847031     -3.0103296      17551.771    
    186000   332.53605      0.093          0.16512335     0.16412699     0.16493785    -1625.7527      775.20471      775.20471      775.20471      4.6585333e+08  1.2903206     -36780276      -36780276       990.23556     -36779285      -1629.6407     -1619.8075     -1627.81       -3.0417514      5.3802021     -3.727565       17551.53     
    187000   332.63274      0.0935         0.16450157     0.16346462     0.16449729    -1620.0789      775.55933      775.55933      775.55933      4.6649294e+08  1.2885514     -36765521      -36765521       990.5235      -36764530      -1623.5042     -1613.2704     -1623.462      -2.0247917      6.4678662     -4.1009462      17526.108    
    188000   332.32222      0.094          0.16400191     0.16289663     0.16419727    -1615.5796      775.91395      775.91395      775.91395      4.6713314e+08  1.2867855     -36750795      -36750795       989.59882     -36749805      -1618.573      -1607.6648     -1620.5011     -1.184176       6.7477604     -4.0866147      17523.976    
    189000   331.58506      0.0945         0.16355277     0.16242526     0.16386107    -1611.4453      776.26857      776.26857      776.26857      4.6777393e+08  1.2850228     -36736087      -36736087       987.40369     -36735099      -1614.1403     -1603.0127     -1617.183      -1.1035883      6.4967775     -3.7401926      17540.821    
    190000   331.0454       0.095          0.16309666     0.16192455     0.16327185    -1606.3593      776.6232       776.6232       776.6232       4.684153e+08   1.2832633     -36721411      -36721411       985.79668     -36720425      -1609.6389     -1598.071      -1611.3679     -1.696711       6.0343741     -3.3394005      17325.459    
    191000   331.08423      0.0955         0.16259646     0.16136787     0.16252948    -1600.4402      776.97782      776.97782      776.97782      4.6905726e+08  1.281507      -36706777      -36706777       985.91229     -36705792      -1604.7023     -1592.5771     -1604.0413     -1.9727994      5.5218043     -3.0859209      17466.634    
    192000   331.00983      0.096          0.16207623     0.16088692     0.16192683    -1595.164       777.33244      777.33244      777.33244      4.696998e+08   1.2797539     -36692181      -36692181       985.69074     -36691195      -1599.568      -1587.8305     -1598.0936     -2.1385056      5.5077166     -2.9007463      17557.652    
    193000   330.48235      0.0965         0.16156054     0.160451       0.16149883    -1590.6254      777.68706      777.68706      777.68706      4.7034293e+08  1.278004      -36677609      -36677609       984.12002     -36676625      -1594.4786     -1583.5282     -1593.8695     -2.3704442      5.9562512     -2.8798264      17491.969    
    194000   329.96175      0.097          0.1610107      0.16001062     0.16112043    -1586.123       778.04169      778.04169      778.04169      4.7098665e+08  1.2762573     -36663064      -36663064       982.56975     -36662081      -1589.0521     -1579.182      -1590.135      -2.6640737      6.5188264     -3.4340607      17567.358    
    195000   329.80611      0.0975         0.16043467     0.15951051     0.16064652    -1581.0238      778.39631      778.39631      778.39631      4.7163096e+08  1.2745138     -36648551      -36648551       982.10628     -36647569      -1583.367      -1574.2464     -1585.4579     -2.7892885      6.5253719     -4.5546665      16682.145    
    196000   329.8912       0.098          0.1599797      0.15904037     0.16009658    -1576.1712      778.75093      778.75093      778.75093      4.7227585e+08  1.2727734     -36634067      -36634067       982.35967     -36633085      -1578.8769     -1569.6064     -1580.0304     -3.2775554      5.979789      -4.903185       17564.766    
    197000   329.88709      0.0985         0.15960537     0.15862783     0.1596072     -1571.9727      779.10555      779.10555      779.10555      4.7292133e+08  1.2710362     -36619611      -36619611       982.34743     -36618629      -1575.1825     -1565.535      -1575.2005     -3.3461075      5.2603592     -4.0147101      17490.902    
    198000   329.69719      0.099          0.15912359     0.15817422     0.15915624    -1567.4119      779.46018      779.46018      779.46018      4.7356739e+08  1.2693022     -36605188      -36605188       981.78193     -36604207      -1570.4277     -1561.0582     -1570.7499     -2.4138293      5.1270798     -2.6825346      17484.568    
    199000   329.26463      0.0995         0.15860608     0.15763547     0.15876919    -1562.6638      779.8148       779.8148       779.8148       4.7421405e+08  1.2675714     -36590796      -36590796       980.49385     -36589816      -1565.3203     -1555.7411     -1566.9301     -1.2229598      6.067883      -1.8969431      17549.479    
    200000   328.74812      0.1            0.15825048     0.15703838     0.15835617    -1558.171       780.16942      780.16942      780.16942      4.7486129e+08  1.2658436     -36576427      -36576427       978.95577     -36575448      -1561.8108     -1549.8483     -1562.8539     -0.50987838     7.2243548     -2.2052441      17117.414    
    201000   328.59417      0.1005         0.15795103     0.15647678     0.15783932    -1553.638       780.52404      780.52404      780.52404      4.7550913e+08  1.264119      -36562081      -36562081       978.49734     -36561102      -1558.8554     -1544.3057     -1557.753      -0.57581229     7.1008824     -3.2415086      17478.958    
    202000   328.97524      0.101          0.15754258     0.15610235     0.15735631    -1549.4736      780.87867      780.87867      780.87867      4.7615755e+08  1.2623976     -36547760      -36547760       979.63208     -36546781      -1554.8244     -1540.6104     -1552.986      -1.0574951      6.3458881     -3.7708928      17530.717    
    203000   329.44087      0.1015         0.1570539      0.15588863     0.15704176    -1546.1281      781.23329      781.23329      781.23329      4.7680656e+08  1.2606793     -36533467      -36533467       981.01867     -36532486      -1550.0015     -1538.5012     -1549.8817     -1.4420517      6.2743848     -4.1478816      17531.022    
    204000   329.43308      0.102          0.15660711     0.1556147      0.15674447    -1542.7791      781.58791      781.58791      781.58791      4.7745616e+08  1.2589641     -36519198      -36519198       980.99546     -36518217      -1545.592      -1535.7977     -1546.9476     -1.6327815      6.6575002     -4.5837167      17575.559    
    205000   329.11029      0.1025         0.15619676     0.15516814     0.15629589    -1538.4844      781.94253      781.94253      781.94253      4.7810635e+08  1.257252      -36504950      -36504950       980.03425     -36503970      -1541.5422     -1531.3905     -1542.5205     -1.678029       6.4650419     -4.5172405      17485.077    
    206000   328.8357       0.103          0.15572402     0.15458259     0.15570037    -1533.0438      782.29716      782.29716      782.29716      4.7875713e+08  1.255543      -36490730      -36490730       979.21657     -36489751      -1536.8766     -1525.6116     -1536.6432     -1.6983644      5.4578491     -3.9908419      17506.856    
    207000   328.63471      0.1035         0.15520732     0.15399817     0.15505595    -1527.3014      782.65178      782.65178      782.65178      4.794085e+08   1.2538371     -36476545      -36476545       978.61803     -36475566      -1531.7772     -1519.8438     -1530.2832     -2.0551881      4.85051       -3.1016015      17565.418    
    208000   328.18563      0.104          0.154784       0.15360113     0.15456788    -1522.997       783.0064       783.0064       783.0064       4.8006046e+08  1.2521343     -36462389      -36462389       977.28076     -36461412      -1527.5993     -1515.9253     -1525.4664     -2.1484362      5.7003228     -2.51255        17590.36     
    209000   327.66718      0.1045         0.15440966     0.15327623     0.15427348    -1519.7282      783.36102      783.36102      783.36102      4.8071301e+08  1.2504345     -36448257      -36448257       975.7369      -36447282      -1523.9049     -1512.7187     -1522.5608     -1.6107278      6.5634326     -2.7697661      17582.258    
    210000   327.6858       0.105          0.15401459     0.15290621     0.15399487    -1516.2947      783.71565      783.71565      783.71565      4.8136615e+08  1.2487379     -36434150      -36434150       975.79234     -36433174      -1520.0058     -1509.067      -1519.8112     -1.2132113      6.1499677     -3.312994       17515.127    
    211000   327.95968      0.1055         0.15358949     0.15250229     0.15364838    -1512.4275      784.07027      784.07027      784.07027      4.8201989e+08  1.2470443     -36420066      -36420066       976.60793     -36419090      -1515.8104     -1505.0806     -1516.3916     -1.395848       5.650641      -3.4501087      17478.168    
    212000   327.99603      0.106          0.15311459     0.15207413     0.15318565    -1507.9344      784.42489      784.42489      784.42489      4.8267421e+08  1.2453538     -36406002      -36406002       976.71617     -36405026      -1511.1235     -1500.855      -1511.8248     -1.6943271      6.0193946     -3.6267326      17561.95     
    213000   327.88963      0.1065         0.15267385     0.1516354      0.15272496    -1503.5256      784.77951      784.77951      784.77951      4.8332913e+08  1.2436663     -36391964      -36391964       976.39933     -36390988      -1506.7737     -1496.525      -1507.2781     -1.6518266      6.3308852     -3.7664431      17472.946    
    214000   327.81925      0.107          0.15241412     0.15129324     0.15246276    -1500.683       785.13414      785.13414      785.13414      4.8398464e+08  1.2419819     -36377947      -36377947       976.18974     -36376971      -1504.2104     -1493.1482     -1504.6905     -1.7445611      6.2508821     -3.4236702      17362.313    
    215000   327.59743      0.1075         0.15222624     0.15101678     0.15230295    -1498.6297      785.48876      785.48876      785.48876      4.8464074e+08  1.2403005     -36363942      -36363942       975.52921     -36362967      -1502.3562     -1490.4197     -1503.1133     -1.8142742      5.9931932     -2.5635758      17507.076    
    216000   327.42281      0.108          0.15189226     0.15062699     0.151988      -1495.2126      785.84338      785.84338      785.84338      4.8529744e+08  1.2386221     -36349950      -36349950       975.00921     -36348975      -1499.0601     -1486.5728     -1500.0049     -1.4171092      5.5291488     -2.0801988      17497.899    
    217000   327.40762      0.1085         0.15136043     0.1501102      0.15146499    -1490.0423      786.198        786.198        786.198        4.8595472e+08  1.2369468     -36335986      -36335986       974.96399     -36335011      -1493.8113     -1481.4725     -1494.8432     -1.1679548      4.7017682     -2.514302       17565.336    
[...]
   3137000   324.43733      1.5685         0.012198401    0.012059873    0.012039261   -119.4096       1821.6956      1821.6956      1821.6956      6.0454332e+09  0.09943045    -11196545      -11196545       966.11895     -11195579      -120.38885     -119.02169     -118.81827     -0.20824457     0.3199528      0.21805435     15867.978    
   3138000   324.40894      1.569          0.012189403    0.012051331    0.012032989   -119.33127      1822.0502      1822.0502      1822.0502      6.0489644e+09  0.099372406   -11190555      -11190555       966.03443     -11189589      -120.30005     -118.93739     -118.75637     -0.20353842     0.3307667      0.19572851     15911.466    
   3139000   324.38233      1.5695         0.012179918    0.012042948    0.012028882   -119.25898      1822.4048      1822.4048      1822.4048      6.052497e+09   0.099314406   -11184566      -11184566       965.95519     -11183600      -120.20645     -118.85466     -118.71584     -0.18688629     0.35171406     0.18783605     15858.397    
   3140000   324.38374      1.57           0.012171506    0.012034412    0.01202415    -119.18766      1822.7595      1822.7595      1822.7595      6.056031e+09   0.099256452   -11178579      -11178579       965.95938     -11177613      -120.12342     -118.77041     -118.66914     -0.17641714     0.36145934     0.18794325     15861.272    
   3141000   324.43831      1.5705         0.012163835    0.012026571    0.012016079   -119.11008      1823.1141      1823.1141      1823.1141      6.0595663e+09  0.099198543   -11172592      -11172592       966.12189     -11171626      -120.04772     -118.69303     -118.58948     -0.17731186     0.34722892     0.18733947     15967.992    
   3142000   324.51493      1.571          0.01215476     0.012019497    0.012005143   -119.02097      1823.4687      1823.4687      1823.4687      6.063103e+09   0.099140678   -11166608      -11166608       966.35004     -11165642      -119.95816     -118.62321     -118.48155     -0.18109867     0.32390081     0.18159214     15803.013    
   3143000   324.56195      1.5715         0.01214395     0.012011939    0.011994314   -118.92492      1823.8233      1823.8233      1823.8233      6.0666411e+09  0.099082859   -11160627      -11160627       966.49005     -11159660      -119.85147     -118.54862     -118.37468     -0.17962206     0.30498221     0.17356696     15988.485    
   3144000   324.57064      1.572          0.012133133    0.012002428    0.011983448   -118.8223       1824.178       1824.178       1824.178       6.0701806e+09  0.099025085   -11154648      -11154648       966.51594     -11153681      -119.74471     -118.45476     -118.26743     -0.17513733     0.30182447     0.15994288     15978.296    
   3145000   324.55587      1.5725         0.012124352    0.011992715    0.011972318   -118.72485      1824.5326      1824.5326      1824.5326      6.0737214e+09  0.098967356   -11148672      -11148672       966.47195     -11147706      -119.65805     -118.3589      -118.15759     -0.18085167     0.31297432     0.14538022     15986.408    
   3146000   324.52358      1.573          0.012116798    0.011982698    0.011961954   -118.63295      1824.8872      1824.8872      1824.8872      6.0772636e+09  0.098909671   -11142699      -11142699       966.37581     -11141732      -119.5835      -118.26004     -118.0553      -0.2027832      0.32147231     0.14389007     15909.683    
   3147000   324.48851      1.5735         0.012108178    0.011971744    0.011953187   -118.53971      1825.2418      1825.2418      1825.2418      6.0808072e+09  0.098852031   -11136728      -11136728       966.27136     -11135761      -119.49843     -118.15193     -117.96879     -0.22153777     0.32758302     0.15841907     15949.337    
   3148000   324.46104      1.574          0.012098563    0.011961744    0.011947009   -118.45486      1825.5964      1825.5964      1825.5964      6.0843522e+09  0.098794437   -11130759      -11130759       966.18957     -11129793      -119.40353     -118.05323     -117.90781     -0.21846712     0.33213403     0.1791591      15957.235    
   3149000   324.44136      1.5745         0.012089488    0.011953116    0.011941627   -118.37892      1825.9511      1825.9511      1825.9511      6.0878985e+09  0.098736886   -11124792      -11124792       966.13098     -11123825      -119.31397     -117.96808     -117.8547      -0.19550388     0.32756275     0.20405904     15933.497    
   3150000   324.4376       1.575          0.012080849    0.011942376    0.011933751   -118.28925      1826.3057      1826.3057      1826.3057      6.0914462e+09  0.098679381   -11118826      -11118826       966.11977     -11117860      -119.22871     -117.86208     -117.77696     -0.16646824     0.30664673     0.22396426     15635.032    
   3151000   324.44838      1.5755         0.012071791    0.011929841    0.011924689   -118.18841      1826.6603      1826.6603      1826.6603      6.0949954e+09  0.09862192    -11112863      -11112863       966.15188     -11111897      -119.13932     -117.73838     -117.68753     -0.14466017     0.28125794     0.22459867     15859.494    
   3152000   324.45573      1.576          0.012062285    0.011920142    0.011915771   -118.09589      1827.0149      1827.0149      1827.0149      6.0985458e+09  0.098564504   -11106903      -11106903       966.17375     -11105937      -119.0455      -117.64266     -117.59952     -0.13350471     0.26784897     0.21545468     15928.773    
   3153000   324.44868      1.5765         0.012053081    0.011915752    0.011906578   -118.02093      1827.3696      1827.3696      1827.3696      6.1020977e+09  0.098507132   -11100945      -11100945       966.15277     -11099979      -118.95466     -117.59933     -117.50879     -0.13496996     0.26698182     0.21630764     16027.179    
   3154000   324.43243      1.577          0.012044219    0.011913115    0.011896641   -117.95041      1827.7242      1827.7242      1827.7242      6.1056509e+09  0.098449805   -11094988      -11094988       966.10439     -11094022      -118.8672      -117.57331     -117.41072     -0.14669655     0.26703494     0.22683804     16016.204    
   3155000   324.41769      1.5775         0.012037291    0.011909808    0.011886476   -117.88329      1828.0788      1828.0788      1828.0788      6.1092056e+09  0.098392522   -11089032      -11089032       966.06049     -11088066      -118.79882     -117.54067     -117.31039     -0.16452615     0.27011181     0.23149885     16062.854    
   3156000   324.40866      1.578          0.012031998    0.011904337    0.011877248   -117.81753      1828.4334      1828.4334      1828.4334      6.1127616e+09  0.098335284   -11083078      -11083078       966.03358     -11082112      -118.74659     -117.48667     -117.21933     -0.18243559     0.28169257     0.21765551     15327.894    
   3157000   324.40946      1.5785         0.012025016    0.011895833    0.011868268   -117.73704      1828.788       1828.788       1828.788       6.1163189e+09  0.09827809    -11077124      -11077124       966.03596     -11076158      -118.67768     -117.40275     -117.1307      -0.19574673     0.29949933     0.18811523     15983.139    
   3158000   324.41506      1.579          0.012016005    0.011884698    0.011858675   -117.63921      1829.1427      1829.1427      1829.1427      6.1198777e+09  0.098220941   -11071173      -11071173       966.05267     -11070207      -118.58875     -117.29285     -117.03603     -0.19458299     0.31230804     0.16534254     16048.087    
   3159000   324.41484      1.5795         0.01200745     0.011872632    0.011848757   -117.53874      1829.4973      1829.4973      1829.4973      6.1234378e+09  0.098163836   -11065225      -11065225       966.052       -11064259      -118.50431     -117.17377     -116.93814     -0.18525092     0.31637235     0.17079783     16059.574    
   3160000   324.40836      1.58           0.011999822    0.011862508    0.011840619   -117.45357      1829.8519      1829.8519      1829.8519      6.1269993e+09  0.098106775   -11059279      -11059279       966.0327      -11058313      -118.42904     -117.07385     -116.85782     -0.18332661     0.31500172     0.19231147     16045.066    
   3161000   324.4076       1.5805         0.011991824    0.011854687    0.01183424    -117.38054      1830.2065      1830.2065      1830.2065      6.1305622e+09  0.098049758   -11053335      -11053335       966.03043     -11052369      -118.3501      -116.99666     -116.79487     -0.19027924     0.3066112      0.20779115     16007.461    
   3162000   324.42154      1.581          0.011982832    0.011845608    0.01182774    -117.29971      1830.5612      1830.5612      1830.5612      6.1341265e+09  0.097992785   -11047393      -11047393       966.07195     -11046427      -118.26136     -116.90706     -116.73072     -0.20183507     0.29204171     0.20743103     16054.88     
   3163000   324.43974      1.5815         0.011973729    0.011834649    0.011820696   -117.21054      1830.9158      1830.9158      1830.9158      6.1376922e+09  0.097935857   -11041452      -11041452       966.12615     -11040486      -118.17152     -116.7989      -116.6612      -0.1996429      0.27783196     0.19899252     16017.253    
   3164000   324.45256      1.582          0.011966052    0.011823877    0.011814772   -117.13036      1831.2704      1831.2704      1831.2704      6.1412592e+09  0.097878973   -11035514      -11035514       966.16432     -11034548      -118.09575     -116.69259     -116.60273     -0.18196953     0.27391318     0.19417467     15960.37     
   3165000   324.46375      1.5825         0.011959378    0.011816091    0.011809681   -117.06604      1831.625       1831.625       1831.625       6.1448277e+09  0.097822132   -11029578      -11029578       966.19765     -11028612      -118.02989     -116.61575     -116.55249     -0.16373227     0.28735573     0.19569893     16007.105    
   3166000   324.48826      1.583          0.011952603    0.011812118    0.011803417   -117.01008      1831.9796      1831.9796      1831.9796      6.1483975e+09  0.097765336   -11023642      -11023642       966.27064     -11022676      -117.96302     -116.57654     -116.49067     -0.15020426     0.30539871     0.20019411     15948.933    
   3167000   324.52383      1.5835         0.011944615    0.011809207    0.011795651   -116.94867      1832.3343      1832.3343      1832.3343      6.1519687e+09  0.097708584   -11017707      -11017707       966.37655     -11016740      -117.88418     -116.54781     -116.41403     -0.14671619     0.30558832     0.2006087      16016.237    
   3168000   324.57242      1.584          0.011935369    0.011804371    0.011785928   -116.87036      1832.6889      1832.6889      1832.6889      6.1555412e+09  0.097651875   -11011773      -11011773       966.52123     -11010806      -117.79293     -116.50008     -116.31807     -0.1477919      0.28946801     0.19710465     15919.693    
   3169000   324.62011      1.5845         0.011926088    0.011797922    0.011775022   -116.78274      1833.0435      1833.0435      1833.0435      6.1591152e+09  0.097595211   -11005841      -11005841       966.66325     -11004874      -117.70134     -116.43644     -116.21043     -0.15055684     0.26961332     0.19215208     15905.113    
   3170000   324.63734      1.585          0.011917404    0.011790305    0.011765748   -116.6986       1833.3981      1833.3981      1833.3981      6.1626905e+09  0.09753859    -10999912      -10999912       966.71457     -10998945      -117.61564     -116.36126     -116.1189      -0.16357719     0.25593975     0.1917476      15934.388    
   3171000   324.61151      1.5855         0.011909723    0.011781181    0.011758963   -116.621        1833.7528      1833.7528      1833.7528      6.1662672e+09  0.097482013   -10993984      -10993984       966.63764     -10993017      -117.53983     -116.27121     -116.05194     -0.18390833     0.25251931     0.1981199      15867.004    
   3172000   324.5565       1.586          0.0119028      0.011769885    0.011750902   -116.53454      1834.1074      1834.1074      1834.1074      6.1698453e+09  0.09742548    -10988058      -10988058       966.47382     -10987091      -117.4715      -116.15973     -115.97238     -0.18528075     0.25383973     0.2018883      15710.379    
   3173000   324.48397      1.5865         0.011896573    0.011758776    0.011741968   -116.44812      1834.462       1834.462       1834.462       6.1734248e+09  0.097368991   -10982134      -10982134       966.25784     -10981168      -117.41005     -116.0501      -115.88421     -0.162765       0.26016942     0.20711427     15815.764    
   3174000   324.3953       1.587          0.011889993    0.01175034     0.011735002   -116.3758       1834.8166      1834.8166      1834.8166      6.1770057e+09  0.097312545   -10976212      -10976212       965.99381     -10975246      -117.34511     -115.96684     -115.81546     -0.14022207     0.26750529     0.22695782     15855.888    
   3175000   324.32276      1.5875         0.011882166    0.011744204    0.011727637   -116.30564      1835.1713      1835.1713      1835.1713      6.180588e+09   0.097256143   -10970290      -10970290       965.77781     -10969325      -117.26786     -115.90628     -115.74278     -0.13735345     0.28418409     0.24286436     15891.832    
   3176000   324.29167      1.588          0.011873389    0.011737757    0.01171648    -116.21885      1835.5259      1835.5259      1835.5259      6.1841716e+09  0.097199784   -10964371      -10964371       965.68523     -10963405      -117.18124     -115.84266     -115.63267     -0.15146907     0.30947113     0.23481809     15868.432    
   3177000   324.29269      1.5885         0.011863697    0.011729096    0.011702259   -116.11169      1835.8805      1835.8805      1835.8805      6.1877566e+09  0.097143469   -10958454      -10958454       965.68825     -10957488      -117.08558     -115.75717     -115.49231     -0.17513888     0.33200776     0.21807234     15916.045    
   3178000   324.31674      1.589          0.011853597    0.011717563    0.011688064   -115.99383      1836.2351      1836.2351      1836.2351      6.191343e+09   0.097087197   -10952541      -10952541       965.75988     -10951575      -116.98591     -115.64335     -115.35222     -0.19767688     0.3382998      0.20693386     15888.096    
   3179000   324.37327      1.5895         0.011844547    0.011705494    0.011677182   -115.88855      1836.5897      1836.5897      1836.5897      6.1949308e+09  0.097030969   -10946631      -10946631       965.92821     -10945665      -116.89659     -115.52424     -115.24482     -0.20167176     0.32671667     0.19519366     15931.529    
   3180000   324.44492      1.59           0.011837618    0.011694488    0.01167181    -115.81188      1836.9444      1836.9444      1836.9444      6.19852e+09    0.096974785   -10940725      -10940725       966.14157     -10939759      -116.82821     -115.41563     -115.19181     -0.19717375     0.30640114     0.18873764     15875.099    
   3181000   324.49266      1.5905         0.011831018    0.011685118    0.011669404   -115.75143      1837.299       1837.299       1837.299       6.2021106e+09  0.096918643   -10934819      -10934819       966.28374     -10933853      -116.76307     -115.32315     -115.16806     -0.19611617     0.29187162     0.18545365     15875.416    
   3182000   324.51146      1.591          0.011821867    0.011677545    0.011665674   -115.68414      1837.6536      1837.6536      1837.6536      6.2057025e+09  0.096862545   -10928914      -10928914       966.33973     -10927948      -116.67275     -115.2484      -115.13125     -0.18724737     0.28441796     0.18923549     15868.612    
   3183000   324.52781      1.5915         0.011811212    0.011671395    0.011659116   -115.60728      1838.0082      1838.0082      1838.0082      6.2092959e+09  0.096806491   -10923011      -10923011       966.38841     -10922045      -116.56759     -115.18772     -115.06653     -0.16918169     0.28948006     0.2081395      15855.08     
   3184000   324.55114      1.592          0.01180271     0.011667983    0.011652455   -115.54617      1838.3629      1838.3629      1838.3629      6.2128906e+09  0.096750479   -10917110      -10917110       966.45787     -10916144      -116.48369     -115.15404     -115.00079     -0.15719887     0.30618745     0.23306025     15669.889    
   3185000   324.56524      1.5925         0.011796454    0.011666338    0.011648798   -115.50815      1838.7175      1838.7175      1838.7175      6.2164867e+09  0.096694511   -10911209      -10911209       966.49988     -10910242      -116.42195     -115.1378      -114.9647      -0.16848692     0.31658688     0.24544064     15746.987    
   3186000   324.57612      1.593          0.011789461    0.011662436    0.011645252   -115.46064      1839.0721      1839.0721      1839.0721      6.2200842e+09  0.096638586   -10905307      -10905307       966.53226     -10904340      -116.35293     -115.09929     -114.9297      -0.19787664     0.31614574     0.24648344     15763.815    
   3187000   324.59383      1.5935         0.01178149     0.011655841    0.011638129   -115.38929      1839.4267      1839.4267      1839.4267      6.2236831e+09  0.096582704   -10899406      -10899406       966.58499     -10898439      -116.27426     -115.0342      -114.8594      -0.22048683     0.30397487     0.24106793     15629.764    
   3188000   324.60694      1.594          0.0117732      0.011648304    0.01162691    -115.30032      1839.7813      1839.7813      1839.7813      6.2272834e+09  0.096526865   -10893507      -10893507       966.62405     -10892540      -116.19245     -114.95982     -114.74868     -0.23314826     0.28726369     0.22967575     15713.711    
   3189000   324.59607      1.5945         0.011766207    0.011640237    0.011614296   -115.20928      1840.136       1840.136       1840.136       6.2308851e+09  0.096471069   -10887611      -10887611       966.59167     -10886644      -116.12343     -114.88021     -114.62419     -0.24440505     0.27858447     0.21837414     15698.985    
   3190000   324.56137      1.595          0.01175945     0.011629808    0.01160208    -115.11255      1840.4906      1840.4906      1840.4906      6.2344881e+09  0.096415316   -10881717      -10881717       966.48835     -10880750      -116.05675     -114.77728     -114.50362     -0.24930045     0.29096404     0.20866173     15737.421    
   3191000   324.52887      1.5955         0.011751327    0.011617074    0.011590949   -115.00732      1840.8452      1840.8452      1840.8452      6.2380926e+09  0.096359606   -10875826      -10875826       966.39156     -10874859      -115.97658     -114.6516      -114.39377     -0.23007287     0.31383566     0.20394353     15739.733    
   3192000   324.51591      1.596          0.011742182    0.011604505    0.011581726   -114.90554      1841.1998      1841.1998      1841.1998      6.2416984e+09  0.096303939   -10869938      -10869938       966.35296     -10868972      -115.88633     -114.52756     -114.30275     -0.19133548     0.3200394      0.2124704      15767.817    
   3193000   324.52552      1.5965         0.01173349     0.011594675    0.011575689   -114.82475      1841.5545      1841.5545      1841.5545      6.2453056e+09  0.096248315   -10864053      -10864053       966.38158     -10863087      -115.80054     -114.43054     -114.24317     -0.1490366      0.30733783     0.22069071     15815.674    
   3194000   324.53697      1.597          0.011725675    0.01158762     0.011570843   -114.75989      1841.9091      1841.9091      1841.9091      6.2489142e+09  0.096192734   