LAMMPS (23 Jun 2022 - Update 1)
OMP_NUM_THREADS environment is not set. Defaulting to 1 thread. (src/comm.cpp:98)
  using 1 OpenMP thread(s) per MPI task
###

# Read restart info
read_restart ${read_res}
read_restart ./trial9/5050/equpmf70.res
Reading restart file ...
  restart file = 23 Jun 2022, LAMMPS = 23 Jun 2022
  restoring atom style atomic from restart
  orthogonal box = (1669.2394 1669.2394 1669.2394) to (2330.7606 2330.7606 2330.7606)
  1 by 2 by 2 MPI processor grid
  restoring pair style table from restart
  1000 atoms
  read_restart CPU = 0.040 seconds

# Settings
pair_style table/pgn spline 10941
pair_coeff 1 1 N20e.txt DE_GNP 308 72.9   # 1.35 * r
pair_coeff 2 2 N100e.txt DE_GNP 473.9 111.78
WARNING: 20 of 10941 force values in table DE_GNP are inconsistent with -dE/dr.
WARNING:  Should only be flagged at inflection points (src/pair_table_pgn.cpp:478)
pair_coeff 1 2 mixed_potentiale.txt DE_GNP 391.2 92.95
WARNING: 1564 of 10941 force values in table DE_GNP are inconsistent with -dE/dr.
WARNING:  Should only be flagged at inflection points (src/pair_table_pgn.cpp:478)

# Neighbor list
neighbor 2.0 bin
neigh_modify delay 0 every 1 check no once yes

# Temperature
variable T equal ${Temp}
variable T equal 300

# Deformation
reset_timestep 0
variable tmp equal "lx"
variable L0 equal ${tmp}
variable L0 equal 661.521206072206
variable strain equal "(lx - v_L0)/v_L0"
variable stp equal "step"
variable tmpe equal "temp"
variable p1 equal "v_strain"
variable p2 equal "-pxx*1.01325/10000"
variable p3 equal "-pyy*1.01325/10000"
variable p4 equal "-pzz*1.01325/10000"
variable p5 equal "lx"
variable p6 equal "ly"
variable p7 equal "lz"
variable p8 equal "press"
variable p9 equal "epair"
variable p10 equal "etotal"

# Thermo
thermo_style custom step temp v_p1 v_p2 v_p3 v_p4 press lx ly lz vol density epair pe ke etotal pxx pyy pzz pxy pxz pyz spcpu
thermo ${ts_save}
thermo 1000

# Dump
# dump 1 all custom 2000 ./${N20}${N100}/tensile/trajectory/trajectory_${usic}_${trial}_*.tensile.custom id type x y z ix iy iz
# dump_modify 1 sort id
dump 2 all cfg 50000 ./trial${trial}/${N20}${N100}/tensile/trajectory/dumpten.tens_${usic}_${trial}_*.cfg mass type xs ys zs fx fy fz
dump 2 all cfg 50000 ./trial9/${N20}${N100}/tensile/trajectory/dumpten.tens_${usic}_${trial}_*.cfg mass type xs ys zs fx fy fz
dump 2 all cfg 50000 ./trial9/50${N100}/tensile/trajectory/dumpten.tens_${usic}_${trial}_*.cfg mass type xs ys zs fx fy fz
dump 2 all cfg 50000 ./trial9/5050/tensile/trajectory/dumpten.tens_${usic}_${trial}_*.cfg mass type xs ys zs fx fy fz
dump 2 all cfg 50000 ./trial9/5050/tensile/trajectory/dumpten.tens_1_${trial}_*.cfg mass type xs ys zs fx fy fz
dump 2 all cfg 50000 ./trial9/5050/tensile/trajectory/dumpten.tens_1_9_*.cfg mass type xs ys zs fx fy fz
dump_modify 2 element N20 N100

fix 1 all nvt temp ${T} ${T} 100
fix 1 all nvt temp 300 ${T} 100
fix 1 all nvt temp 300 300 100
fix 2 all deform 1 x erate ${strain_rate} y erate ${strain_rate} z erate ${strain_rate} units box
fix 2 all deform 1 x erate 5e-6 y erate ${strain_rate} z erate ${strain_rate} units box
fix 2 all deform 1 x erate 5e-6 y erate 5e-6 z erate ${strain_rate} units box
fix 2 all deform 1 x erate 5e-6 y erate 5e-6 z erate 5e-6 units box
fix             def1 all print ${ts_save} "${p1} ${p2} ${p3} ${p4}" file ./tensile/${trial}/tensile${N20}${N100}_${usic}_${trial}.txt screen no
fix             def1 all print 1000 "${p1} ${p2} ${p3} ${p4}" file ./tensile/${trial}/tensile${N20}${N100}_${usic}_${trial}.txt screen no
fix             def1 all print 1000 "${p1} ${p2} ${p3} ${p4}" file ./tensile/9/tensile${N20}${N100}_${usic}_${trial}.txt screen no
fix             def1 all print 1000 "${p1} ${p2} ${p3} ${p4}" file ./tensile/9/tensile50${N100}_${usic}_${trial}.txt screen no
fix             def1 all print 1000 "${p1} ${p2} ${p3} ${p4}" file ./tensile/9/tensile5050_${usic}_${trial}.txt screen no
fix             def1 all print 1000 "${p1} ${p2} ${p3} ${p4}" file ./tensile/9/tensile5050_1_${trial}.txt screen no
fix             def1 all print 1000 "${p1} ${p2} ${p3} ${p4}" file ./tensile/9/tensile5050_1_9.txt screen no

timestep       		${ts}
timestep       		0.1
run				${steps_tensile}
run				6000000
Generated 0 of 1 mixed pair_coeff terms from geometric mixing rule
Unused restart file global fix info:
  fix style: npt, fix ID: 5
Neighbor list info ...
  update every 1 steps, delay 0 steps, check no
  max neighbors/atom: 2000, page size: 100000
  master list distance cutoff = 113.78
  ghost atom cutoff = 113.78
  binsize = 56.89, bins = 12 12 12
  1 neighbor lists, perpetual/occasional/extra = 1 0 0
  (1) pair table/pgn, perpetual
      attributes: half, newton on
      pair build: half/bin/atomonly/newton
      stencil: half/bin/3d
      bin: standard
Per MPI rank memory allocation (min/avg/max) = 3.851 | 3.851 | 3.851 Mbytes
   Step          Temp           v_p1           v_p2           v_p3           v_p4          Press            Lx             Ly             Lz           Volume        Density         E_pair         PotEng         KinEng         TotEng          Pxx            Pyy            Pzz            Pxy            Pxz            Pyz           S/CPU     
         0   305.52989     -6.8742672e-16  0.023375001    0.011934085    0.013638948   -161.02651      661.52121      661.52121      661.52121      2.894885e+08   1.8467475     -27957799      -27957799       909.81585     -27956889      -230.69332     -117.78026     -134.60595      3.9011375      66.456701     -27.147165      0            
      1000   371.08493      0.0005         0.031340466    0.02000593     0.021788436   -240.59489      661.85197      661.85197      661.85197      2.8992295e+08  1.8439802     -27956800      -27956800       1105.0275     -27955695      -309.30635     -197.44318     -215.03514      3.7199299      65.055262     -25.956103      13613.757    
      2000   472.65973      0.001          0.038414001    0.027521287    0.028980607   -312.24902      662.18273      662.18273      662.18273      2.9035783e+08  1.8412183     -27955591      -27955591       1407.5        -27954184      -379.11671     -271.61399     -286.01636      2.3746538      64.211824     -25.548055      13714.932    
      3000   549.31113      0.0015         0.044782576    0.034407311    0.035251495   -376.48287      662.51349      662.51349      662.51349      2.9079315e+08  1.838462      -27954143      -27954143       1635.7548     -27952508      -441.96966     -339.57375     -347.90521      2.0703967      64.395207     -25.467046      13642.857    
      4000   583.87437      0.002          0.051038784    0.040971918    0.041648073   -439.70318      662.84425      662.84425      662.84425      2.912289e+08   1.8357112     -27952389      -27952389       1738.6782     -27950650      -503.71363     -404.36139     -411.03452      2.7485485      63.572494     -24.710338      14604.251    
      5000   585.05614      0.0025         0.057427067    0.0474772      0.048440903   -504.46639      663.17501      663.17501      663.17501      2.9166509e+08  1.8329659     -27950254      -27950254       1742.1973     -27948512      -566.76109     -468.56353     -478.07455      3.9006551      61.127011     -24.407996      14802.593    
      6000   568.63422      0.003          0.063881187    0.054200457    0.055311267   -570.41833      663.50577      663.50577      663.50577      2.9210172e+08  1.830226      -27947695      -27947695       1693.2956     -27946001      -630.4583      -534.91692     -545.87976      4.7542348      58.432576     -24.012222      16040.019    
      7000   545.57961      0.0035         0.070427512    0.061000443    0.062100068   -636.65769      663.83653      663.83653      663.83653      2.9253878e+08  1.8274916     -27944687      -27944687       1624.6429     -27943062      -695.0655      -602.02757     -612.88002      4.6370771      57.106537     -22.794843      16397.944    
      8000   521.95856      0.004          0.07685219     0.06752813     0.068610507   -700.68534      664.16729      664.16729      664.16729      2.9297627e+08  1.8247627     -27941225      -27941225       1554.3035     -27939670      -758.47215     -666.45082     -677.13305      4.7087013      57.222036     -21.186652      16356.667    
      9000   500.46576      0.0045         0.083141047    0.073960124    0.074913338   -763.26839      664.49805      664.49805      664.49805      2.934142e+08   1.8220391     -27937313      -27937313       1490.3016     -27935822      -820.53834     -729.92967     -739.33716      6.2958811      57.531969     -19.295032      16496.822    
     10000   482.03004      0.005          0.089215846    0.080387429    0.081227851   -825.17025      664.82881      664.82881      664.82881      2.9385257e+08  1.819321      -27932960      -27932960       1435.4031     -27931525      -880.49194     -793.36224     -801.65656      6.9191327      58.05753      -18.190785      16510.114    
     11000   466.70994      0.0055         0.094942772    0.086479869    0.087310023   -884.06173      665.15957      665.15957      665.15957      2.9429138e+08  1.8166083     -27928188      -27928188       1389.7825     -27926798      -937.01231     -853.48995     -861.68293      5.9440346      57.27655      -17.870555      16364.044    
     12000   453.82918      0.006          0.100363       0.092227117    0.093118786   -939.9092       665.49033      665.49033      665.49033      2.9473062e+08  1.813901      -27923021      -27923021       1351.4258     -27921669      -990.50576     -910.21087     -919.01096      4.801437       55.611438     -18.073512      16369.712    
     13000   442.54069      0.0065         0.10578299     0.097951154    0.098869576   -995.48885      665.82109      665.82109      665.82109      2.951703e+08   1.8111991     -27917470      -27917470       1317.8106     -27916152      -1043.997      -966.70273     -975.76685      4.0882732      54.755759     -18.316419      16337.265    
     14000   432.43158      0.007          0.11122683     0.10367195     0.10452901    -1050.8357      666.15185      666.15185      666.15185      2.9561041e+08  1.8085025     -27911530      -27911530       1287.7074     -27910243      -1097.7235     -1023.1626     -1031.6211      3.5980668      53.987028     -18.168577      16300.413    
     15000   423.87334      0.0075         0.11640561     0.10915179     0.10986637    -1103.4584      666.48262      666.48262      666.48262      2.9605096e+08  1.8058113     -27905214      -27905214       1262.2224     -27903952      -1148.8341     -1077.2445     -1084.2968      3.2655603      53.181538     -18.27481       16337.608    
     16000   417.11305      0.008          0.12143112     0.11451121     0.11501574    -1154.5623      666.81338      666.81338      666.81338      2.9649195e+08  1.8031254     -27898542      -27898542       1242.0914     -27897300      -1198.432      -1130.1378     -1135.1171      3.1254041      52.514976     -18.108422      16353.648    
     17000   411.60366      0.0085         0.12662465     0.1198972      0.12039594    -1207.0657      667.14414      667.14414      667.14414      2.9693338e+08  1.8004448     -27891522      -27891522       1225.6854     -27890297      -1249.6882     -1183.2934     -1188.2155      3.7860916      51.90748      -16.125195      16335.746    
     18000   406.63377      0.009          0.13191386     0.12518666     0.12596608    -1260.1911      667.4749       667.4749       667.4749       2.9737524e+08  1.7977696     -27884136      -27884136       1210.8859     -27882925      -1301.8885     -1235.4963     -1243.1886      5.8722814      51.338328     -13.404265      16349.325    
     19000   402.30344      0.0095         0.13698066     0.1302947      0.13119433    -1310.8634      667.80566      667.80566      667.80566      2.9781755e+08  1.7950996     -27876393      -27876393       1197.991      -27875195      -1351.894      -1285.9087     -1294.7874      7.6937333      51.123294     -12.057019      16244.158    
     20000   399.26359      0.01           0.14181898     0.13541325     0.13591295    -1359.1419      668.13642      668.13642      668.13642      2.9826029e+08  1.792435      -27868316      -27868316       1188.9388     -27867127      -1399.6445     -1336.4249     -1341.3565      6.7403891      50.748299     -12.035082      16499.987    
     21000   397.23873      0.0105         0.14655331     0.14051324     0.14055997    -1406.7819      668.46718      668.46718      668.46718      2.9870347e+08  1.7897756     -27859918      -27859918       1182.9091     -27858735      -1446.3687     -1386.7578     -1387.2191      4.0596154      49.47742      -11.356614      16368.338    
     22000   395.50905      0.011          0.15105743     0.14516633     0.14515321    -1452.0173      668.79794      668.79794      668.79794      2.9914709e+08  1.7871214     -27851216      -27851216       1177.7584     -27850038      -1490.8209     -1432.6803     -1432.5508      2.3170406      48.111479     -9.8577269      16513.625    
     23000   393.95094      0.0115         0.15534954     0.14947589     0.14968515    -1495.2236      669.1287       669.1287       669.1287       2.9959115e+08  1.7844725     -27842217      -27842217       1173.1186     -27841044      -1533.1807     -1475.2124     -1477.2776      3.0596904      47.064853     -9.132529       16487.58     
     24000   392.75407      0.012          0.15947413     0.15377974     0.15423897    -1537.9318      669.45946      669.45946      669.45946      3.0003564e+08  1.7818289     -27832921      -27832921       1169.5546     -27831752      -1573.8873     -1517.688      -1522.2203      4.8802753      46.572213     -8.8882706      16497.078    
     25000   392.09215      0.0125         0.16338988     0.15813752     0.15869863    -1579.8208      669.79022      669.79022      669.79022      3.0048058e+08  1.7791904     -27823333      -27823333       1167.5835     -27822165      -1612.5328     -1560.6959     -1566.2337      5.3347061      47.079244     -8.0644679      16340.811    
     26000   392.08454      0.013          0.16749139     0.16254037     0.16295305    -1621.7939      670.12098      670.12098      670.12098      3.0092596e+08  1.7765572     -27813463      -27813463       1167.5608     -27812296      -1653.0115     -1604.1487     -1608.2215      4.4756736      46.43722      -6.8070917      16346.474    
     27000   392.44077      0.0135         0.17184822     0.16696759     0.16711504    -1664.3831      670.45174      670.45174      670.45174      3.0137177e+08  1.7739291     -27803318      -27803318       1168.6216     -27802149      -1696.0101     -1647.842      -1649.2973      3.7462542      43.989318     -5.1280471      16496.663    
     28000   392.93148      0.014          0.17600039     0.17125332     0.17119647    -1705.5685      670.7825       670.7825       670.7825       3.0181803e+08  1.7713063     -27792901      -27792901       1170.0829     -27791731      -1736.9888     -1690.1388     -1689.5778      3.6801389      42.82352      -3.6633689      16348.49     
     29000   393.70572      0.0145         0.17986199     0.17520209     0.17516341    -1744.3128      671.11326      671.11326      671.11326      3.0226472e+08  1.7686886     -27782221      -27782221       1172.3884     -27781049      -1775.0998     -1729.1102     -1728.7285      4.3468742      42.9389       -3.1201277      16461.204    
     30000   394.6173       0.015          0.18353759     0.17909044     0.17896306    -1781.6961      671.44402      671.44402      671.44402      3.0271186e+08  1.766076      -27771278      -27771278       1175.1029     -27770103      -1811.3752     -1767.4852     -1766.228       5.4148151      42.265757     -3.1210304      16031.771    
     31000   395.48064      0.0155         0.18699255     0.18292322     0.18263544    -1817.7522      671.77478      671.77478      671.77478      3.0315944e+08  1.7634686     -27760079      -27760079       1177.6738     -27758902      -1845.473      -1805.3118     -1802.4716      6.4904134      41.062431     -2.4660799      16353.631    
     32000   396.60885      0.016          0.19033021     0.18646362     0.18622917    -1852.2016      672.10555      672.10555      672.10555      3.0360746e+08  1.7608664     -27748640      -27748640       1181.0334     -27747459      -1878.4131     -1840.2528     -1837.939       6.5211001      40.771763     -0.78889893     16356.617    
     33000   398.14469      0.0165         0.19366941     0.18990655     0.18984964    -1886.4236      672.43631      672.43631      672.43631      3.0405592e+08  1.7582692     -27736972      -27736972       1185.6069     -27735787      -1911.3685     -1874.2319     -1873.6703      4.6420305      40.836348      0.30699798     16461.285    
     34000   399.85634      0.017          0.19710719     0.19341309     0.19347414    -1921.1923      672.76707      672.76707      672.76707      3.0450482e+08  1.7556772     -27725082      -27725082       1190.7039     -27723891      -1945.2967     -1908.8388     -1909.4413      2.2303937      39.941899      0.31596144     16343.35     
     35000   401.68056      0.0175         0.200564       0.19687557     0.19668847    -1954.5293      673.09783      673.09783      673.09783      3.0495416e+08  1.7530902     -27712972      -27712972       1196.1361     -27711776      -1979.4128     -1943.0108     -1941.1643      2.2165899      38.687368      1.4077944      16333.901    
     36000   403.65821      0.018          0.20376605     0.20015243     0.1997158     -1985.8024      673.42859      673.42859      673.42859      3.0540395e+08  1.7505084     -27700645      -27700645       1202.0252     -27699443      -2011.0146     -1975.3509     -1971.0417      4.1686411      37.787421      3.9201387      16349.28     
     37000   405.29514      0.0185         0.2067949      0.20331749     0.20301627    -2017.0365      673.75935      673.75935      673.75935      3.0585417e+08  1.7479316     -27688099      -27688099       1206.8997     -27686892      -2040.907      -2006.5876     -2003.6148      4.712024       37.017855      5.7474332      16345.82     
     38000   406.71785      0.019          0.20966725     0.20634611     0.20619345    -2046.9012      674.09011      674.09011      674.09011      3.0630484e+08  1.7453598     -27675342      -27675342       1211.1363     -27674131      -2069.2549     -2036.4778     -2034.9711      4.0050124      36.776094      5.6627755      16372.702    
     39000   408.92633      0.0195         0.21244546     0.20938133     0.20906726    -2075.48        674.42087      674.42087      674.42087      3.0675596e+08  1.7427931     -27662389      -27662389       1217.7128     -27661171      -2096.6736     -2066.4331     -2063.3334      4.2351633      36.851867      4.7053565      16474.017    
     40000   411.40903      0.02           0.21530444     0.21246615     0.21202459    -2104.7625      674.75163      674.75163      674.75163      3.0720751e+08  1.7402314     -27649250      -27649250       1225.1058     -27648025      -2124.8896     -2096.8779     -2092.52        5.5034939      36.263244      4.9281966      16291.195    
     41000   413.16846      0.0205         0.21799594     0.21533974     0.21488501    -2132.4803      675.08239      675.08239      675.08239      3.0765951e+08  1.7376748     -27635918      -27635918       1230.3451     -27634688      -2151.4526     -2125.238      -2120.7502      6.1987376      34.947448      6.5060487      16334.83     
     42000   414.38321      0.021          0.22044345     0.21801196     0.2175532     -2158.1005      675.41315      675.41315      675.41315      3.0811195e+08  1.7351231     -27622397      -27622397       1233.9624     -27621163      -2175.6077     -2151.6107     -2147.0831      4.8648557      33.075483      8.3968321      16477.192    
     43000   415.72915      0.0215         0.22291967     0.22053276     0.21998137    -2182.5275      675.74391      675.74391      675.74391      3.0856483e+08  1.7325765     -27608701      -27608701       1237.9704     -27607463      -2200.0461     -2176.4891     -2171.0473      3.3599177      31.419454      10.468064      16335.274    
     44000   417.6675       0.022          0.22546745     0.22289806     0.22228285    -2206.2616      676.07467      676.07467      676.07467      3.0901816e+08  1.7300348     -27594842      -27594842       1243.7425     -27593598      -2225.1907     -2199.8328     -2193.7612      4.2454396      30.200962      12.191596      16311.873    
     45000   419.88703      0.0225         0.22800659     0.22530635     0.22475622    -2230.6741      676.40543      676.40543      676.40543      3.0947193e+08  1.7274981     -27580818      -27580818       1250.3519     -27579568      -2250.2501     -2223.6008     -2218.1714      5.9257302      29.966183      12.423881      16473.22     
     46000   422.11699      0.023          0.23042604     0.22782828     0.22719254    -2254.9448      676.73619      676.73619      676.73619      3.0992614e+08  1.7249663     -27566625      -27566625       1256.9923     -27565368      -2274.1282     -2248.4903     -2242.216       5.4924462      30.826317      12.195785      16272.138    
     47000   424.29382      0.0235         0.23264641     0.23041102     0.22963443    -2278.779       677.06695      677.06695      677.06695      3.103808e+08   1.7224395     -27552264      -27552264       1263.4745     -27551001      -2296.0416     -2273.98       -2266.3156      3.5561737      31.312048      12.252287      16488.518    
     48000   425.92384      0.024          0.23480893     0.23283965     0.23209869    -2301.9896      677.39772      677.39772      677.39772      3.1083591e+08  1.7199177     -27537745      -27537745       1268.3285     -27536477      -2317.3839     -2297.9487     -2290.636       2.7710064      29.774167      12.60668       16337.602    
     49000   427.13896      0.0245         0.23683787     0.23489282     0.23415656    -2322.1885      677.72848      677.72848      677.72848      3.1129146e+08  1.7174007     -27523078      -27523078       1271.9469     -27521806      -2337.4081     -2318.2119     -2310.9455      3.5218899      26.541729      13.191129      16346.769    
     50000   428.4096       0.025          0.23870464     0.23683803     0.23598664    -2340.7494      678.05924      678.05924      678.05924      3.1174745e+08  1.7148887     -27508274      -27508274       1275.7306     -27506998      -2355.8316     -2337.4096     -2329.007       4.740309       24.857143      13.239084      15818.326    
     51000   429.77428      0.0255         0.24069271     0.23888847     0.23792861    -2360.4237      678.39         678.39         678.39         3.1220389e+08  1.7123815     -27493330      -27493330       1279.7944     -27492050      -2375.4523     -2357.6458     -2348.1728      5.6730856      25.580729      14.45054       16476.499    
     52000   431.47963      0.026          0.24274015     0.24079434     0.23973788    -2379.3811      678.72076      678.72076      678.72076      3.1266077e+08  1.7098793     -27478245      -27478245       1284.8727     -27476960      -2395.6591     -2376.4554     -2366.0289      5.9280653      26.082237      17.225691      16228.352    
     53000   433.5527       0.0265         0.24461375     0.24252497     0.24171096    -2397.729       679.05152      679.05152      679.05152      3.131181e+08   1.7073819     -27463028      -27463028       1291.0459     -27461736      -2414.15       -2393.5354     -2385.5017      5.719686       25.555624      18.525282      16123.755    
     54000   435.17276      0.027          0.24622224     0.24430201     0.24392326    -2416.1445      679.38228      679.38228      679.38228      3.1357588e+08  1.7048893     -27447683      -27447683       1295.8702     -27446387      -2430.0245     -2411.0734     -2407.3354      5.8407276      24.164162      18.187904      16355.462    
     55000   436.62121      0.0275         0.24752285     0.24595273     0.24563258    -2431.4768      679.71304      679.71304      679.71304      3.140341e+08   1.7024017     -27432220      -27432220       1300.1834     -27430920      -2442.8606     -2427.3647     -2424.2051      5.6587131      22.640933      18.249324      16291.519    
     56000   438.18245      0.028          0.24890843     0.24745296     0.24689153    -2445.112       680.0438       680.0438       680.0438       3.1449276e+08  1.6999188     -27416655      -27416655       1304.8325     -27415350      -2456.5352     -2442.1709     -2436.6299      4.341379       22.52897       17.29978       16499.612    
     57000   439.43774      0.0285         0.25042842     0.24882621     0.2481444     -2458.7517      680.37456      680.37456      680.37456      3.1495188e+08  1.6974408     -27400989      -27400989       1308.5706     -27399680      -2471.5364     -2455.7238     -2448.9949      3.5356951      22.640468      14.852327      16339.925    
     58000   440.63938      0.029          0.25202475     0.25026461     0.24946683    -2473.0856      680.70532      680.70532      680.70532      3.1541144e+08  1.6949676     -27385213      -27385213       1312.1488     -27383900      -2487.2909     -2469.9196     -2462.0462      3.9666692      20.958911      13.731042      16513.953    
     59000   442.11061      0.0295         0.25360281     0.25189487     0.25088562    -2488.3076      681.03608      681.03608      681.03608      3.1587144e+08  1.6924992     -27369328      -27369328       1316.5299     -27368012      -2502.8651     -2486.0091     -2476.0485      4.5356691      18.549202      15.627215      16383.881    
     60000   443.55076      0.03           0.25501959     0.25348199     0.25237463    -2503.0881      681.36684      681.36684      681.36684      3.163319e+08   1.6900356     -27353340      -27353340       1320.8184     -27352020      -2516.8476     -2501.6727     -2490.744       3.2749875      16.750016      18.156699      16497.287    
     61000   444.45162      0.0305         0.25621275     0.25472071     0.25390145    -2516.1112      681.6976       681.6976       681.6976       3.167928e+08   1.6875768     -27337254      -27337254       1323.501      -27335930      -2528.6232     -2513.8979     -2505.8125      2.1034874      16.393733      19.272414      16364.508    
     62000   445.06557      0.031          0.25726924     0.25578574     0.25512025    -2527.1         682.02836      682.02836      682.02836      3.1725415e+08  1.6851227     -27321073      -27321073       1325.3293     -27319748      -2539.05       -2524.409      -2517.8411      3.3808396      17.396075      18.76418       16511.187    
     63000   446.04642      0.0315         0.25816403     0.25686873     0.25594747    -2536.3278      682.35912      682.35912      682.35912      3.1771594e+08  1.6826734     -27304811      -27304811       1328.2501     -27303483      -2547.8809     -2535.0973     -2526.0051      4.847998       17.842423      17.295227      16359.859    
     64000   447.03053      0.032          0.25917319     0.25795944     0.25693468    -2546.4835      682.68988      682.68988      682.68988      3.1817819e+08  1.6802288     -27288468      -27288468       1331.1806     -27287137      -2557.8405     -2545.8617     -2535.7482      4.7196857      17.001952      17.511796      16480.113    
     65000   447.48832      0.0325         0.26039636     0.259011       0.25808139    -2557.7391      683.02065      683.02065      683.02065      3.1864088e+08  1.677789      -27272036      -27272036       1332.5438     -27270703      -2569.9123     -2556.2398     -2547.0653      3.4503311      16.418757      20.266633      16352.491    
     66000   447.96612      0.033          0.26142633     0.2600506      0.2590586     -2567.7622      683.35141      683.35141      683.35141      3.1910402e+08  1.6753539     -27255522      -27255522       1333.9666     -27254188      -2580.0773     -2566.4999     -2556.7096      1.8435742      16.110593      22.296686      16195.749    
     67000   448.82055      0.0335         0.26200462     0.26087761     0.25978655    -2574.7801      683.68217      683.68217      683.68217      3.1956761e+08  1.6729235     -27238949      -27238949       1336.511      -27237613      -2585.7846     -2574.6618     -2563.8939      0.93202855     15.423024      22.108033      16468.059    
     68000   449.83721      0.034          0.2624646      0.26149456     0.26039559    -2580.3265      684.01293      684.01293      684.01293      3.2003165e+08  1.6704978     -27222326      -27222326       1339.5384     -27220987      -2590.3242     -2580.7506     -2569.9047      0.59188383     14.012411      20.993717      16393.197    
     69000   450.31229      0.0345         0.26304547     0.26222435     0.26121738    -2587.3417      684.34369      684.34369      684.34369      3.2049614e+08  1.6680768     -27205643      -27205643       1340.9531     -27204302      -2596.057      -2587.9531     -2578.0151      0.77985231     12.094131      18.65775       16324.725    
     70000   450.2803       0.035          0.26376997     0.26292563     0.26190927    -2594.3083      684.67445      684.67445      684.67445      3.2096107e+08  1.6656605     -27188896      -27188896       1340.8579     -27187555      -2603.2072     -2594.8742     -2584.8435      0.6622003      9.8139497      15.839702      16312.631    
     71000   450.53127      0.0355         0.26451774     0.26356128     0.2623034     -2600.156       685.00521      685.00521      685.00521      3.2142646e+08  1.6632488     -27172092      -27172092       1341.6052     -27170750      -2610.5871     -2601.1476     -2588.7333      0.78829899     8.4694327      15.699762      16473.804    
     72000   451.39269      0.036          0.2649189      0.26417522     0.26264093    -2604.6058      685.33597      685.33597      685.33597      3.2189229e+08  1.6608418     -27155238      -27155238       1344.1704     -27153894      -2614.5462     -2607.2067     -2592.0644      1.4659212      8.4839105      18.479809      16303.658    
     73000   452.52723      0.0365         0.26509284     0.26463904     0.26309115    -2608.1849      685.66673      685.66673      685.66673      3.2235858e+08  1.6584394     -27138349      -27138349       1347.5488     -27137002      -2616.2629     -2611.7842     -2596.5077      1.5338181      8.9034362      20.837045      16482.739    
     74000   453.26495      0.037          0.26541066     0.26495527     0.26365058    -2612.1112      685.99749      685.99749      685.99749      3.2282531e+08  1.6560417     -27121423      -27121423       1349.7456     -27120073      -2619.3995     -2614.9052     -2602.0289      0.57165785     9.4504802      21.825986      16459.65     
     75000   453.23723      0.0375         0.26571879     0.26528455     0.26418327    -2615.9605      686.32825      686.32825      686.32825      3.232925e+08   1.6536485     -27104453      -27104453       1349.6631     -27103104      -2622.4406     -2618.1549     -2607.2862     -0.7694288      9.3115623      21.567336      16443.485    
     76000   452.95685      0.038          0.26573853     0.26561388     0.26435085    -2617.6602      686.65901      686.65901      686.65901      3.2376014e+08  1.65126       -27087446      -27087446       1348.8282     -27086097      -2622.6354     -2621.4052     -2608.94       -2.0312697      7.6622208      19.939752      16477.825    
     77000   452.57859      0.0385         0.26585131     0.2659279      0.26438398    -2619.1732      686.98977      686.98977      686.98977      3.2422822e+08  1.6488761     -27070416      -27070416       1347.7018     -27069068      -2623.7484     -2624.5044     -2609.267      -2.3785224      6.2716072      18.081382      16467.778    
     78000   452.05431      0.039          0.26604113     0.26600217     0.26451962    -2620.4883      687.32053      687.32053      687.32053      3.2469676e+08  1.6464968     -27053367      -27053367       1346.1405     -27052021      -2625.6218     -2625.2373     -2610.6057     -1.6996402      5.461577       17.633148      16265.665    
     79000   451.84196      0.0395         0.26617367     0.26601253     0.26477505    -2621.7986      687.65129      687.65129      687.65129      3.2516575e+08  1.644122      -27036289      -27036289       1345.5082     -27034943      -2626.9298     -2625.3395     -2613.1266     -1.323499       4.2429393      17.629699      16300.812    
     80000   452.03772      0.04           0.26612291     0.26611774     0.26490479    -2622.4046      687.98205      687.98205      687.98205      3.2563519e+08  1.6417518     -27019186      -27019186       1346.0912     -27017840      -2626.4289     -2626.3779     -2614.407      -1.2081186      2.9278882      17.882251      16415.816    
     81000   452.64854      0.0405         0.26595551     0.26632132     0.26475833    -2622.0418      688.31281      688.31281      688.31281      3.2610508e+08  1.6393862     -27002064      -27002064       1347.9101     -27000716      -2624.7768     -2628.3871     -2612.9616     -2.0033523      2.1737038      19.075439      16218.428    
     82000   453.26978      0.041          0.26578616     0.26654693     0.26459966    -2621.7049      688.64358      688.64358      688.64358      3.2657542e+08  1.6370251     -26984929      -26984929       1349.76       -26983580      -2623.1055     -2630.6136     -2611.3956     -3.226658       1.8736663      19.839883      16350.423    
     83000   453.24321      0.0415         0.26569671     0.26652475     0.26453603    -2621.1283      688.97434      688.97434      688.97434      3.2704622e+08  1.6346685     -26967792      -26967792       1349.6809     -26966442      -2622.2227     -2630.3947     -2610.7676     -4.0851769      0.99595097     19.191338      16325.317    
     84000   452.40776      0.042          0.26557061     0.26605256     0.2643398     -2618.5146      689.3051       689.3051       689.3051       3.2751747e+08  1.6323165     -26950653      -26950653       1347.1931     -26949306      -2620.9782     -2625.7346     -2608.831      -4.0047402     -0.17696773     17.948318      16479.766    
     85000   451.36555      0.0425         0.26516289     0.26548443     0.26387727    -2613.7827      689.63586      689.63586      689.63586      3.2798917e+08  1.629969      -26933510      -26933510       1344.0895     -26932166      -2616.9542     -2620.1276     -2604.2661     -2.7505043     -1.0579805      16.336669      16234.36     
     86000   450.838        0.043          0.26452345     0.26524002     0.26325808    -2608.8381      689.96662      689.96662      689.96662      3.2846132e+08  1.6276259     -26916378      -26916378       1342.5186     -26915036      -2610.6435     -2617.7155     -2598.1552     -2.2372917     -1.8790638      15.673172      16354.774    
     87000   450.58363      0.0435         0.26387742     0.2651474      0.26293442    -2605.3433      690.29738      690.29738      690.29738      3.2893393e+08  1.6252874     -26899265      -26899265       1341.7611     -26897923      -2604.2677     -2616.8014     -2594.961      -3.1430897     -1.6740885      15.84996       16460.255    
     88000   450.02108      0.044          0.26332602     0.2650901      0.26288168    -2603.1674      690.62814      690.62814      690.62814      3.2940699e+08  1.6229533     -26882159      -26882159       1340.0859     -26880819      -2598.8258     -2616.2358     -2594.4405     -4.8161177     -1.0524797      16.612413      16336.588    
     89000   449.0552       0.0445         0.2628352      0.26498351     0.2627317     -2600.7086      690.9589       690.9589       690.9589       3.298805e+08   1.6206237     -26865050      -26865050       1337.2097     -26863713      -2593.9817     -2615.1839     -2592.9603     -5.2481873     -0.87005928     18.454992      16367.61     
     90000   448.09666      0.045          0.26229345     0.26436786     0.26210186    -2594.8291      691.28966      691.28966      691.28966      3.3035447e+08  1.6182986     -26847952      -26847952       1334.3553     -26846617      -2588.6351     -2609.1079     -2586.7443     -4.2699937     -2.0291755      19.709864      16480.566    
     91000   447.38516      0.0455         0.26177739     0.26326513     0.26118752    -2586.4957      691.62042      691.62042      691.62042      3.3082889e+08  1.6159779     -26830877      -26830877       1332.2366     -26829545      -2583.5419     -2598.2249     -2577.7204     -3.2216316     -4.6190804      18.169801      16347.363    
     92000   446.76041      0.046          0.2612173      0.2622267      0.2603931     -2578.6235      691.95118      691.95118      691.95118      3.3130376e+08  1.6136616     -26813835      -26813835       1330.3762     -26812504      -2578.0143     -2587.9763     -2569.8801     -3.3251448     -6.3421724      16.429846      16496.418    
     93000   446.40122      0.0465         0.26050226     0.26153387     0.25981464    -2572.089       692.28194      692.28194      692.28194      3.3177909e+08  1.6113498     -26796826      -26796826       1329.3066     -26795497      -2570.9575     -2581.1386     -2564.1711     -4.0033619     -6.1721532      16.277766      16342.885    
     94000   445.96217      0.047          0.25975863     0.26114052     0.2593049     -2566.6717      692.6127       692.6127       692.6127       3.3225487e+08  1.6090424     -26779856      -26779856       1327.9992     -26778528      -2563.6184     -2577.2565     -2559.1404     -3.4007937     -5.2158047      15.784876      16345.093    
     95000   445.28557      0.0475         0.25885315     0.26053275     0.25853229    -2559.1519      692.94346      692.94346      692.94346      3.3273111e+08  1.6067394     -26762919      -26762919       1325.9844     -26761593      -2554.682      -2571.2584     -2551.5154     -1.2602426     -4.2030551      14.858018      16455.2      
     96000   444.63733      0.048          0.25779244     0.25972864     0.25764156    -2550.0868      693.27422      693.27422      693.27422      3.332078e+08   1.6044407     -26746010      -26746010       1324.054      -26744686      -2544.2136     -2563.3224     -2542.7245     -0.38531328    -4.5221336      14.503104      16339.988    
     97000   443.80187      0.0485         0.25668277     0.25883549     0.25679309    -2540.7068      693.60498      693.60498      693.60498      3.3368495e+08  1.6021465     -26729143      -26729143       1321.5662     -26727821      -2533.262      -2554.5077     -2534.3508     -1.5199751     -6.843342       15.19116       16458.087    
     98000   442.6359       0.049          0.25562575     0.25783193     0.25599254    -2531.2944      693.93575      693.93575      693.93575      3.3416255e+08  1.5998566     -26712320      -26712320       1318.0941     -26711002      -2522.83       -2544.6033     -2526.4499     -2.3171024     -8.8432159      16.746126      16313.439    
     99000   441.19743      0.0495         0.25471678     0.256885       0.25520259    -2522.5902      694.26651      694.26651      694.26651      3.3464061e+08  1.5975711     -26695537      -26695537       1313.8106     -26694223      -2513.8592     -2535.2578     -2518.6537     -1.9330878     -8.6749826      17.541581      16348.174    
    100000   439.61894      0.05           0.25386082     0.25605512     0.25419244    -2513.7211      694.59727      694.59727      694.59727      3.3511912e+08  1.5952899     -26678789      -26678789       1309.1101     -26677480      -2505.4115     -2527.0675     -2508.6843     -1.4640377     -7.4814463      17.303889      16118.873    
    101000   438.0132       0.0505         0.25289578     0.2551185      0.25288201    -2503.1542      694.92803      694.92803      694.92803      3.3559809e+08  1.5930131     -26662099      -26662099       1304.3285     -26660794      -2495.8872     -2517.8238     -2495.7514     -1.0675155     -6.6048081      17.458706      16213.059    
    102000   436.65788      0.051          0.25176636     0.25387624     0.25164473    -2491.2816      695.25879      695.25879      695.25879      3.3607752e+08  1.5907406     -26645475      -26645475       1300.2926     -26644175      -2484.7408     -2505.5637     -2483.5403     -0.64540766    -6.8057548      17.757853      16437.582    
    103000   435.42905      0.0515         0.2504844      0.25258505     0.25070221    -2479.716       695.58955      695.58955      695.58955      3.365574e+08   1.5884725     -26628910      -26628910       1296.6334     -26627614      -2472.0888     -2492.8206     -2474.2384     -0.96760685    -7.7347555      17.225359      16344.218    
    104000   434.21112      0.052          0.24919627     0.2514931      0.24980672    -2468.9402      695.92031      695.92031      695.92031      3.3703774e+08  1.5862086     -26612395      -26612395       1293.0066     -26611102      -2459.3759     -2482.0439     -2465.4006     -1.6056187     -8.8652908      16.363596      16485.32     
    105000   433.27743      0.0525         0.24794542     0.25046563     0.24877481    -2458.0504      696.25107      696.25107      696.25107      3.3751853e+08  1.5839491     -26595934      -26595934       1290.2262     -26594644      -2447.0311     -2471.9036     -2455.2164     -1.7905571     -9.5390194      15.231279      16336.944    
    106000   432.65482      0.053          0.2466644      0.24931944     0.24780643    -2446.8798      696.58183      696.58183      696.58183      3.3799979e+08  1.5816938     -26579537      -26579537       1288.3722     -26578249      -2434.3884     -2460.5916     -2445.6593     -1.1905546     -9.9881249      13.995024      16450.779    
    107000   431.90107      0.0535         0.24551229     0.2482116      0.24675396    -2435.9827      696.91259      696.91259      696.91259      3.384815e+08   1.5794428     -26563201      -26563201       1286.1276     -26561915      -2423.018      -2449.6581     -2435.2722      0.038276459   -10.682468      13.211739      16479.283    
    108000   430.73461      0.054          0.24443129     0.2470338      0.24537292    -2424.0086      697.24335      697.24335      697.24335      3.3896366e+08  1.5771961     -26546928      -26546928       1282.6541     -26545646      -2412.3492     -2438.034      -2421.6424     -0.31015422    -10.85493       13.801247      16296.407    
    109000   429.19196      0.0545         0.24321873     0.24567627     0.24399585    -2411.0234      697.57411      697.57411      697.57411      3.3944629e+08  1.5749536     -26530718      -26530718       1278.0604     -26529440      -2400.3822     -2424.6363     -2408.0518     -1.3872294     -10.652077      15.138436      16495.75     
    110000   427.37247      0.055          0.24159998     0.24424041     0.2426711     -2396.6165      697.90487      697.90487      697.90487      3.3992937e+08  1.5727154     -26514583      -26514583       1272.6422     -26513310      -2384.4065     -2410.4654     -2394.9775     -1.1901612     -10.855529      15.02717       16301.627    
    111000   425.59659      0.0555         0.23980342     0.24271061     0.24116305    -2380.7125      698.23563      698.23563      698.23563      3.4041291e+08  1.5704815     -26498531      -26498531       1267.354      -26497264      -2366.6757     -2395.3675     -2380.0943      0.2304186     -11.048857      13.566649      16279.132    
    112000   423.80951      0.056          0.23841124     0.24119262     0.23974713    -2366.4808      698.56639      698.56639      698.56639      3.4089691e+08  1.5682517     -26482561      -26482561       1262.0324     -26481299      -2352.936      -2380.3861     -2366.1202      1.4761244     -11.314166      13.342111      16509.317    
    113000   422.05676      0.0565         0.23729667     0.23977739     0.23864341    -2354.5274      698.89715      698.89715      698.89715      3.4138137e+08  1.5660262     -26466661      -26466661       1256.813      -26465405      -2341.9361     -2366.4188     -2355.2273      1.4952528     -11.844984      14.515908      16295.409    
    114000   420.58972      0.057          0.23598729     0.23840283     0.23753841    -2342.0628      699.22791      699.22791      699.22791      3.4186629e+08  1.5638049     -26450835      -26450835       1252.4444     -26449582      -2329.0135     -2352.853      -2344.3218      1.0993691     -11.492769      14.68688       16465.305    
    115000   419.58184      0.0575         0.23426801     0.23692489     0.23619165    -2327.1142      699.55868      699.55868      699.55868      3.4235166e+08  1.5615878     -26435088      -26435088       1249.4431     -26433838      -2312.0455     -2338.2668     -2331.0303      1.2184542     -10.453332      13.575573      15580.859    
    116000   418.80341      0.058          0.23257203     0.23546051     0.23472522    -2311.8933      699.88944      699.88944      699.88944      3.428375e+08   1.5593748     -26419424      -26419424       1247.125      -26418176      -2295.3075     -2323.8145     -2316.5578      1.3965657     -10.16094       12.474066      16124.34     
    117000   417.7912       0.0585         0.23127298     0.2341618      0.2334466     -2299.141       700.2202       700.2202       700.2202       3.4332379e+08  1.5571661     -26403837      -26403837       1244.1109     -26402593      -2282.4868     -2310.9972     -2303.9388      1.7460223     -10.773367      12.449302      16475.519    
    118000   416.2224       0.059          0.23020864     0.23290186     0.23229966    -2287.7216      700.55096      700.55096      700.55096      3.4381054e+08  1.5549615     -26388314      -26388314       1239.4392     -26387075      -2271.9827     -2298.5626     -2292.6194      2.0381132     -12.042374      13.361707      15492.535    
    119000   414.26577      0.0595         0.2288539      0.23141975     0.23085333    -2273.631       700.88172      700.88172      700.88172      3.4429776e+08  1.5527611     -26372862      -26372862       1233.6127     -26371629      -2258.6123     -2283.9354     -2278.3452      1.4030574     -13.831986      13.836517      16466.726    
    120000   412.40421      0.06           0.22719476     0.22961554     0.22900229    -2256.148       701.21248      701.21248      701.21248      3.4478543e+08  1.5505648     -26357502      -26357502       1228.0693     -26356274      -2242.238      -2266.1292     -2260.0769      1.108731      -15.38432       13.342246      16367.195    
    121000   410.79129      0.0605         0.22547777     0.22775074     0.22714979    -2238.2706      701.54324      701.54324      701.54324      3.4527357e+08  1.5483727     -26342256      -26342256       1223.2663     -26341032      -2225.2926     -2247.7251     -2241.7942      2.5181501     -14.885649      11.892381      16470.613    
    122000   409.1251       0.061          0.22368673     0.22605688     0.22560736    -2221.732       701.874        701.874        701.874        3.4576216e+08  1.5461847     -26327107      -26327107       1218.3047     -26325889      -2207.6164     -2231.0079     -2226.5715      3.9914435     -12.957615      9.4965178      16427.737    
    123000   407.30168      0.0615         0.22198044     0.2246849      0.22429673    -2207.2935      702.20476      702.20476      702.20476      3.4625122e+08  1.5440008     -26312038      -26312038       1212.8749     -26310825      -2190.7766     -2217.4675     -2213.6366      3.270102      -11.997346      8.0711836      16448.197    
    124000   405.60774      0.062          0.22058662     0.22353332     0.22304469    -2194.801       702.53552      702.53552      702.53552      3.4674073e+08  1.5418211     -26297042      -26297042       1207.8306     -26295834      -2177.0207     -2206.1023     -2201.2799      1.5847494     -12.169521      8.9128083      16336.946    
    125000   404.1636       0.0625         0.21927841     0.22232347     0.22189309    -2182.7288      702.86628      702.86628      702.86628      3.4723071e+08  1.5396454     -26282119      -26282119       1203.5302     -26280915      -2164.1097     -2194.1621     -2189.9145      1.7459938     -12.575504      9.8749538      16490.58     
    126000   403.05111      0.063          0.21779152     0.22086536     0.22068198    -2169.0562      703.19704      703.19704      703.19704      3.4772115e+08  1.5374738     -26267264      -26267264       1200.2174     -26266064      -2149.4351     -2179.7716     -2177.9618      3.3187372     -13.119593      9.4186527      16325.772    
    127000   401.9582       0.0635         0.21627546     0.21916494     0.21920705    -2153.6227      703.5278       703.5278       703.5278       3.4821205e+08  1.5353063     -26252494      -26252494       1196.9629     -26251297      -2134.4729     -2162.9898     -2163.4053      4.7338269     -14.103414      7.8037112      16079.844    
    128000   400.2832       0.064          0.21473488     0.21732008     0.21738791    -2136.5009      703.85856      703.85856      703.85856      3.4870341e+08  1.5331429     -26237826      -26237826       1191.975      -26236634      -2119.2685     -2144.7824     -2145.4518      4.9216903     -14.967809      6.7668916      16483.087    
    129000   398.00806      0.0645         0.21308168     0.21540155     0.21540661    -2118.2329      704.18932      704.18932      704.18932      3.4919524e+08  1.5309836     -26223267      -26223267       1185.2001     -26222081      -2102.9527     -2125.848      -2125.898       4.2214295     -15.046364      6.9246898      16298.529    
    130000   395.65754      0.065          0.21143185     0.21364965     0.21366364    -2101.3082      704.52008      704.52008      704.52008      3.4968752e+08  1.5288283     -26208812      -26208812       1178.2006     -26207633      -2086.6702     -2108.5581     -2108.6962      3.56572       -15.537096      7.3339345      16319.101    
    131000   393.56763      0.0655         0.2099595      0.21222832     0.2123576     -2087.4921      704.85085      704.85085      704.85085      3.5018027e+08  1.526677      -26194437      -26194437       1171.9772     -26193265      -2072.1391     -2094.5307     -2095.8066      3.3969315     -15.376389      6.9895857      16433.75     
    132000   392.1541       0.066          0.20861042     0.21092937     0.21126196    -2075.1764      705.18161      705.18161      705.18161      3.5067348e+08  1.5245298     -26180136      -26180136       1167.768      -26178969      -2058.8248     -2081.711      -2084.9934      3.431615      -14.061104      5.6770137      16327.688    
    133000   391.22751      0.0665         0.20738247     0.20961796     0.21020128    -2063.3332      705.51237      705.51237      705.51237      3.5116716e+08  1.5223866     -26165902      -26165902       1165.0087     -26164737      -2046.7059     -2068.7684     -2074.5254      3.1910958     -13.980719      3.9463931      16318.268    
    134000   390.11477      0.067          0.20609677     0.20823612     0.2089429     -2050.4179      705.84313      705.84313      705.84313      3.5166129e+08  1.5202474     -26151738      -26151738       1161.6952     -26150577      -2034.0169     -2055.1307     -2062.1061      3.55169       -14.687631      2.9970342      16269.481    
    135000   389.16564      0.0675         0.20453926     0.20661533     0.20719811    -2034.2222      706.17389      706.17389      706.17389      3.521559e+08   1.5181122     -26137670      -26137670       1158.8688     -26136511      -2018.6456     -2039.1348     -2044.8864      3.8499374     -14.889086      2.3842939      16278.794    
    136000   388.43352      0.068          0.20289749     0.20495602     0.20539905    -2017.4441      706.50465      706.50465      706.50465      3.5265096e+08  1.515981      -26123704      -26123704       1156.6887     -26122548      -2002.4426     -2022.7587     -2027.131       3.7164119     -14.480255      1.5137611      16252.557    
    137000   387.02022      0.0685         0.20146972     0.20356077     0.20392815    -2003.3182      706.83541      706.83541      706.83541      3.5314649e+08  1.5138538     -26109830      -26109830       1152.4801     -26108677      -1988.3516     -2008.9886     -2012.6143      3.2496375     -14.012684      0.14379735     16485.992    
    138000   384.64481      0.069          0.2002094      0.20224686     0.20251809    -1990.2109      707.16617      707.16617      707.16617      3.5364248e+08  1.5117306     -26096028      -26096028       1145.4066     -26094882      -1975.9131     -1996.0213     -1998.6982      2.9447765     -13.717562     -0.51323973     16335.243    
    139000   382.13005      0.0695         0.19886658     0.20071169     0.20111947    -1976.1419      707.49693      707.49693      707.49693      3.5413894e+08  1.5096114     -26082300      -26082300       1137.918      -26081162      -1962.6605     -1980.8704     -1984.8949      2.7715849     -13.95694      -0.076410194    16454.631    
    140000   380.19567      0.07           0.19732605     0.19900378     0.19978499    -1961.0653      707.82769      707.82769      707.82769      3.5463586e+08  1.5074961     -26068659      -26068659       1132.1578     -26067527      -1947.4567     -1964.0146     -1971.7245      2.9650725     -14.078297     -0.031463828    16353.632    
    141000   379.00096      0.0705         0.19578641     0.19736617     0.19843583    -1946.1745      708.15845      708.15845      708.15845      3.5513324e+08  1.5053847     -26055106      -26055106       1128.6001     -26053978      -1932.2616     -1947.8527     -1958.4094      3.3762825     -14.194593     -1.5947001      16356.184    
    142000   378.18386      0.071          0.19453279     0.1960667      0.19721564    -1933.7614      708.48921      708.48921      708.48921      3.5563109e+08  1.5032773     -26041638      -26041638       1126.1669     -26040512      -1919.8894     -1935.0279     -1946.367       2.7991896     -14.595608     -3.4468941      16467.418    
    143000   377.29599      0.0715         0.19351483     0.19505149     0.19616032    -1923.6011      708.81997      708.81997      708.81997      3.5612941e+08  1.5011739     -26028236      -26028236       1123.523      -26027112      -1909.8429     -1925.0086     -1935.9519      1.4231746     -14.712823     -3.9390915      16355.075    
    144000   376.07016      0.072          0.19256083     0.19408852     0.19511278    -1913.8486      709.15073      709.15073      709.15073      3.5662819e+08  1.4990743     -26014887      -26014887       1119.8727     -26013768      -1900.4277     -1915.5048     -1925.6134      0.69241045    -14.374787     -3.1303035      16355.345    
    145000   374.54674      0.0725         0.19137849     0.1929042      0.19381887    -1901.8063      709.48149      709.48149      709.48149      3.5712744e+08  1.4969787     -26001595      -26001595       1115.3362     -26000480      -1888.7588     -1903.8165     -1912.8435      1.3527899     -13.758932     -2.3521537      16478.197    
    146000   373.27451      0.073          0.18988177     0.19136916     0.19231297    -1886.8786      709.81225      709.81225      709.81225      3.5762715e+08  1.494887      -25988381      -25988381       1111.5477     -25987270      -1873.9874     -1888.6668     -1897.9815      1.9942171     -13.034139     -2.3843715      16337.913    
    147000   372.35823      0.0735         0.18840675     0.18975291     0.19083489    -1871.8465      710.14301      710.14301      710.14301      3.5812732e+08  1.4927992     -25975260      -25975260       1108.8192     -25974151      -1859.43       -1872.7156     -1883.3939      1.4871942     -12.682466     -3.2029008      16330.425    
    148000   371.10123      0.074          0.18731493     0.18847466     0.18951099    -1859.6943      710.47378      710.47378      710.47378      3.5862797e+08  1.4907152     -25962220      -25962220       1105.0761     -25961115      -1848.6547     -1860.1003     -1870.3281      0.57311468    -12.784845     -4.558372       16471.047    
    149000   369.34524      0.0745         0.18627934     0.18749973     0.18816827    -1848.663       710.80454      710.80454      710.80454      3.5912908e+08  1.4886351     -25949247      -25949247       1099.8471     -25948147      -1838.4341     -1850.4784     -1857.0764      0.50189353    -12.952324     -6.1589944      16305.589    
    150000   367.70203      0.075          0.18511723     0.18645046     0.18686398    -1837.0974      711.1353       711.1353       711.1353       3.5963066e+08  1.4865589     -25936337      -25936337       1094.9539     -25935242      -1826.965      -1840.123      -1844.2041      1.6109541     -12.863227     -7.0364329      15893.156    
    151000   366.48181      0.0755         0.18396312     0.18524322     0.1856873     -1825.4582      711.46606      711.46606      711.46606      3.601327e+08   1.4844866     -25923498      -25923498       1091.3203     -25922406      -1815.5748     -1828.2085     -1832.5912      2.0999085     -12.423022     -6.2698527      16352.308    
    152000   365.46322      0.076          0.18289613     0.1840101      0.18466831    -1814.5391      711.79682      711.79682      711.79682      3.6063521e+08  1.4824181     -25910720      -25910720       1088.2871     -25909632      -1805.0444     -1816.0384     -1822.5345      1.3571938     -11.774454     -4.6632943      16313.943    
    153000   364.48805      0.0765         0.18200595     0.18288123     0.18379183    -1805.0136      712.12758      712.12758      712.12758      3.6113819e+08  1.4803535     -25897999      -25897999       1085.3832     -25896914      -1796.259      -1804.8974     -1813.8843      0.75134454    -11.065789     -3.574668       16462.04     
    154000   363.68528      0.077          0.18119588     0.18179038     0.18295069    -1795.9929      712.45834      712.45834      712.45834      3.6164163e+08  1.4782926     -25885335      -25885335       1082.9927     -25884252      -1788.2643     -1794.1316     -1805.5829      0.26654987    -10.907303     -3.6721071      16311.406    
    155000   362.90334      0.0775         0.18024957     0.18078303     0.18199761    -1786.4305      712.7891       712.7891       712.7891       3.6214555e+08  1.4762357     -25872727      -25872727       1080.6642     -25871646      -1778.925      -1784.1898     -1796.1767     -0.31430216    -11.185914     -4.1139885      16319.598    
    156000   361.79164      0.078          0.17923607     0.17987793     0.18088392    -1776.455       713.11986      713.11986      713.11986      3.6264993e+08  1.4741825     -25860166      -25860166       1077.3537     -25859089      -1768.9225     -1775.2571     -1785.1855     -0.20564996    -10.942934     -4.302965       16458.555    
    157000   360.47511      0.0785         0.17818858     0.17889583     0.17967296    -1765.7945      713.45062      713.45062      713.45062      3.6315478e+08  1.4721331     -25847656      -25847656       1073.4333     -25846582      -1758.5846     -1765.5646     -1773.2343      1.1082338     -10.182283     -4.9071942      16448.741    
    158000   359.26045      0.079          0.17716712     0.17786834     0.17848404    -1755.1427      713.78138      713.78138      713.78138      3.6366009e+08  1.4700875     -25835209      -25835209       1069.8163     -25834139      -1748.5035     -1755.424      -1761.5005      2.0305281     -9.9676609     -6.0522677      16319.476    
    159000   357.93323      0.0795         0.17615556     0.17701838     0.17752112    -1745.851       714.11214      714.11214      714.11214      3.6416588e+08  1.4680457     -25822828      -25822828       1065.864      -25821762      -1738.5203     -1747.0356     -1751.9972      0.8243092     -9.9957651     -6.7957525      16440.027    
    160000   356.36557      0.08           0.17509922     0.17618004     0.17669119    -1736.8877      714.4429       714.4429       714.4429       3.6467213e+08  1.4660077     -25810501      -25810501       1061.1958     -25809440      -1728.0949     -1738.7618     -1743.8064     -1.271536      -9.7873709     -6.323127       16281.147    
    161000   355.08727      0.0805         0.1740971      0.17519509     0.17570895    -1727.1195      714.77366      714.77366      714.77366      3.6517886e+08  1.4639735     -25798216      -25798216       1057.3892     -25797159      -1718.2048     -1729.0411     -1734.1125     -1.8839422     -9.6273937     -5.4264973      16451.75     
    162000   354.3828       0.081          0.17332378     0.17416907     0.17469366    -1717.8601      715.10442      715.10442      715.10442      3.6568605e+08  1.461943      -25785976      -25785976       1055.2915     -25784920      -1710.5727     -1718.9151     -1724.0924     -0.47325683    -9.5477656     -6.0043065      16273.986    
    163000   353.94435      0.0815         0.17278973     0.1732109      0.17385545    -1710.1935      715.43518      715.43518      715.43518      3.6619371e+08  1.4599163     -25773783      -25773783       1053.9858     -25772729      -1705.302      -1709.4587     -1715.8199      0.60957374    -9.4895329     -6.8307421      16209.474    
    164000   353.74688      0.082          0.17224969     0.17238749     0.17319102    -1703.5223      715.76594      715.76594      715.76594      3.6670184e+08  1.4578933     -25761638      -25761638       1053.3978     -25760585      -1699.9723     -1701.3323     -1709.2625      0.72724779    -8.3689735     -4.9115215      16286.521    
    165000   353.80943      0.0825         0.17154737     0.17181301     0.17252869    -1697.1431      716.09671      716.09671      716.09671      3.6721045e+08  1.4558741     -25749539      -25749539       1053.5841     -25748485      -1693.0409     -1695.6626     -1702.7258      0.33196567    -6.6795042     -2.043824       16314.901    
    166000   353.35552      0.083          0.17073168     0.17130878     0.1718489     -1690.5646      716.42747      716.42747      716.42747      3.6771952e+08  1.4538586     -25737476      -25737476       1052.2324     -25736423      -1684.9907     -1690.6862     -1696.0168     -0.42933173    -6.1846154     -0.92062665     14011.479    
    167000   352.13751      0.0835         0.16985523     0.17051816     0.17089368    -1681.9379      716.75823      716.75823      716.75823      3.6822906e+08  1.4518468     -25725450      -25725450       1048.6054     -25724401      -1676.3408     -1682.8834     -1686.5895     -0.9677131     -6.6890779     -2.4437092      15400.295    
    168000   350.66873      0.084          0.16901798     0.16956068     0.16986839    -1672.6608      717.08899      717.08899      717.08899      3.6873907e+08  1.4498387     -25713467      -25713467       1044.2316     -25712423      -1668.0778     -1673.4338     -1676.4707     -0.15379541    -6.9718911     -4.9127038      16395.168    
    169000   349.13405      0.0845         0.16832836     0.16872192     0.16903676    -1664.8969      717.41975      717.41975      717.41975      3.6924956e+08  1.4478343     -25701523      -25701523       1039.6616     -25700483      -1661.2717     -1665.1559     -1668.2631      1.2286499     -6.2346956     -5.734564       16304.659    
    170000   347.87539      0.085          0.16766673     0.16803071     0.16829737    -1658.014       717.75051      717.75051      717.75051      3.6976051e+08  1.4458336     -25689614      -25689614       1035.9135     -25688578      -1654.742      -1658.3342     -1660.9659      2.0159374     -4.7344218     -4.7611927      16310.156    
    171000   347.04157      0.0855         0.16705189     0.16741195     0.16758795    -1651.6219      718.08127      718.08127      718.08127      3.7027193e+08  1.4438366     -25677747      -25677747       1033.4305     -25676713      -1648.6739     -1652.2275     -1653.9644      1.7606774     -4.2710559     -4.0378953      16283.001    
    172000   346.60655      0.086          0.1663902      0.16669216     0.16682966    -1644.5827      718.41203      718.41203      718.41203      3.7078383e+08  1.4418433     -25665920      -25665920       1032.1351     -25664888      -1642.1436     -1645.1238     -1646.4807      1.2915815     -5.4680671     -3.7371441      16450.923    
    173000   346.50634      0.0865         0.16562689     0.16587821     0.16613745    -1637.1167      718.74279      718.74279      718.74279      3.712962e+08   1.4398536     -25654132      -25654132       1031.8367     -25653100      -1634.6103     -1637.0907     -1639.6491      1.2685802     -6.5807612     -2.6275305      16458.477    
    174000   346.45907      0.087          0.16486851     0.16527591     0.16561324    -1630.9159      719.07355      719.07355      719.07355      3.7180904e+08  1.4378676     -25642375      -25642375       1031.696      -25641344      -1627.1257     -1631.1464     -1634.4756      1.646045      -5.9882534     -1.5614965      16398.766    
    175000   346.0895       0.0875         0.16426579     0.16492858     0.16515281    -1626.2758      719.40431      719.40431      719.40431      3.7232235e+08  1.4358852     -25630647      -25630647       1030.5954     -25629616      -1621.1773     -1627.7185     -1629.9315      1.6116637     -4.4066692     -1.241553       16356.15     
    176000   345.36678      0.088          0.16377508     0.16436882     0.16456922    -1620.9001      719.73507      719.73507      719.73507      3.7283614e+08  1.4339065     -25618950      -25618950       1028.4433     -25617922      -1616.3344     -1622.1941     -1624.1719      0.077226934   -3.9490129     -1.06761        16289.204    
    177000   344.47888      0.0885         0.16325201     0.16354501     0.16388966    -1614.2337      720.06583      720.06583      720.06583      3.7335039e+08  1.4319314     -25607284      -25607284       1025.7993     -25606258      -1611.1721     -1614.0638     -1617.4652     -1.0037217     -4.9734065     -1.416609       16470.016    
    178000   343.41703      0.089          0.16255297     0.16272834     0.16308418    -1606.5976      720.39659      720.39659      720.39659      3.7386512e+08  1.42996       -25595652      -25595652       1022.6373     -25594629      -1604.2731     -1606.0039     -1609.5157     -0.42676382    -5.2085088     -2.8147103      16274.206    
    179000   342.45852      0.0895         0.16174833     0.16212451     0.16220652    -1599.0768      720.72735      720.72735      720.72735      3.7438032e+08  1.4279922     -25584055      -25584055       1019.783      -25583036      -1596.3319     -1600.0445     -1600.8539      0.040917362   -4.2790044     -3.6077968      16476.139    
    180000   341.87881      0.09           0.16113559     0.16166603     0.16158334    -1593.5026      721.05811      721.05811      721.05811      3.74896e+08    1.4260279     -25572490      -25572490       1018.0567     -25571472      -1590.2846     -1595.5196     -1594.7036     -0.17330312    -3.4114182     -2.9207716      16314.367    
    181000   341.61385      0.0905         0.16086596     0.16126006     0.16124184    -1590.1566      721.38888      721.38888      721.38888      3.7541215e+08  1.4240673     -25560952      -25560952       1017.2677     -25559934      -1587.6236     -1591.5131     -1591.3332     -0.0049832048  -3.3513249     -2.4271675      16316.869    
    182000   341.31589      0.091          0.16062787     0.16076019     0.16089869    -1586.6         721.71964      721.71964      721.71964      3.7592877e+08  1.4221103     -25549432      -25549432       1016.3804     -25548416      -1585.2738     -1586.5797     -1587.9466      0.50405763    -3.2743439     -2.4977575      16316.992    
    183000   341.01638      0.0915         0.1600775      0.16012213     0.16046561    -1581.2657      722.0504       722.0504       722.0504       3.7644587e+08  1.4201568     -25537932      -25537932       1015.4886     -25536917      -1579.8421     -1580.2826     -1583.6725      1.9589628     -2.6130545     -1.6516938      16301.596    
    184000   340.73011      0.092          0.15927678     0.15948913     0.15993675    -1574.8093      722.38116      722.38116      722.38116      3.7696344e+08  1.418207      -25526458      -25526458       1014.6361     -25525444      -1571.9396     -1574.0354     -1578.453       2.76127       -1.9320776     -0.27541084     16330.181    
    185000   340.61499      0.0925         0.15850711     0.15875274     0.15922721    -1567.5205      722.71192      722.71192      722.71192      3.7748148e+08  1.4162606     -25515019      -25515019       1014.2933     -25514004      -1564.3435     -1566.7677     -1571.4503      2.3726726     -1.9395876      0.4992587      16291.384    
    186000   340.5952       0.093          0.15792215     0.15801732     0.15850665    -1560.8064      723.04268      723.04268      723.04268      3.78e+08       1.4143179     -25503626      -25503626       1014.2344     -25502612      -1558.5704     -1559.5097     -1564.339       1.913786      -3.2830715     -0.13850408     16485.753    
    187000   340.16808      0.0935         0.15757339     0.15754374     0.15799338    -1556.4126      723.37344      723.37344      723.37344      3.7851899e+08  1.4123787     -25492270      -25492270       1012.9625     -25491257      -1555.1284     -1554.8358     -1559.2734      1.4245208     -4.8057867     -1.4102059      16518.803    
    188000   339.21424      0.094          0.15727598     0.15732961     0.15746118    -1552.979       723.7042       723.7042       723.7042       3.7903846e+08  1.4104431     -25480928      -25480928       1010.1221     -25479918      -1552.1933     -1552.7225     -1554.0211      0.46092616    -4.8038        -1.8561058      16309.823    
    189000   338.37859      0.0945         0.15680097     0.15706247     0.15682484    -1548.4441      724.03496      724.03496      724.03496      3.795584e+08   1.408511      -25469598      -25469598       1007.6337     -25468590      -1547.5053     -1550.0861     -1547.7408      0.077958992   -3.2704853     -1.1761564      16460.987    
    190000   337.86251      0.095          0.15625307     0.15666828     0.15619695    -1543.2792      724.36572      724.36572      724.36572      3.8007882e+08  1.4065824     -25458287      -25458287       1006.0969     -25457280      -1542.0979     -1546.1957     -1541.544       0.63975089    -1.8806598     -0.093706323    16326.73     
    191000   337.74151      0.0955         0.15567166     0.15613665     0.15566683    -1537.8736      724.69648      724.69648      724.69648      3.8059971e+08  1.4046573     -25447001      -25447001       1005.7365     -25445995      -1536.3598     -1540.9489     -1536.3122      1.9626093     -1.7083654      0.38991967     16290.24     
    192000   337.75203      0.096          0.15528184     0.15554177     0.15537793    -1533.6838      725.02724      725.02724      725.02724      3.8112108e+08  1.4027357     -25435748      -25435748       1005.7679     -25434742      -1532.5126     -1535.0779     -1533.461       3.0394055     -2.6385985      0.24958942     16473.051    
    193000   337.28815      0.0965         0.15506392     0.15499499     0.15524262    -1530.723       725.358        725.358        725.358        3.8164293e+08  1.4008177     -25424513      -25424513       1004.3865     -25423509      -1530.3619     -1529.6816     -1532.1256      3.2050373     -3.9730389      0.24704387     15966.753    
    194000   336.82244      0.097          0.15464994     0.15444491     0.15487863    -1526.3541      725.68876      725.68876      725.68876      3.8216525e+08  1.3989031     -25413290      -25413290       1002.9997     -25412287      -1526.2762     -1524.2528     -1528.5332      2.8971922     -4.2089058      0.5230243      16492.533    
    195000   336.93603      0.0975         0.15398385     0.15390448     0.15426798    -1520.376       726.01952      726.01952      726.01952      3.8268805e+08  1.3969921     -25402094      -25402094       1003.338      -25401091      -1519.7024     -1518.9191     -1522.5066      2.2605891     -3.4661548      0.51638146     16420.004    
    196000   337.03848      0.098          0.15339338     0.15350683     0.15364993    -1515.0922      726.35028      726.35028      726.35028      3.8321132e+08  1.3950845     -25390926      -25390926       1003.6431     -25389922      -1513.8749     -1514.9946     -1516.4069      0.95180717    -2.8396395      0.90529195     16359.074    
    197000   336.8428       0.0985         0.1530496      0.15312245     0.15305815    -1510.7499      726.68104      726.68104      726.68104      3.8373507e+08  1.3931804     -25379778      -25379778       1003.0603     -25378775      -1510.4821     -1511.2011     -1510.5665      0.023564376   -2.529394       1.1965395      16444.967    
    198000   336.68619      0.099          0.15273656     0.15268684     0.15257772    -1506.7065      727.01181      727.01181      727.01181      3.842593e+08   1.3912797     -25368657      -25368657       1002.594      -25367654      -1507.3926     -1506.902      -1505.825       0.75293865    -2.1980085      0.060605467    16426.946    
    199000   336.33233      0.0995         0.15225754     0.15227786     0.15217828    -1502.4712      727.34257      727.34257      727.34257      3.8478401e+08  1.3893825     -25357559      -25357559       1001.5403     -25356557      -1502.6651     -1502.8656     -1501.8828      2.2881809     -2.0395557     -0.72208468     16328.29     
    200000   335.72325      0.1            0.15165162     0.1518889      0.15164051    -1497.4291      727.67333      727.67333      727.67333      3.8530919e+08  1.3874887     -25346482      -25346482       999.72652     -25345482      -1496.6851     -1499.0269     -1496.5755      2.8986861     -2.2175747      0.35851214     16087.21     
    201000   335.16369      0.1005         0.15104021     0.15136426     0.15098324    -1491.5296      728.00409      728.00409      728.00409      3.8583485e+08  1.3855984     -25335434      -25335434       998.06024     -25334436      -1490.651      -1493.8491     -1490.0887      2.8733275     -2.1294035      1.7823153      16395.358    
    202000   334.70238      0.101          0.15048093     0.15075306     0.15050055    -1486.0911      728.33485      728.33485      728.33485      3.8636099e+08  1.3837116     -25324416      -25324416       996.68653     -25323419      -1485.1313     -1487.817      -1485.3249      2.4550888     -1.8327726      1.4334161      16476.176    
    203000   334.32947      0.1015         0.15016426     0.15016744     0.15018664    -1482.0901      728.66561      728.66561      728.66561      3.8688761e+08  1.3818281     -25313420      -25313420       995.57607     -25312425      -1482.006      -1482.0374     -1482.2269      1.5931613     -2.3852751      0.29060014     16408.271    
    204000   334.22992      0.102          0.15015367     0.1498148      0.14993194    -1480.0573      728.99637      728.99637      728.99637      3.874147e+08   1.3799481     -25302432      -25302432       995.27962     -25301437      -1481.9015     -1478.5572     -1479.7132      0.61137656    -2.8424614     -0.20524977     16408.012    
    205000   334.38367      0.1025         0.1501221      0.14973044     0.14974964    -1479.0762      729.32713      729.32713      729.32713      3.8794227e+08  1.3780714     -25291441      -25291441       995.73746     -25290445      -1481.59       -1477.7245     -1477.914       0.62183752    -2.2749119      0.29460817     14118.088    
    206000   334.57973      0.103          0.14962082     0.14956259     0.14955955    -1476.2496      729.65789      729.65789      729.65789      3.8847033e+08  1.3761982     -25280461      -25280461       996.3213      -25279464      -1476.6427     -1476.068      -1476.038       1.7427962     -1.2403312      1.2915287      16453.271    
    207000   334.70449      0.1035         0.14887015     0.14909758     0.14909871    -1470.7343      729.98865      729.98865      729.98865      3.8899886e+08  1.3743284     -25269509      -25269509       996.69282     -25268512      -1469.2342     -1471.4787     -1471.4899      2.4527308     -1.1962327      2.0356128      16421.821    
    208000   334.53899      0.104          0.14832851     0.14849356     0.14840979    -1464.699       730.31941      730.31941      730.31941      3.8952787e+08  1.3724619     -25258591      -25258591       996.19999     -25257595      -1463.8886     -1465.5175     -1464.6908      2.5342721     -2.2553604      2.0224321      16458.535    
    209000   334.15483      0.1045         0.14798447     0.14797894     0.14778834    -1459.8298      730.65017      730.65017      730.65017      3.9005736e+08  1.3705989     -25247697      -25247697       995.05602     -25246702      -1460.4932     -1460.4386     -1458.5575      2.9131631     -3.4771695      1.3421118      16413.999    
    210000   333.78223      0.105          0.1475075      0.14748099     0.14730431    -1455.0302      730.98093      730.98093      730.98093      3.9058733e+08  1.3687392     -25236822      -25236822       993.94649     -25235828      -1455.7858     -1455.5242     -1453.7805      3.428205      -3.4650721      0.85213061     16441.48     
    211000   333.58602      0.1055         0.14695753     0.14701488     0.14696761    -1450.5799      731.31169      731.31169      731.31169      3.9111777e+08  1.3668828     -25225969      -25225969       993.36221     -25224976      -1450.3581     -1450.9241     -1450.4575      3.1043386     -2.0975055      0.60226647     16428.359    
    212000   333.3807       0.106          0.14657295     0.1465939      0.14664395    -1446.865       731.64245      731.64245      731.64245      3.916487e+08   1.3650298     -25215145      -25215145       992.75079     -25214152      -1446.5625     -1446.7693     -1447.2632      2.0710431     -0.86464942     0.021905202    16480.4      
    213000   332.93124      0.1065         0.14636221     0.14626745     0.14627199    -1443.8742      731.97321      731.97321      731.97321      3.9218011e+08  1.3631802     -25204340      -25204340       991.41239     -25203348      -1444.4827     -1443.5475     -1443.5923      1.6963936     -0.51444878     0.23784999     16248.743    
    214000   332.34965      0.107          0.14615125     0.14597436     0.1459335     -1441.1024      732.30398      732.30398      732.30398      3.92712e+08    1.3613339     -25193545      -25193545       989.68051     -25192555      -1442.4007     -1440.6549     -1440.2517      2.4859107     -0.73196713     1.0091589      16420.942    
    215000   332.07468      0.1075         0.14577839     0.14566531     0.14561701    -1437.818       732.63474      732.63474      732.63474      3.9324437e+08  1.359491      -25182756      -25182756       988.86169     -25181768      -1438.7209     -1437.6049     -1437.1282      3.0458077     -1.4326877      1.3269418      16317.297    
    216000   332.16691      0.108          0.14535435     0.14533773     0.14523627    -1434.0927      732.9655       732.9655       732.9655       3.9377722e+08  1.3576513     -25171976      -25171976       989.13635     -25170987      -1434.5359     -1434.3718     -1433.3705      2.1681513     -2.1267676      1.7062477      16270.751    
    217000   332.43848      0.1085         0.14499541     0.14495651     0.1448072     -1430.2463      733.29626      733.29626      733.29626      3.9431056e+08  1.355815      -25161210      -25161210       989.94501     -25160220      -1430.9935     -1430.6096     -1429.136       1.3503239     -1.5513871      2.4725979      16424.251    
[...]
   3236000   324.40147      1.618          0.0093785215   0.0093498621   0.0091406289  -91.681923      1731.8625      1731.8625      1731.8625      5.194458e+09   0.10291972    -7104721.8     -7104721.8      966.0122      -7103755.8     -92.558811     -92.275964     -90.210993      0.60201401     0.38308063     1.4439173      14644.273    
   3237000   324.39035      1.6185         0.0093731662   0.0093463364   0.0091345151  -91.632594      1732.1933      1732.1933      1732.1933      5.1974348e+09  0.10286077    -7100899.4     -7100899.4      965.97908     -7099933.5     -92.505958     -92.241168     -90.150654      0.60980445     0.39082537     1.4414571      14637.353    
   3238000   324.38318      1.619          0.0093663606   0.0093422544   0.0091288548  -91.578155      1732.524       1732.524       1732.524       5.2004127e+09  0.10280187    -7097077.5     -7097077.5      965.95772     -7096111.6     -92.438792     -92.200882     -90.094792      0.63437071     0.39180374     1.4439354      14649.114    
   3239000   324.37364      1.6195         0.0093559794   0.0093352985   0.0091215489  -91.497086      1732.8548      1732.8548      1732.8548      5.2033917e+09  0.10274302    -7093256.9     -7093256.9      965.92932     -7092290.9     -92.336338     -92.132233     -90.022689      0.65114358     0.38297178     1.4548376      14613.615    
   3240000   324.35293      1.62           0.0093441566   0.0093259813   0.0091122867  -91.397071      1733.1856      1733.1856      1733.1856      5.2063719e+09  0.10268421    -7089438.7     -7089438.7      965.86764     -7088472.9     -92.219656     -92.040279     -89.931277      0.64634969     0.37042633     1.4656799      14655.625    
   3241000   324.31117      1.6205         0.0093347018   0.0093159948   0.0091024649  -91.300803      1733.5163      1733.5163      1733.5163      5.2093532e+09  0.10262544    -7085623.5     -7085623.5      965.74328     -7084657.7     -92.126344     -91.94172      -89.834344      0.63277082     0.37319169     1.4645288      14651.373    
   3242000   324.25384      1.621          0.0093279553   0.0093068559   0.0090935137  -91.219097      1733.8471      1733.8471      1733.8471      5.2123357e+09  0.10256672    -7081810.5     -7081810.5      965.57255     -7080845       -92.059761     -91.851527     -89.746003      0.6196404      0.38640835     1.4644302      14690.464    
   3243000   324.2047       1.6215         0.0093217661   0.009299025    0.0090861571  -91.148773      1734.1778      1734.1778      1734.1778      5.2153192e+09  0.10250804    -7077999.2     -7077999.2      965.42624     -7077033.8     -91.998678     -91.774241     -89.673398      0.61384557     0.39719095     1.46704        14387.545    
   3244000   324.18983      1.622          0.0093149714   0.009293096    0.0090799526  -91.086504      1734.5086      1734.5086      1734.5086      5.218304e+09   0.10244941    -7074189.1     -7074189.1      965.38195     -7073223.7     -91.93162      -91.715727     -89.612165      0.62401977     0.39922966     1.4654462      14689.345    
   3245000   324.22072      1.6225         0.0093067087   0.0092884208   0.0090749052  -91.027337      1734.8394      1734.8394      1734.8394      5.2212898e+09  0.10239082    -7070380.1     -7070380.1      965.47395     -7069414.6     -91.850074     -91.669586     -89.562351      0.64388221     0.39590601     1.4613181      14684.05     
   3246000   324.28124      1.623          0.0092984256   0.009283588    0.0090690769  -90.965015      1735.1701      1735.1701      1735.1701      5.2242769e+09  0.10233228    -7066572.5     -7066572.5      965.65416     -7065606.8     -91.768326     -91.62189      -89.50483       0.6659346      0.39302922     1.4579392      14670.727    
   3247000   324.33959      1.6235         0.0092921556   0.0092788775   0.0090628035  -90.908254      1735.5009      1735.5009      1735.5009      5.227265e+09   0.10227378    -7062766.2     -7062766.2      965.82791     -7061800.3     -91.706446     -91.575401     -89.442916      0.68329757     0.38935298     1.4484679      14676.343    
   3248000   324.37334      1.624          0.0092883384   0.0092745487   0.0090579854  -90.865606      1735.8316      1735.8316      1735.8316      5.2302543e+09  0.10221533    -7058960.5     -7058960.5      965.92841     -7057994.6     -91.668773     -91.532679     -89.395365      0.69096244     0.38454798     1.4314362      14661.8      
   3249000   324.38506      1.6245         0.009285907    0.0092682432   0.0090535065  -90.822129      1736.1624      1736.1624      1736.1624      5.2332447e+09  0.10215692    -7055155.2     -7055155.2      965.96332     -7054189.2     -91.644777     -91.470449     -89.351162      0.690033       0.38948121     1.4089176      14559.942    
   3250000   324.38132      1.625          0.0092823384   0.0092587385   0.0090473151  -90.758753      1736.4932      1736.4932      1736.4932      5.2362363e+09  0.10209856    -7051350.4     -7051350.4      965.95217     -7050384.4     -91.609557     -91.376645     -89.290058      0.6851927      0.40898097     1.3947376      14276.846    
   3251000   324.36473      1.6255         0.0092755197   0.0092488731   0.0090400153  -90.679852      1736.8239      1736.8239      1736.8239      5.239229e+09   0.10204024    -7047547.2     -7047547.2      965.90277     -7046581.3     -91.542262     -91.279281     -89.218015      0.67733494     0.42863466     1.4002824      14666.879    
   3252000   324.33927      1.626          0.0092661089   0.0092412211   0.0090326264  -90.599413      1737.1547      1737.1547      1737.1547      5.2422228e+09  0.10198196    -7043746.2     -7043746.2      965.82695     -7042780.3     -91.449385     -91.203761     -89.145092      0.66486945     0.42991606     1.4128935      14616.86     
   3253000   324.31128      1.6265         0.0092572628   0.0092366762   0.0090258685  -90.533128      1737.4854      1737.4854      1737.4854      5.2452178e+09  0.10192373    -7039947       -7039947        965.74362     -7038981.2     -91.362081     -91.158906     -89.078396      0.65694634     0.40762633     1.4199873      14655.695    
   3254000   324.27921      1.627          0.0092514607   0.0092341219   0.0090199313  -90.486106      1737.8162      1737.8162      1737.8162      5.2482139e+09  0.10186554    -7036148.5     -7036148.5      965.6481      -7035182.8     -91.304819     -91.133698     -89.019801      0.65450212     0.37473316     1.4257608      14647.342    
   3255000   324.239        1.6275         0.0092486541   0.0092305349   0.0090139209  -90.4453        1738.147       1738.147       1738.147       5.2512112e+09  0.1018074     -7032350.1     -7032350.1      965.52838     -7031384.6     -91.277119     -91.098297     -88.960482      0.65514013     0.34888369     1.4313202      14653.58     
   3256000   324.1991       1.628          0.0092455933   0.0092243898   0.0090068262  -90.391675      1738.4777      1738.4777      1738.4777      5.2542096e+09  0.1017493     -7028552.2     -7028552.2      965.40957     -7027586.8     -91.246912     -91.037649     -88.890464      0.65119218     0.34377858     1.4321739      14625.041    
   3257000   324.1756       1.6285         0.0092396466   0.0092172005   0.0089988585  -90.322249      1738.8085      1738.8085      1738.8085      5.2572092e+09  0.10169125    -7024755.4     -7024755.4      965.33959     -7023790.1     -91.188222     -90.966696     -88.811828      0.64212793     0.35741121     1.4281132      14600.218    
   3258000   324.16973      1.629          0.0092312759   0.0092108666   0.0089916064  -90.250017      1739.1393      1739.1393      1739.1393      5.2602099e+09  0.10163324    -7020960.4     -7020960.4      965.32209     -7019995       -91.105609     -90.904186     -88.740255      0.63446991     0.37652017     1.4124272      14583.094    
   3259000   324.17252      1.6295         0.0092227426   0.0092042128   0.0089862909  -90.182569      1739.47        1739.47        1739.47        5.2632117e+09  0.10157527    -7017166.9     -7017166.9      965.3304      -7016201.5     -91.021393     -90.838518     -88.687796      0.62675685     0.39895502     1.3876522      14601.03     
   3260000   324.18075      1.63           0.0092160373   0.0091962909   0.0089823057  -90.121339      1739.8008      1739.8008      1739.8008      5.2662147e+09  0.10151735    -7013374.5     -7013374.5      965.35493     -7012409.2     -90.955216     -90.760334     -88.648465      0.62216511     0.43120618     1.3676422      14608.766    
   3261000   324.20396      1.6305         0.0092114769   0.0091885305   0.0089775345  -90.06511       1740.1315      1740.1315      1740.1315      5.2692188e+09  0.10145947    -7009583.4     -7009583.4      965.42404     -7008617.9     -90.910209     -90.683745     -88.601377      0.63227385     0.4629672      1.3596316      14557.704    
   3262000   324.24116      1.631          0.0092078451   0.0091828109   0.0089708662  -90.01241       1740.4623      1740.4623      1740.4623      5.272224e+09   0.10140164    -7005793.1     -7005793.1      965.53482     -7004827.6     -90.874366     -90.627297     -88.535566      0.65235931     0.47640005     1.3676205      14521.804    
   3263000   324.27928      1.6315         0.0092026856   0.0091781622   0.008963498   -89.955903      1740.7931      1740.7931      1740.7931      5.2752304e+09  0.10134385    -7002003.8     -7002003.8      965.64832     -7001038.2     -90.823445     -90.581418     -88.462847      0.67024818     0.47100217     1.3873227      14323.489    
   3264000   324.30164      1.632          0.0091943945   0.0091722015   0.0089563018  -89.885345      1741.1238      1741.1238      1741.1238      5.278238e+09   0.10128611    -6998215.7     -6998215.7      965.71492     -6997250       -90.741619     -90.522591     -88.391827      0.67952267     0.45374209     1.4059876      14423.789    
   3265000   324.29904      1.6325         0.00918392     0.0091639994   0.008948608   -89.798593      1741.4546      1741.4546      1741.4546      5.2812467e+09  0.1012284     -6994429.6     -6994429.6      965.70715     -6993463.9     -90.638243     -90.441643     -88.315894      0.67859623     0.43355965     1.4090058      14380.587    
   3266000   324.27007      1.633          0.0091736636   0.0091548591   0.0089411036  -89.710096      1741.7853      1741.7853      1741.7853      5.2842565e+09  0.10117075    -6990646       -6990646        965.6209      -6989680.4     -90.537021     -90.351434     -88.241832      0.66388353     0.42004369     1.3991481      14351.439    
   3267000   324.22689      1.6335         0.0091656128   0.0091478865   0.0089353923  -89.641884      1742.1161      1742.1161      1742.1161      5.2872675e+09  0.10111313    -6986864.4     -6986864.4      965.49233     -6985898.9     -90.457566     -90.28262      -88.185466      0.6447533      0.41967445     1.3965527      14401.063    
   3268000   324.18989      1.634          0.0091603793   0.0091435044   0.0089304598  -89.594024      1742.4469      1742.4469      1742.4469      5.2902796e+09  0.10105556    -6983083.7     -6983083.7      965.38212     -6982118.4     -90.405914     -90.239372     -88.136785      0.63483632     0.43226995     1.400467       14392.159    
   3269000   324.18389      1.6345         0.0091578754   0.0091388301   0.0089243587  -89.550339      1742.7776      1742.7776      1742.7776      5.2932928e+09  0.10099803    -6979303.3     -6979303.3      965.36428     -6978337.9     -90.381203     -90.193241     -88.076573      0.63886519     0.44694091     1.396677       14425.216    
   3270000   324.21031      1.635          0.0091569562   0.0091310688   0.0089166643  -89.496469      1743.1084      1743.1084      1743.1084      5.2963072e+09  0.10094055    -6975523.4     -6975523.4      965.44294     -6974558       -90.372132     -90.116643     -88.000634      0.64660532     0.45009268     1.3801709      14451.582    
   3271000   324.24472      1.6355         0.0091553973   0.0091221651   0.0089089483  -89.436666      1743.4391      1743.4391      1743.4391      5.2993228e+09  0.10088311    -6971744.6     -6971744.6      965.54539     -6970779.1     -90.356746     -90.02877      -87.924483      0.64909509     0.43540805     1.3673078      14399.444    
   3272000   324.27319      1.636          0.0091503736   0.0091151514   0.0089031833  -89.378101      1743.7699      1743.7699      1743.7699      5.3023395e+09  0.10082571    -6967967.1     -6967967.1      965.63018     -6967001.4     -90.307166     -89.95955      -87.867588      0.63982858     0.41139457     1.3718537      14426.612    
   3273000   324.29165      1.6365         0.0091409744   0.0091101871   0.0088988428  -89.31657       1744.1007      1744.1007      1744.1007      5.3053573e+09  0.10076836    -6964190.6     -6964190.6      965.68515     -6963224.9     -90.214403     -89.910556     -87.82475       0.62620189     0.39311871     1.3843204      14419.942    
   3274000   324.30315      1.637          0.0091287348   0.0091053348   0.0088946773  -89.246638      1744.4314      1744.4314      1744.4314      5.3083763e+09  0.10071105    -6960415.8     -6960415.8      965.71942     -6959450.1     -90.093608     -89.862667     -87.783639      0.62348652     0.37768582     1.3867509      14422.835    
   3275000   324.31242      1.6375         0.0091173217   0.0091008557   0.0088916692  -89.184461      1744.7622      1744.7622      1744.7622      5.3113964e+09  0.10065379    -6956642.6     -6956642.6      965.747       -6955676.9     -89.980969     -89.818462     -87.753953      0.63841478     0.36173635     1.3752694      14422.027    
   3276000   324.32338      1.638          0.0091088666   0.0090969945   0.0088894408  -89.136613      1745.0929      1745.0929      1745.0929      5.3144177e+09  0.10059657    -6952870.3     -6952870.3      965.77965     -6951904.5     -89.897524     -89.780355     -87.73196       0.65103538     0.35956338     1.366899       14324.98     
   3277000   324.3384       1.6385         0.0091036863   0.009093221    0.0088859038  -89.095521      1745.4237      1745.4237      1745.4237      5.3174401e+09  0.10053939    -6949098.3     -6949098.3      965.82436     -6948132.5     -89.846398     -89.743113     -87.697052      0.64686186     0.37484372     1.36956        14427.869    
   3278000   324.34608      1.639          0.0090995004   0.0090882478   0.0088793657  -89.043881      1745.7545      1745.7545      1745.7545      5.3204637e+09  0.10048225    -6945326.7     -6945326.7      965.84723     -6944360.8     -89.805087     -89.694032     -87.632526      0.62733068     0.38627114     1.3815118      14435.85     
   3279000   324.34599      1.6395         0.0090918031   0.0090800505   0.0088696406  -88.959599      1746.0852      1746.0852      1746.0852      5.3234884e+09  0.10042516    -6941556.5     -6941556.5      965.84696     -6940590.6     -89.72912      -89.613131     -87.536547      0.60509382     0.38578416     1.3942301      14559.137    
   3280000   324.34641      1.64           0.009081268    0.0090689575   0.0088592557  -88.854285      1746.416       1746.416       1746.416       5.3265142e+09  0.10036811    -6937789.2     -6937789.2      965.84824     -6936823.3     -89.625147     -89.503651     -87.434056      0.59539898     0.38850978     1.394435       14515.856    
   3281000   324.34434      1.6405         0.0090721624   0.0090584603   0.0088507618  -88.761854      1746.7467      1746.7467      1746.7467      5.3295412e+09  0.1003111     -6934025.2     -6934025.2      965.84206     -6933059.3     -89.535282     -89.400053     -87.350227      0.60511629     0.39557705     1.3806538      14494.583    
   3282000   324.32223      1.641          0.0090671858   0.0090516233   0.0088450319  -88.70414       1747.0775      1747.0775      1747.0775      5.3325694e+09  0.10025414    -6930263       -6930263        965.77623     -6929297.2     -89.486167     -89.332576     -87.293678      0.63458565     0.39325653     1.3610861      14486.929    
   3283000   324.27687      1.6415         0.0090647257   0.0090474305   0.0088395038  -88.664068      1747.4083      1747.4083      1747.4083      5.3355987e+09  0.10019722    -6926501.1     -6926501.1      965.64114     -6925535.5     -89.461887     -89.291197     -87.239119      0.65828718     0.38495753     1.3437651      14638.805    
   3284000   324.22861      1.642          0.0090621057   0.0090428508   0.0088318592  -88.615234      1747.739       1747.739       1747.739       5.3386291e+09  0.10014035    -6922739.3     -6922739.3      965.49744     -6921773.8     -89.43603      -89.245999     -87.163673      0.65794911     0.37356027     1.3358087      14665.673    
   3285000   324.19919      1.6425         0.0090571031   0.0090358099   0.0088228513  -88.54598       1748.0698      1748.0698      1748.0698      5.3416607e+09  0.10008351    -6918978.6     -6918978.6      965.40983     -6918013.2     -89.386658     -89.17651      -87.074773      0.64880911     0.36437939     1.3432357      14702.924    
   3286000   324.19269      1.643          0.0090501142   0.0090275917   0.0088152845  -88.47106       1748.4005      1748.4005      1748.4005      5.3446935e+09  0.10002672    -6915219.8     -6915219.8      965.39046     -6914254.5     -89.317683     -89.095403     -87.000094      0.64883941     0.36673958     1.3686194      14711.558    
   3287000   324.20293      1.6435         0.0090434799   0.0090205642   0.0088115115  -88.413704      1748.7313      1748.7313      1748.7313      5.3477273e+09  0.099969975   -6911462.7     -6911462.7      965.42097     -6910497.2     -89.252207     -89.026047     -86.962857      0.65074331     0.3797325      1.3958537      14722.849    
   3288000   324.22364      1.644          0.0090372503   0.0090139465   0.0088100688  -88.366693      1749.0621      1749.0621      1749.0621      5.3507624e+09  0.09991327    -6907706.1     -6907706.1      965.48265     -6906740.7     -89.190726     -88.960735     -86.948618      0.64515318     0.39270132     1.4074966      14692.543    
   3289000   324.24918      1.6445         0.0090293676   0.0090057145   0.0088065207  -88.302008      1749.3928      1749.3928      1749.3928      5.3537986e+09  0.099856608   -6903950.4     -6903950.4      965.55869     -6902984.9     -89.11293      -88.879491     -86.913602      0.62924063     0.3953866      1.4036277      14707.489    
   3290000   324.27018      1.645          0.0090189353   0.0089971782   0.0087990435  -88.215008      1749.7236      1749.7236      1749.7236      5.3568359e+09  0.09979999    -6900196.7     -6900196.7      965.62121     -6899231.1     -89.009971     -88.795245     -86.839808      0.61215873     0.38598186     1.3976226      14610.051    
   3291000   324.26435      1.6455         0.0090073539   0.0089917933   0.0087910965  -88.133049      1750.0544      1750.0544      1750.0544      5.3598744e+09  0.099743414   -6896445.5     -6896445.5      965.60386     -6895479.9     -88.895671     -88.7421       -86.761377      0.60626477     0.37132099     1.4029795      14698.496    
   3292000   324.21501      1.646          0.0089968565   0.00898937     0.0087855698  -88.072362      1750.3851      1750.3851      1750.3851      5.362914e+09   0.099686881   -6892695.8     -6892695.8      965.45694     -6891730.4     -88.79207      -88.718184     -86.706832      0.61298881     0.36541543     1.4130144      14609.089    
   3293000   324.13964      1.6465         0.0089885906   0.0089853303   0.0087803584  -88.014736      1750.7159      1750.7159      1750.7159      5.3659548e+09  0.09963039    -6888946.8     -6888946.8      965.23249     -6887981.6     -88.710492     -88.678315     -86.6554        0.62544981     0.37727614     1.4221797      14694.061    
ERROR on proc 0: Pair distance > table outer cutoff: ijtype 2 1 dist 308.00000201099857 (src/pair_table_pgn.cpp:138)
Last command: run				${steps_tensile}
