LAMMPS (23 Jun 2022 - Update 1)
OMP_NUM_THREADS environment is not set. Defaulting to 1 thread. (src/comm.cpp:98)
  using 1 OpenMP thread(s) per MPI task
###

# Read restart info
read_restart ${read_res}
read_restart ./trial9/0100/equpmf70.res
Reading restart file ...
  restart file = 23 Jun 2022, LAMMPS = 23 Jun 2022
  restoring atom style atomic from restart
  orthogonal box = (1613.4157 1613.4157 1613.4157) to (2386.5843 2386.5843 2386.5843)
  1 by 2 by 2 MPI processor grid
  restoring pair style table from restart
  1000 atoms
  read_restart CPU = 0.011 seconds

# Settings
pair_style table/pgn spline 10941
pair_coeff 1 1 N20e.txt DE_GNP 308 72.9   # 1.35 * r
pair_coeff 2 2 N100e.txt DE_GNP 473.9 111.78
WARNING: 20 of 10941 force values in table DE_GNP are inconsistent with -dE/dr.
WARNING:  Should only be flagged at inflection points (src/pair_table_pgn.cpp:478)
pair_coeff 1 2 mixed_potentiale.txt DE_GNP 391.2 92.95
WARNING: 1564 of 10941 force values in table DE_GNP are inconsistent with -dE/dr.
WARNING:  Should only be flagged at inflection points (src/pair_table_pgn.cpp:478)

# Neighbor list
neighbor 2.0 bin
neigh_modify delay 0 every 1 check no once yes

# Temperature
variable T equal ${Temp}
variable T equal 300

# Deformation
reset_timestep 0
variable tmp equal "lx"
variable L0 equal ${tmp}
variable L0 equal 773.168681232083
variable strain equal "(lx - v_L0)/v_L0"
variable stp equal "step"
variable tmpe equal "temp"
variable p1 equal "v_strain"
variable p2 equal "-pxx*1.01325/10000"
variable p3 equal "-pyy*1.01325/10000"
variable p4 equal "-pzz*1.01325/10000"
variable p5 equal "lx"
variable p6 equal "ly"
variable p7 equal "lz"
variable p8 equal "press"
variable p9 equal "epair"
variable p10 equal "etotal"

# Thermo
thermo_style custom step temp v_p1 v_p2 v_p3 v_p4 press lx ly lz vol density epair pe ke etotal pxx pyy pzz pxy pxz pyz spcpu
thermo ${ts_save}
thermo 1000

# Dump
# dump 1 all custom 2000 ./${N20}${N100}/tensile/trajectory/trajectory_${usic}_${trial}_*.tensile.custom id type x y z ix iy iz
# dump_modify 1 sort id
dump 2 all cfg 50000 ./trial${trial}/${N20}${N100}/tensile/trajectory/dumpten.tens_${usic}_${trial}_*.cfg mass type xs ys zs fx fy fz
dump 2 all cfg 50000 ./trial9/${N20}${N100}/tensile/trajectory/dumpten.tens_${usic}_${trial}_*.cfg mass type xs ys zs fx fy fz
dump 2 all cfg 50000 ./trial9/0${N100}/tensile/trajectory/dumpten.tens_${usic}_${trial}_*.cfg mass type xs ys zs fx fy fz
dump 2 all cfg 50000 ./trial9/0100/tensile/trajectory/dumpten.tens_${usic}_${trial}_*.cfg mass type xs ys zs fx fy fz
dump 2 all cfg 50000 ./trial9/0100/tensile/trajectory/dumpten.tens_1_${trial}_*.cfg mass type xs ys zs fx fy fz
dump 2 all cfg 50000 ./trial9/0100/tensile/trajectory/dumpten.tens_1_9_*.cfg mass type xs ys zs fx fy fz
dump_modify 2 element N20 N100

fix 1 all nvt temp ${T} ${T} 100
fix 1 all nvt temp 300 ${T} 100
fix 1 all nvt temp 300 300 100
fix 2 all deform 1 x erate ${strain_rate} y erate ${strain_rate} z erate ${strain_rate} units box
fix 2 all deform 1 x erate 5e-6 y erate ${strain_rate} z erate ${strain_rate} units box
fix 2 all deform 1 x erate 5e-6 y erate 5e-6 z erate ${strain_rate} units box
fix 2 all deform 1 x erate 5e-6 y erate 5e-6 z erate 5e-6 units box
fix             def1 all print ${ts_save} "${p1} ${p2} ${p3} ${p4}" file ./tensile/${trial}/tensile${N20}${N100}_${usic}_${trial}.txt screen no
fix             def1 all print 1000 "${p1} ${p2} ${p3} ${p4}" file ./tensile/${trial}/tensile${N20}${N100}_${usic}_${trial}.txt screen no
fix             def1 all print 1000 "${p1} ${p2} ${p3} ${p4}" file ./tensile/9/tensile${N20}${N100}_${usic}_${trial}.txt screen no
fix             def1 all print 1000 "${p1} ${p2} ${p3} ${p4}" file ./tensile/9/tensile0${N100}_${usic}_${trial}.txt screen no
fix             def1 all print 1000 "${p1} ${p2} ${p3} ${p4}" file ./tensile/9/tensile0100_${usic}_${trial}.txt screen no
fix             def1 all print 1000 "${p1} ${p2} ${p3} ${p4}" file ./tensile/9/tensile0100_1_${trial}.txt screen no
fix             def1 all print 1000 "${p1} ${p2} ${p3} ${p4}" file ./tensile/9/tensile0100_1_9.txt screen no

timestep       		${ts}
timestep       		0.1
run				${steps_tensile}
run				6000000
Generated 0 of 1 mixed pair_coeff terms from geometric mixing rule
Unused restart file global fix info:
  fix style: npt, fix ID: 5
Neighbor list info ...
  update every 1 steps, delay 0 steps, check no
  max neighbors/atom: 2000, page size: 100000
  master list distance cutoff = 113.78
  ghost atom cutoff = 113.78
  binsize = 56.89, bins = 14 14 14
  1 neighbor lists, perpetual/occasional/extra = 1 0 0
  (1) pair table/pgn, perpetual
      attributes: half, newton on
      pair build: half/bin/atomonly/newton
      stencil: half/bin/3d
      bin: standard
Per MPI rank memory allocation (min/avg/max) = 3.84 | 3.84 | 3.84 Mbytes
   Step          Temp           v_p1           v_p2           v_p3           v_p4          Press            Lx             Ly             Lz           Volume        Density         E_pair         PotEng         KinEng         TotEng          Pxx            Pyy            Pzz            Pxy            Pxz            Pyz           S/CPU     
         0   305.40141     -4.4112045e-16  6.2720744e-05 -1.7147191e-05 -0.012093739    39.635384      773.16868      773.16868      773.16868      4.6219236e+08  1.5163213     -58822688      -58822688       909.43325     -58821779      -0.61900562     0.16922962     119.35593     -5.3029344      56.848507     -20.867143      0            
      1000   331.95061      0.0005         0.0082133615   0.0081533291  -0.0037019075  -41.663897      773.55527      773.55527      773.55527      4.6288599e+08  1.5140491     -58822805      -58822805       988.49224     -58821817      -81.059576     -80.467102      36.534986     -5.8263232      56.4318       -21.113838      15740.683    
      2000   345.1396       0.001          0.016051506    0.015989943    0.0044832934  -120.15706      773.94185      773.94185      773.94185      4.6358032e+08  1.5117814     -58822130      -58822130       1027.7668     -58821102      -158.41605     -157.80847     -44.246665     -6.1303482      56.255191     -20.956956      15843.835    
      3000   345.40766      0.0015         0.023490618    0.023394781    0.012260269   -194.57412      774.32843      774.32843      774.32843      4.6427535e+08  1.5095183     -58820689      -58820689       1028.565      -58819660      -231.83437     -230.88854     -120.99944     -6.2879299      55.351452     -21.364796      15494.934    
      4000   341.76421      0.002          0.030766254    0.030622043    0.019750658   -266.92641      774.71502      774.71502      774.71502      4.6497106e+08  1.5072596     -58818501      -58818501       1017.7155     -58817484      -303.63932     -302.21606     -194.92384     -6.1553735      53.645181     -21.72962       15818.613    
      5000   337.7195       0.0025         0.038054701    0.037835859    0.027212228   -339.1818       775.1016       775.1016       775.1016       4.6566747e+08  1.5050055     -58815568      -58815568       1005.671      -58814562      -375.5707      -373.4109      -268.56381     -6.2116046      51.857326     -21.232088      15691.227    
      6000   334.93053      0.003          0.045316555    0.045037599    0.034753217   -411.57125      775.48819      775.48819      775.48819      4.6636458e+08  1.5027559     -58811891      -58811891       997.36592     -58810893      -447.23963     -444.48654     -342.98759     -6.8669953      50.66006      -20.659405      15726.464    
      7000   333.82929      0.0035         0.052399471    0.052160692    0.042231938   -482.90847      775.87477      775.87477      775.87477      4.6706238e+08  1.5005107     -58807489      -58807489       994.08663     -58806495      -517.14257     -514.78601     -416.79682     -7.7577875      50.287469     -20.417248      15452.459    
      8000   334.34509      0.004          0.059287958    0.059120383    0.049449696   -552.21001      776.26136      776.26136      776.26136      4.6776088e+08  1.49827       -58802388      -58802388       995.62258     -58801392      -585.12665     -583.47282     -488.03056     -8.311021       49.969407     -20.261351      15470.701    
      9000   336.14523      0.0045         0.066100761    0.065914542    0.056464519   -620.0504       776.64794      776.64794      776.64794      4.6846008e+08  1.4960338     -58796596      -58796596       1000.9831     -58795595      -652.36379     -650.52595     -557.26147     -8.4364863      49.323413     -20.249737      15584.798    
     10000   338.67517      0.005          0.072835798    0.072579925    0.063416603   -687.00494      777.03452      777.03452      777.03452      4.6915997e+08  1.493802      -58790115      -58790115       1008.5168     -58789107      -718.83343     -716.30816     -625.87321     -8.3629137      48.394764     -20.644987      15568.211    
     11000   341.61321      0.0055         0.079397       0.079115278    0.070245275   -752.55384      777.42111      777.42111      777.42111      4.6986055e+08  1.4915747     -58782958      -58782958       1017.2658     -58781941      -783.58747     -780.80709     -693.26696     -8.3997787      47.439032     -21.136042      15729.853    
     12000   344.90546      0.006          0.085836167    0.085524317    0.076903629   -816.72543      777.80769      777.80769      777.80769      4.7056184e+08  1.4893518     -58775140      -58775140       1027.0696     -58774113      -847.13711     -844.05938     -758.97981     -8.5651283      46.156934     -20.960365      15698.131    
     13000   348.36393      0.0065         0.092211702    0.091826201    0.083477356   -880.05678      778.19428      778.19428      778.19428      4.7126382e+08  1.4871333     -58766670      -58766670       1037.3683     -58765633      -910.05874     -906.25414     -823.85745     -8.5853464      44.535753     -20.465369      15579.919    
     14000   351.97648      0.007          0.098433595    0.098016238    0.0899407     -942.1516       778.58086      778.58086      778.58086      4.719665e+08   1.4849192     -58757560      -58757560       1048.1259     -58756512      -971.46405     -967.34506     -887.64569     -8.4944106      43.559992     -20.10296       15336.06     
     15000   355.84874      0.0075         0.1044192      0.10403715     0.096206003   -1002.2612      778.96745      778.96745      778.96745      4.7266988e+08  1.4827095     -58747829      -58747829       1059.6568     -58746769      -1030.5374     -1026.7668     -949.47943     -8.6126889      43.212368     -19.918813      15926.623    
     16000   359.66196      0.008          0.11024453     0.10993664     0.10228301    -1060.8247      779.35403      779.35403      779.35403      4.7337395e+08  1.4805042     -58737492      -58737492       1071.0119     -58736421      -1088.0289     -1084.9903     -1009.4548     -9.055094       42.623046     -19.996171      15631.42     
     17000   363.10549      0.0085         0.11602022     0.11577888     0.10824553    -1118.6599      779.74062      779.74062      779.74062      4.7407873e+08  1.4783032     -58726558      -58726558       1081.2661     -58725476      -1145.0306     -1142.6487     -1068.3003     -9.4898437      41.725329     -19.939673      15722.018    
     18000   366.29997      0.009          0.12178834     0.121522       0.11422828    -1176.2106      780.1272       780.1272       780.1272       4.747842e+08   1.4761066     -58715032      -58715032       1090.7788     -58713941      -1201.9575     -1199.3289     -1127.3454     -9.6634481      40.908772     -19.640543      15721.151    
     19000   369.24263      0.0095         0.12754211     0.12716161     0.12021783    -1233.396       780.51378      780.51378      780.51378      4.7549038e+08  1.4739144     -58702919      -58702919       1099.5415     -58701819      -1258.7427     -1254.9875     -1186.4578     -9.8747241      40.188133     -19.376758      15719.683    
     20000   371.89005      0.01           0.13312357     0.13269353     0.12599129    -1288.9494      780.90037      780.90037      780.90037      4.7619725e+08  1.4717265     -58690225      -58690225       1107.4251     -58689118      -1313.8274     -1309.5834     -1243.4374     -10.418244      39.485419     -19.464942      15779.005    
     21000   374.56831      0.0105         0.13846717     0.13807026     0.13149356    -1342.3176      781.28695      781.28695      781.28695      4.7690482e+08  1.4695429     -58676962      -58676962       1115.4005     -58675847      -1366.5647     -1362.6475     -1297.7406     -10.766327      38.664101     -19.73774       15599.642    
     22000   377.33502      0.011          0.14369292     0.14331325     0.1368496     -1394.3771      781.67354      781.67354      781.67354      4.776131e+08   1.4673637     -58663153      -58663153       1123.6392     -58662029      -1418.1389     -1414.3918     -1350.6005     -10.32823       37.527456     -19.76306       15630.789    
     23000   379.86185      0.0115         0.14881045     0.14839259     0.14215469    -1445.3745      782.06012      782.06012      782.06012      4.7832207e+08  1.4651887     -58648815      -58648815       1131.1637     -58647684      -1468.6449     -1464.521      -1402.9577     -9.9670043      36.253555     -19.646911      15894.773    
     24000   382.11153      0.012          0.1537883      0.15332569     0.14740458    -1495.2498      782.44671      782.44671      782.44671      4.7903175e+08  1.4630181     -58633951      -58633951       1137.8629     -58632814      -1517.7725     -1513.2069     -1454.7701     -10.126498      35.341037     -19.819169      15620.096    
     25000   384.21711      0.0125         0.15871468     0.15823438     0.15252666    -1544.4551      782.83329      782.83329      782.83329      4.7974213e+08  1.4608517     -58618568      -58618568       1144.1329     -58617424      -1566.3921     -1561.6519     -1505.3211     -10.653462      34.898036     -19.950848      15724.497    
     26000   386.14196      0.013          0.16362501     0.16309323     0.15753466    -1593.0682      783.21987      783.21987      783.21987      4.8045321e+08  1.4586896     -58602670      -58602670       1149.8648     -58601520      -1614.8533     -1609.6051     -1554.7462     -11.510738      34.30262      -19.70095       15747.303    
     27000   387.84921      0.0135         0.16848953     0.16780275     0.16247543    -1640.8182      783.60646      783.60646      783.60646      4.8116499e+08  1.4565318     -58586261      -58586261       1154.9487     -58585106      -1662.8624     -1656.0844     -1603.5078     -11.889075      33.357958     -19.369212      15641.945    
     28000   389.47355      0.014          0.17319821     0.17236561     0.16731438    -1687.2381      783.99304      783.99304      783.99304      4.8187748e+08  1.4543782     -58569359      -58569359       1159.7857     -58568199      -1709.3334     -1701.1163     -1651.2646     -11.522221      32.753533     -19.447617      15664.791    
     29000   391.10997      0.0145         0.17764081     0.17688925     0.17202288    -1732.2245      784.37963      784.37963      784.37963      4.8259066e+08  1.4522289     -58551979      -58551979       1164.6587     -58550815      -1753.1785     -1745.7611     -1697.7339     -11.149292      32.460936     -19.461502      15821.78     
     30000   392.67983      0.015          0.1819771      0.18140245     0.17653459    -1776.1794      784.76621      784.76621      784.76621      4.8330455e+08  1.4500838     -58534130      -58534130       1169.3335     -58532961      -1795.9743     -1790.303      -1742.261      -11.400266      32.006126     -19.287721      15646.038    
     31000   394.17853      0.0155         0.18632585     0.18580669     0.18096721    -1819.5567      785.1528       785.1528       785.1528       4.8401915e+08  1.4479429     -58515814      -58515814       1173.7963     -58514640      -1838.8931     -1833.7694     -1786.0075     -11.935244      31.212004     -19.339838      15851.873    
     32000   395.60514      0.016          0.19061385     0.19000246     0.18543513    -1862.1644      785.53938      785.53938      785.53938      4.8473445e+08  1.4458063     -58497037      -58497037       1178.0446     -58495858      -1881.2124     -1875.1784     -1830.1024     -11.932891      30.160033     -19.654998      15660.706    
     33000   396.95683      0.0165         0.19478463     0.19404502     0.1897993     -1903.5412      785.92596      785.92596      785.92596      4.8545045e+08  1.4436738     -58477804      -58477804       1182.0697     -58476622      -1922.3748     -1915.0755     -1873.1734     -11.752713      29.437432     -20.152105      15689.791    
     34000   398.17234      0.017          0.19881399     0.19804461     0.19396811    -1943.6687      786.31255      786.31255      786.31255      4.8616716e+08  1.4415456     -58458135      -58458135       1185.6892     -58456949      -1962.1415     -1954.5483     -1914.3164     -11.712915      29.169273     -20.657023      15817.477    
     35000   399.44142      0.0175         0.20271891     0.20195471     0.19788366    -1982.2593      786.69913      786.69913      786.69913      4.8688457e+08  1.4394215     -58438051      -58438051       1189.4683     -58436862      -2000.6801     -1993.138      -1952.9599     -11.500365      28.949155     -20.732093      15729.767    
     36000   400.85611      0.018          0.20662258     0.20577223     0.20172476    -2020.2963      787.08572      787.08572      787.08572      4.8760269e+08  1.4373016     -58417562      -58417562       1193.6811     -58416368      -2039.2063     -2030.814      -1990.8685     -11.030513      28.347088     -20.206511      15348.053    
     37000   402.06788      0.0185         0.21046014     0.2095253      0.20563296    -2058.1245      787.4723       787.4723       787.4723       4.8832152e+08  1.4351858     -58396658      -58396658       1197.2895     -58395461      -2077.0801     -2067.8539     -2029.4395     -10.466233      27.743834     -19.542015      15734.012    
     38000   403.01486      0.019          0.21411553     0.21322578     0.20954982    -2095.2089      787.85889      787.85889      787.85889      4.8904105e+08  1.4330742     -58375335      -58375335       1200.1094     -58374135      -2113.156      -2104.3748     -2068.096      -10.583356      27.372733     -19.259196      15628.234    
     39000   404.05921      0.0195         0.21759361     0.21683875     0.21328976    -2130.8401      788.24547      788.24547      788.24547      4.8976128e+08  1.4309667     -58353611      -58353611       1203.2193     -58352408      -2147.482      -2140.0321     -2105.0062     -11.092496      26.805002     -19.580828      15757.776    
     40000   405.32595      0.02           0.22097979     0.22034872     0.2167611     -2164.9465      788.63205      788.63205      788.63205      4.9048223e+08  1.4288634     -58331516      -58331516       1206.9915     -58330309      -2180.901      -2174.6728     -2139.2658     -11.239989      26.160389     -20.161291      15665.414    
     41000   406.5556       0.0205         0.2242995      0.22366978     0.22005827    -2197.6398      789.01864      789.01864      789.01864      4.9120388e+08  1.4267642     -58309063      -58309063       1210.6531     -58307852      -2213.664      -2207.4491     -2171.8063     -11.324254      25.758157     -20.293322      15671.311    
     42000   407.61004      0.021          0.22757841     0.22680548     0.22335002    -2229.5712      789.40522      789.40522      789.40522      4.9192624e+08  1.4246691     -58286253      -58286253       1213.7931     -58285039      -2246.0243     -2238.396      -2204.2933     -11.37959       25.484002     -19.670809      15765.174    
     43000   408.45792      0.0215         0.230812       0.22989012     0.22669749    -2261.3689      789.79181      789.79181      789.79181      4.926493e+08   1.4225781     -58263089      -58263089       1216.3179     -58261873      -2277.9373     -2268.839      -2237.3303     -10.874947      25.260214     -19.101017      15697.806    
     44000   409.12534      0.022          0.23396892     0.23297466     0.2299962     -2292.7536      790.17839      790.17839      790.17839      4.9337308e+08  1.4204912     -58239570      -58239570       1218.3054     -58238352      -2309.0937     -2299.2812     -2269.886      -10.005109      24.535825     -19.223664      15637.239    
     45000   409.86981      0.0225         0.23703548     0.23604449     0.23314105    -2323.2865      790.56498      790.56498      790.56498      4.9409756e+08  1.4184084     -58215701      -58215701       1220.5223     -58214481      -2339.3583     -2329.578      -2300.9233     -9.3750319      23.11624      -19.15884       15761.766    
     46000   410.85926      0.023          0.24002067     0.23901116     0.23614308    -2352.7425      790.95156      790.95156      790.95156      4.9482275e+08  1.4163296     -58191505      -58191505       1223.4687     -58190281      -2368.8198     -2358.8567     -2330.551      -9.0924661      22.067028     -18.519885      15510.3      
     47000   411.91003      0.0235         0.24290572     0.24178144     0.23902362    -2380.8233      791.33815      791.33815      791.33815      4.9554866e+08  1.4142549     -58166993      -58166993       1226.5977     -58165767      -2397.2931     -2386.1972     -2358.9797     -9.1919949      21.930316     -18.310121      15579.317    
     48000   412.68969      0.024          0.24565111     0.24442734     0.24180687    -2407.7155      791.72473      791.72473      791.72473      4.9627527e+08  1.4121842     -58142172      -58142172       1228.9194     -58140943      -2424.3879     -2412.3103     -2386.4483     -9.652111       22.282216     -18.524965      15764.597    
     49000   413.2904       0.0245         0.24820035     0.24699587     0.24452236    -2433.4849      792.11131      792.11131      792.11131      4.9700259e+08  1.4101176     -58117049      -58117049       1230.7082     -58115818      -2449.547      -2437.6597     -2413.2481     -9.7283755      22.176652     -18.293716      15596.072    
     50000   414.06038      0.025          0.25063605     0.24957289     0.24717791    -2458.7116      792.4979       792.4979       792.4979       4.9773062e+08  1.4080551     -58091632      -58091632       1233.0011     -58090399      -2473.5855     -2463.0929     -2439.4563     -9.0761011      21.128364     -18.045449      15300.501    
     51000   414.9103       0.0255         0.25312072     0.2521024      0.24977667    -2483.7562      792.88448      792.88448      792.88448      4.9845936e+08  1.4059965     -58065925      -58065925       1235.532      -58064690      -2498.1073     -2488.0573     -2465.1041     -8.6018467      20.372629     -18.334819      15680.121    
     52000   415.56115      0.026          0.25561182     0.25443243     0.25225644    -2507.7743      793.27107      793.27107      793.27107      4.9918881e+08  1.4039419     -58039937      -58039937       1237.4701     -58038700      -2522.6925     -2511.0529     -2489.5775     -8.479337       20.003246     -18.282355      15645.837    
     53000   416.12197      0.0265         0.25797664     0.25653464     0.25455164    -2530.0203      793.65765      793.65765      793.65765      4.9991898e+08  1.4018914     -58013685      -58013685       1239.1402     -58012446      -2546.0315     -2531.8001     -2512.2294     -8.123122       18.96842      -17.09615       15444.754    
     54000   416.89647      0.027          0.2601761      0.25857496     0.25680469    -2551.3801      794.04424      794.04424      794.04424      5.0064985e+08  1.3998448     -57987181      -57987181       1241.4465     -57985939      -2567.7385     -2551.9365     -2534.4653     -7.8089308      17.973311     -16.07296       15630.347    
     55000   417.69555      0.0275         0.26231942     0.26074783     0.2590603     -2572.9996      794.43082      794.43082      794.43082      5.0138144e+08  1.3978023     -57960428      -57960428       1243.826      -57959184      -2588.8914     -2573.381      -2556.7264     -7.4370404      17.863158     -16.308445      15663.7      
     56000   418.30185      0.028          0.26444932     0.26294602     0.2612006     -2594.279       794.8174       794.8174       794.8174       5.0211374e+08  1.3957637     -57933426      -57933426       1245.6315     -57932181      -2609.9119     -2595.0754     -2577.8495     -7.0154648      18.2711       -16.886541      15738.329    
     57000   418.82081      0.0285         0.26647191     0.26488812     0.26321075    -2613.9346      795.20399      795.20399      795.20399      5.0284675e+08  1.393729      -57906186      -57906186       1247.1769     -57904939      -2629.8732     -2614.2425     -2597.6882     -6.7088834      18.440252     -16.611822      15586.509    
     58000   419.36781      0.029          0.26830156     0.26656651     0.26509461    -2631.6726      795.59057      795.59057      795.59057      5.0358048e+08  1.3916983     -57878725      -57878725       1248.8057     -57877477      -2647.9305     -2630.8069     -2616.2804     -6.5007242      17.947284     -15.65382       15616.308    
     59000   419.94882      0.0295         0.2699647      0.268194       0.2669419     -2648.5751      795.97716      795.97716      795.97716      5.0431492e+08  1.3896716     -57851049      -57851049       1250.5359     -57849799      -2664.3444     -2646.869      -2634.5117     -6.414892       17.050534     -15.040566      15547.397    
     60000   420.32312      0.03           0.27158025     0.26987173     0.2687863     -2665.4767      796.36374      796.36374      796.36374      5.0505007e+08  1.3876488     -57823162      -57823162       1251.6505     -57821910      -2680.2887     -2663.4269     -2652.7145     -5.9616954      16.317825     -14.87565       15590.019    
     61000   420.47114      0.0305         0.27321182     0.27151179     0.27056339    -2682.0857      796.75033      796.75033      796.75033      5.0578594e+08  1.3856299     -57795071      -57795071       1252.0913     -57793819      -2696.391      -2679.613      -2670.2531     -5.4478494      15.832155     -14.532266      15600.803    
     62000   420.81376      0.031          0.27488966     0.27306504     0.27222568    -2698.1836      797.13691      797.13691      797.13691      5.0652252e+08  1.3836149     -57766790      -57766790       1253.1115     -57765537      -2712.95       -2694.9424     -2686.6586     -5.4727973      15.480528     -14.208289      15683.033    
     63000   421.40027      0.0315         0.27654409     0.27457809     0.27377643    -2713.7054      797.52349      797.52349      797.52349      5.0725981e+08  1.3816039     -57738319      -57738319       1254.8581     -57737064      -2729.2779     -2709.875      -2701.9633     -5.4621188      14.962832     -13.798593      15606.593    
     64000   421.91108      0.032          0.27798781     0.2759947      0.27529979    -2728.1267      797.91008      797.91008      797.91008      5.0799783e+08  1.3795967     -57709658      -57709658       1256.3791     -57708402      -2743.5264     -2723.856      -2716.9977     -5.1390206      13.977107     -12.99548       15730.735    
     65000   422.36914      0.0325         0.27922259     0.2771777      0.27678515    -2740.967       798.29666      798.29666      798.29666      5.0873655e+08  1.3775934     -57680825      -57680825       1257.7432     -57679568      -2755.7127     -2735.5312     -2731.657      -4.5978593      13.191757     -12.484863      15592.153    
     66000   422.78256      0.033          0.28045151     0.27824991     0.27816268    -2753.0688      798.68325      798.68325      798.68325      5.0947599e+08  1.375594      -57651834      -57651834       1258.9743     -57650575      -2767.8412     -2746.1131     -2745.2522     -4.0087771      12.844607     -12.879189      15776.791    
     67000   422.8606       0.0335         0.28175596     0.27948793     0.27947398    -2765.7468      799.06983      799.06983      799.06983      5.1021615e+08  1.3735984     -57622683      -57622683       1259.2067     -57621424      -2780.7151     -2758.3315     -2758.1937     -3.7667992      12.44482      -13.118794      15307.415    
     68000   422.66876      0.034          0.28294226     0.28072942     0.28073304    -2777.8756      799.45642      799.45642      799.45642      5.1095703e+08  1.3716068     -57593376      -57593376       1258.6354     -57592117      -2792.423      -2770.584      -2770.6197     -3.7983072      11.764314     -12.507571      15665.614    
     69000   422.59807      0.0345         0.28386447     0.2817323      0.28189258    -2788.0232      799.843        799.843        799.843        5.1169862e+08  1.3696189     -57563922      -57563922       1258.4249     -57562664      -2801.5245     -2780.4817     -2782.0634     -3.9868859      11.536474     -11.396776      12778.906    
     70000   422.79579      0.035          0.28463005     0.28254963     0.28288785    -2796.5048      800.22959      800.22959      800.22959      5.1244093e+08  1.3676349     -57534338      -57534338       1259.0137     -57533079      -2809.0802     -2788.5481     -2791.886      -3.9578599      11.500139     -10.354524      15217.883    
     71000   423.11193      0.0355         0.2854786      0.28328258     0.28382547    -2804.792       800.61617      800.61617      800.61617      5.1318396e+08  1.3656548     -57504628      -57504628       1259.9551     -57503369      -2817.4547     -2795.7817     -2801.1396     -3.681608       10.661555     -9.7744447      15336.871    
     72000   423.2675       0.036          0.28649071     0.28406164     0.28479309    -2813.8677      801.00275      801.00275      801.00275      5.139277e+08   1.3636784     -57474798      -57474798       1260.4183     -57473537      -2827.4435     -2803.4704     -2810.6892     -3.2117304      9.7683152     -9.7395177      15391.262    
     73000   423.19053      0.0365         0.28738534     0.2848575      0.28572872    -2822.507       801.38934      801.38934      801.38934      5.1467216e+08  1.3617059     -57444855      -57444855       1260.1891     -57443595      -2836.2728     -2811.3249     -2819.9232     -2.8689844      9.9575371     -9.9855766      15519.85     
     74000   423.09073      0.037          0.28794949     0.28553141     0.28654398    -2829.2619      801.77592      801.77592      801.77592      5.1541735e+08  1.3597371     -57414807      -57414807       1259.8919     -57413547      -2841.8405     -2817.9759     -2827.9692     -2.998221       10.383723     -9.9098243      15403.091    
     75000   422.95413      0.0375         0.28843828     0.28615023     0.28723528    -2835.1798      802.16251      802.16251      802.16251      5.1616325e+08  1.3577722     -57384662      -57384662       1259.4852     -57383402      -2846.6645     -2824.0832     -2834.7918     -3.0176985      10.177887     -9.2136673      15475.994    
     76000   422.61433      0.038          0.28903173     0.2866983      0.28788868    -2841.0847      802.54909      802.54909      802.54909      5.1690987e+08  1.3558111     -57354419      -57354419       1258.4733     -57353160      -2852.5214     -2829.4922     -2841.2404     -2.9798246      9.1234828     -7.9623215      15574.87     
     77000   422.13119      0.0385         0.28964747     0.28715733     0.28852815    -2846.7241      802.93568      802.93568      802.93568      5.1765721e+08  1.3538537     -57324073      -57324073       1257.0346     -57322816      -2858.5983     -2834.0225     -2847.5515     -2.860467       8.2209072     -7.1251227      15231.827    
     78000   421.78921      0.039          0.29009888     0.28753742     0.28903382    -2851.123       803.32226      803.32226      803.32226      5.1840527e+08  1.3519001     -57293644      -57293644       1256.0162     -57292388      -2863.0533     -2837.7737     -2852.542      -2.6683454      8.6343244     -6.9860054      15381.581    
     79000   421.58858      0.0395         0.2903881      0.28783349     0.28945656    -2854.4392      803.70884      803.70884      803.70884      5.1915405e+08  1.3499502     -57263152      -57263152       1255.4188     -57261897      -2865.9077     -2840.6957     -2856.7142     -2.7177825      9.3949725     -6.5043164      15512.634    
     80000   421.26069      0.04           0.29060823     0.28809705     0.28988514    -2857.4403      804.09543      804.09543      804.09543      5.1990355e+08  1.3480041     -57232601      -57232601       1254.4424     -57231347      -2868.0802     -2843.2969     -2860.9439     -2.4770916      9.257989      -5.6070651      15457.288    
     81000   420.77667      0.0405         0.29076925     0.28831008     0.2902817     -2859.9754      804.48201      804.48201      804.48201      5.2065377e+08  1.3460617     -57201988      -57201988       1253.0011     -57200735      -2869.6693     -2845.3993     -2864.8576     -1.6915186      8.3493309     -4.8993785      15311.747    
     82000   420.2235       0.041          0.29090777     0.28844087     0.29048765    -2861.5389      804.8686       804.8686       804.8686       5.2140471e+08  1.3441231     -57171316      -57171316       1251.3538     -57170065      -2871.0364     -2846.6901     -2866.8903     -0.86848676     7.5647723     -4.6243489      15506.747    
     83000   419.57126      0.0415         0.29102833     0.28854074     0.29051344    -2862.3489      805.25518      805.25518      805.25518      5.2215637e+08  1.3421882     -57140602      -57140602       1249.4116     -57139353      -2872.2263     -2847.6757     -2867.1448     -0.41086274     7.3954664     -4.3792103      15384.859    
     84000   418.89089      0.042          0.29101636     0.28859421     0.29051941    -2862.5051      805.64177      805.64177      805.64177      5.2290876e+08  1.340257      -57109856      -57109856       1247.3856     -57108609      -2872.1082     -2848.2034     -2867.2037     -0.73565658     7.3259123     -3.6312216      15424.127    
     85000   418.17562      0.0425         0.29094488     0.28853779     0.2906244     -2862.4297      806.02835      806.02835      806.02835      5.2366187e+08  1.3383295     -57079079      -57079079       1245.2556     -57077834      -2871.4027     -2847.6466     -2868.2398     -1.3116168      6.9296566     -2.4973727      15445.766    
     86000   417.40936      0.043          0.29085424     0.28834126     0.29072091    -2861.8025      806.41493      806.41493      806.41493      5.244157e+08   1.3364057     -57048275      -57048275       1242.9738     -57047032      -2870.5082     -2845.707      -2869.1923     -1.4807617      6.4845648     -1.6328493      15365.829    
     87000   416.79313      0.0435         0.29066756     0.28801329     0.29056262    -2859.5887      806.80152      806.80152      806.80152      5.2517026e+08  1.3344855     -57017453      -57017453       1241.1388     -57016212      -2868.6658     -2842.4702     -2867.6301     -1.0077562      6.6323574     -1.2849024      15542.356    
     88000   416.39193      0.044          0.29038456     0.28770835     0.29018188    -2856.402       807.1881       807.1881       807.1881       5.2592553e+08  1.3325691     -56986625      -56986625       1239.9441     -56985385      -2865.8728     -2839.4607     -2863.8725     -0.083407805    6.9390668     -0.60038945     15467.607    
     89000   415.93282      0.0445         0.29004986     0.28748212     0.28982849    -2853.3941      807.57469      807.57469      807.57469      5.2668154e+08  1.3306563     -56955807      -56955807       1238.5769     -56954568      -2862.5696     -2837.2279     -2860.3848      0.54713761     5.999685       0.40758717     15402.64     
     90000   415.21644      0.045          0.28963854     0.2871835      0.2895692     -2850.2056      807.96127      807.96127      807.96127      5.2743826e+08  1.3287472     -56924994      -56924994       1236.4436     -56923758      -2858.5101     -2834.2808     -2857.8258      0.48558133     4.514323       0.97564355     15559.371    
     91000   414.35467      0.0455         0.28912192     0.28674434     0.28926842    -2846.0718      808.34786      808.34786      808.34786      5.2819571e+08  1.3268417     -56894189      -56894189       1233.8775     -56892955      -2853.4115     -2829.9466     -2854.8574      0.038277414    4.5203921      1.1687087      15389.241    
     92000   413.45598      0.046          0.28853853     0.28616442     0.28876264    -2840.5809      808.73444      808.73444      808.73444      5.2895389e+08  1.3249399     -56863408      -56863408       1231.2013     -56862177      -2847.6539     -2824.2232     -2849.8657     -0.35439523     5.3325328      1.7681048      15294.121    
     93000   412.47693      0.0465         0.28792961     0.28553039     0.28813965    -2834.4425      809.12102      809.12102      809.12102      5.2971279e+08  1.3230417     -56832659      -56832659       1228.2859     -56831431      -2841.6443     -2817.9658     -2843.7172     -0.45486592     5.3334096      2.9144547      15486.754    
     94000   411.52747      0.047          0.2872964      0.2848693      0.28750786    -2828.1061      809.50761      809.50761      809.50761      5.3047242e+08  1.3211471     -56801940      -56801940       1225.4585     -56800714      -2835.395      -2811.4414     -2837.482      -0.36875293     4.7487296      4.0082848      15451.821    
     95000   410.74937      0.0475         0.28661336     0.28417506     0.28683008    -2821.3455      809.89419      809.89419      809.89419      5.3123277e+08  1.3192562     -56771259      -56771259       1223.1415     -56770036      -2828.654      -2804.5898     -2830.7928      0.17906615     4.2375383      4.6230246      15379.326    
     96000   409.98725      0.048          0.28580681     0.28345697     0.28606361    -2813.8083      810.28078      810.28078      810.28078      5.3199385e+08  1.3173688     -56740634      -56740634       1220.872      -56739413      -2820.6939     -2797.5027     -2823.2283      0.96321834     3.6897808      4.5648853      15408.703    
     97000   409.06242      0.0485         0.28491878     0.28268678     0.2852672     -2805.7332      810.66736      810.66736      810.66736      5.3275565e+08  1.3154851     -56710070      -56710070       1218.118      -56708852      -2811.9297     -2789.9016     -2815.3683      1.5288689      3.0710282      4.2725331      15428.07     
     98000   408.15299      0.049          0.28399127     0.28178173     0.28446297    -2797.0588      811.05395      811.05395      811.05395      5.3351818e+08  1.3136049     -56679563      -56679563       1215.4099     -56678348      -2802.7759     -2780.9694     -2807.4312      1.7856877      2.3236188      4.7150058      15336.875    
     99000   407.42273      0.0495         0.28298972     0.28076391     0.28350007    -2787.248       811.44053      811.44053      811.44053      5.3428144e+08  1.3117283     -56649118      -56649118       1213.2353     -56647904      -2792.8914     -2770.9244     -2797.9282      1.9431969      2.1727977      6.1535115      15491.506    
    100000   406.65941      0.05           0.28193963     0.27978486     0.28240459    -2776.9688      811.82712      811.82712      811.82712      5.3504543e+08  1.3098553     -56618749      -56618749       1210.9623     -56617538      -2782.5278     -2761.2619     -2787.1166      1.8539627      2.7914364      7.5860953      14866.149    
    101000   405.60386      0.0505         0.28087196     0.27880375     0.28138646    -2766.8794      812.2137       812.2137       812.2137       5.3581014e+08  1.3079859     -56588475      -56588475       1207.819      -56587267      -2771.9908     -2751.5791     -2777.0684      1.853321       2.6981549      8.0993208      15567.199    
    102000   404.4576       0.051          0.27970171     0.27765359     0.2803617     -2755.8747      812.60028      812.60028      812.60028      5.3657559e+08  1.30612       -56558295      -56558295       1204.4057     -56557090      -2760.4413     -2740.2279     -2766.9548      1.9292886      1.8599996      7.9769321      15523.201    
    103000   403.56753      0.0515         0.27844241     0.27637114     0.27916439    -2743.5741      812.98687      812.98687      812.98687      5.3734176e+08  1.3042577     -56528203      -56528203       1201.7552     -56527001      -2748.0129     -2727.5711     -2755.1383      1.7763496      1.2044571      8.0260002      15434.386    
    104000   402.82318      0.052          0.27717169     0.27513615     0.27782862    -2730.9366      813.37345      813.37345      813.37345      5.3810866e+08  1.3023989     -56498213      -56498213       1199.5387     -56497014      -2735.4719     -2715.3827     -2741.9553      1.6631476      0.75740491     8.7289343      15672.003    
    105000   401.93912      0.0525         0.27586307     0.27392228     0.27645474    -2718.1186      813.76004      813.76004      813.76004      5.3887629e+08  1.3005436     -56468338      -56468338       1196.9061     -56467141      -2722.5568     -2703.4027     -2728.3962      1.9221826      0.15986126     9.608956       15440.026    
    106000   400.92985      0.053          0.27447827     0.27260121     0.27514642    -2704.9129      814.14662      814.14662      814.14662      5.3964465e+08  1.2986919     -56438578      -56438578       1193.9006     -56437384      -2708.8899     -2690.3648     -2715.4841      2.4901312     -0.48847915     9.900108       15513.656    
    107000   399.8824       0.0535         0.27309802     0.27120923     0.27389012    -2691.6601      814.53321      814.53321      814.53321      5.4041374e+08  1.2968436     -56408938      -56408938       1190.7815     -56407747      -2695.2679     -2676.627      -2703.0854      2.4004634     -0.38521227     10.07244       15564.092    
    108000   398.8581       0.054          0.27172367     0.26980216     0.27255445    -2678.1159      814.91979      814.91979      814.91979      5.4118356e+08  1.2949989     -56379421      -56379421       1187.7313     -56378233      -2681.7041     -2662.7403     -2689.9033      1.6426294      0.14534048     10.743905      15457.708    
    109000   397.84845      0.0545         0.27025755     0.26836963     0.2710888     -2663.7585      815.30637      815.30637      815.30637      5.4195411e+08  1.2931577     -56350025      -56350025       1184.7248     -56348840      -2667.2346     -2648.6023     -2675.4385      1.3054847      0.020805786    11.45332       15529.973    
    110000   396.87215      0.055          0.26867761     0.26694283     0.26955113    -2648.8085      815.69296      815.69296      815.69296      5.4272539e+08  1.2913199     -56320754      -56320754       1181.8175     -56319572      -2651.6419     -2634.5209     -2660.2628      1.7338459     -0.79225903     11.625729      15623.87     
    111000   396.04391      0.0555         0.26709365     0.26550416     0.26799914    -2633.7592      816.07954      816.07954      816.07954      5.434974e+08   1.2894857     -56291621      -56291621       1179.3511     -56290441      -2636.0093     -2620.3223     -2644.9459      2.5802907     -1.8611026      11.583136      15488.293    
    112000   395.36454      0.056          0.26557015     0.2639589      0.26648952    -2618.6975      816.46613      816.46613      816.46613      5.4427015e+08  1.2876549     -56262630      -56262630       1177.3281     -56261453      -2620.9736     -2605.0718     -2630.0471      3.3327085     -2.6948277      12.001029      15422.715    
    113000   394.63974      0.0565         0.26407102     0.26234254     0.26498911    -2603.5124      816.85271      816.85271      816.85271      5.4504363e+08  1.2858276     -56233785      -56233785       1175.1698     -56232610      -2606.1783     -2589.1196     -2615.2392      3.3786354     -3.129309       12.462027      15633.608    
    114000   393.68524      0.057          0.26250201     0.26075021     0.26339963    -2587.8834      817.2393       817.2393       817.2393       5.4581784e+08  1.2840037     -56205087      -56205087       1172.3274     -56203915      -2590.6934     -2573.4045     -2599.5522      3.0248549     -3.2469312      12.054068      15476.513    
    115000   392.52801      0.0575         0.26082599     0.25921967     0.26171683    -2571.7986      817.62588      817.62588      817.62588      5.4659278e+08  1.2821833     -56176535      -56176535       1168.8814     -56175367      -2574.1524     -2558.2992     -2582.9443      2.9555295     -3.119469       11.503677      15542.558    
    116000   391.29812      0.058          0.25914719     0.25765316     0.26000493    -2555.4907      818.01246      818.01246      818.01246      5.4736845e+08  1.2803663     -56148132      -56148132       1165.219      -56146966      -2557.584      -2542.839      -2566.0491      3.2939406     -3.1260769      11.643856      15560.625    
    117000   390.16033      0.0585         0.25751045     0.25599877     0.25833537    -2539.1713      818.39905      818.39905      818.39905      5.4814486e+08  1.2785527     -56119876      -56119876       1161.8308     -56118714      -2541.4306     -2526.5114     -2549.5718      3.8886723     -3.8159906      12.029952      15481.43     
    118000   389.22049      0.059          0.25587772     0.2543083      0.2567154     -2522.9095      818.78563      818.78563      818.78563      5.4892201e+08  1.2767426     -56091774      -56091774       1159.0322     -56090615      -2525.3168     -2509.8278     -2533.584       4.4405453     -4.844607       12.549283      15601.076    
    119000   388.42486      0.0595         0.25419985     0.25258245     0.25503047    -2506.1692      819.17222      819.17222      819.17222      5.4969988e+08  1.2749359     -56063834      -56063834       1156.6629     -56062678      -2508.7574     -2492.795      -2516.9551      4.7974356     -5.845009       13.043799      15378.455    
    120000   387.52423      0.06           0.25243593     0.25085021     0.25329747    -2488.9666      819.5588       819.5588       819.5588       5.5047849e+08  1.2731326     -56036066      -56036066       1153.981      -56034912      -2491.3489     -2475.6991     -2499.8517      4.9881839     -6.5489206      12.985105      15516.116    
    121000   386.35212      0.0605         0.25061093     0.24913563     0.25157874    -2471.6681      819.94539      819.94539      819.94539      5.5125784e+08  1.2713327     -56008465      -56008465       1150.4906     -56007315      -2473.3376     -2458.7775     -2482.8891      4.7468265     -6.8207638      12.295516      15584.655    
    122000   385.09484      0.061          0.24878029     0.24746657     0.24986733    -2454.5249      820.33197      820.33197      820.33197      5.5203792e+08  1.2695362     -55981020      -55981020       1146.7467     -55979874      -2455.2706     -2442.3052     -2465.9988      4.7672616     -6.8255751      11.880699      15434.518    
    123000   383.91195      0.0615         0.24703235     0.24582185     0.24813759    -2437.6734      820.71856      820.71856      820.71856      5.5281874e+08  1.267743      -55953731      -55953731       1143.2242     -55952588      -2438.0197     -2426.073      -2448.9276      5.4767595     -6.846371       12.325866      15466.181    
    124000   382.84912      0.062          0.24537412     0.24410313     0.24644405    -2420.9928      821.10514      821.10514      821.10514      5.5360029e+08  1.2659533     -55926607      -55926607       1140.0593     -55925467      -2421.6542     -2409.1106     -2432.2137      6.0121194     -7.4016306      12.931139      15565.484    
    125000   381.81587      0.0625         0.24372713     0.24232971     0.24478775    -2404.2918      821.49172      821.49172      821.49172      5.5438258e+08  1.2641669     -55899653      -55899653       1136.9825     -55898516      -2405.3998     -2391.6083     -2415.8672      6.3120637     -8.3490114      12.980829      15438.97     
    126000   380.76284      0.063          0.24198032     0.24060961     0.24300544    -2387.0232      821.87831      821.87831      821.87831      5.5516561e+08  1.2623839     -55872865      -55872865       1133.8467     -55871731      -2388.1601     -2374.6322     -2398.2772      6.6993197     -8.978598       12.568394      15505.155    
    127000   379.63581      0.0635         0.24010761     0.23892985     0.24107247    -2368.9775      822.26489      822.26489      822.26489      5.5594937e+08  1.2606042     -55846241      -55846241       1130.4906     -55845110      -2369.6778     -2358.0543     -2379.2003      7.0312182     -9.2430365      11.7705        15653.85     
    128000   378.3935       0.064          0.23823408     0.23717373     0.23918262    -2350.8197      822.65148      822.65148      822.65148      5.5673387e+08  1.2588279     -55819788      -55819788       1126.7912     -55818662      -2351.1876     -2340.7227     -2360.5489      6.9057015     -8.9709029      10.888189      15517.851    
    129000   377.13577      0.0645         0.23647301     0.23540715     0.23754623    -2333.8314      823.03806      823.03806      823.03806      5.5751911e+08  1.2570549     -55793508      -55793508       1123.0459     -55792385      -2333.8072     -2323.2879     -2344.399       6.6191232     -8.4218813      10.857984      15488.486    
    130000   375.99079      0.065          0.23482636     0.23372281     0.23605451    -2317.9659      823.42465      823.42465      823.42465      5.5830509e+08  1.2552852     -55767391      -55767391       1119.6364     -55766271      -2317.556      -2306.6648     -2329.6768      7.0929528     -8.6347174      11.692145      15518.405    
    131000   374.99937      0.0655         0.23321401     0.23210451     0.23440149    -2301.8999      823.81123      823.81123      823.81123      5.590918e+08   1.2535189     -55741433      -55741433       1116.6841     -55740316      -2301.6434     -2290.6934     -2313.3628      7.8563415     -9.5547926      12.231791      15482.961    
    132000   374.04588      0.066          0.2315055      0.23046316     0.23250575    -2284.6432      824.19781      824.19781      824.19781      5.5987925e+08  1.2517558     -55715638      -55715638       1113.8448     -55714524      -2284.7816     -2274.4945     -2294.6534      8.369229      -9.8931042      11.745277      15683.791    
    133000   372.94609      0.0665         0.22974274     0.22877404     0.23064476    -2267.1652      824.5844       824.5844       824.5844       5.6066745e+08  1.2499961     -55690007      -55690007       1110.5698     -55688897      -2267.3846     -2257.8242     -2276.2868      8.8900878     -9.245995       10.633946      15443.884    
    134000   371.75113      0.067          0.22804522     0.22704683     0.22895463    -2250.3386      824.97098      824.97098      824.97098      5.6145638e+08  1.2482396     -55664541      -55664541       1107.0114     -55663434      -2250.6313     -2240.7779     -2259.6066      9.3796723     -8.7227609      9.9770703      15448.385    
    135000   370.63175      0.0675         0.22641892     0.22530093     0.22736276    -2234.0081      825.35757      825.35757      825.35757      5.6224605e+08  1.2464865     -55639239      -55639239       1103.6781     -55638135      -2234.581      -2223.5473     -2243.8959      9.0693667     -8.9530767      10.231038      15604.996    
    136000   369.54192      0.068          0.22481247     0.22359361     0.22574369    -2217.7803      825.74415      825.74415      825.74415      5.6303646e+08  1.2447366     -55614106      -55614106       1100.4327     -55613005      -2218.7266     -2206.6973     -2227.917       8.6742893     -9.5022726      10.919063      15546.298    
    137000   368.40576      0.0685         0.22314267     0.22198614     0.2239801     -2201.1972      826.13074      826.13074      826.13074      5.6382761e+08  1.2429901     -55589137      -55589137       1097.0495     -55588040      -2202.247      -2190.8329     -2210.5117      9.4738953     -9.776725       11.248976      15413.54     
    138000   367.21502      0.069          0.2214764      0.22043787     0.22220392    -2184.779       826.51732      826.51732      826.51732      5.646195e+08   1.2412467     -55564324      -55564324       1093.5036     -55563231      -2185.8021     -2175.5526     -2192.9822      10.812348     -9.6133237      10.639776      15500.973    
    139000   366.13176      0.0695         0.21982884     0.21892665     0.22056793    -2169.0054      826.9039       826.9039       826.9039       5.6541214e+08  1.2395067     -55539661      -55539661       1090.2779     -55538570      -2169.542      -2160.638      -2176.8362      11.00628      -9.2573445      9.8407512      15556.56     
    140000   365.16978      0.07           0.21823186     0.21749611     0.21909018    -2154.1842      827.29049      827.29049      827.29049      5.6620551e+08  1.2377698     -55515148      -55515148       1087.4132     -55514061      -2153.781      -2146.5197     -2162.2519      10.040006     -8.89141        9.6884351      15541.707    
    141000   364.07406      0.0705         0.21667933     0.21602117     0.2175941     -2139.3029      827.67707      827.67707      827.67707      5.6699963e+08  1.2360363     -55490789      -55490789       1084.1504     -55489705      -2138.4587     -2131.9632     -2147.4868      9.6140519     -9.010481       9.7036899      15590.414    
    142000   362.83198      0.071          0.21515971     0.21443325     0.21600158    -2123.8409      828.06366      828.06366      828.06366      5.6779449e+08  1.2343059     -55466582      -55466582       1080.4517     -55465501      -2123.4613     -2116.2916     -2131.7699      10.355017     -9.3402789      9.0972695      15554.062    
    143000   361.64298      0.0715         0.2136477      0.21279885     0.21437224    -2108.1299      828.45024      828.45024      828.45024      5.6859009e+08  1.2325788     -55442526      -55442526       1076.911      -55441450      -2108.5388     -2100.1613     -2115.6895      11.198198     -9.2029142      8.1952594      15558.339    
    144000   360.5015       0.072          0.21216316     0.21124647     0.21280267    -2092.9757      828.83683      828.83683      828.83683      5.6938644e+08  1.2308549     -55418614      -55418614       1073.5119     -55417540      -2093.8875     -2084.8406     -2100.1991      11.453146     -8.8820452      8.2015932      15564.964    
    145000   359.1208       0.0725         0.21075123     0.20988074     0.21133888    -2079.0225      829.22341      829.22341      829.22341      5.7018352e+08  1.2291343     -55394837      -55394837       1069.4004     -55393768      -2079.9529     -2071.3619     -2085.7526      11.123397     -8.5976748      9.1154409      15464.81     
    146000   357.53699      0.073          0.20932893     0.20859364     0.20987081    -2065.2796      829.60999      829.60999      829.60999      5.7098136e+08  1.2274168     -55371201      -55371201       1064.6841     -55370136      -2065.9159     -2058.6592     -2071.2638      10.706158     -8.3595399      9.425274       15691.629    
    147000   356.20066      0.0735         0.20779476     0.20726099     0.20834082    -2050.8153      829.99658      829.99658      829.99658      5.7177993e+08  1.2257025     -55347707      -55347707       1060.7047     -55346646      -2050.7749     -2045.507      -2056.164       10.430469     -8.2235585      8.7700957      15426.391    
    148000   355.27508      0.074          0.20628973     0.2058569      0.20685389    -2036.3534      830.38316      830.38316      830.38316      5.7257925e+08  1.2239915     -55324348      -55324348       1057.9485     -55323290      -2035.9213     -2031.6496     -2041.4892      10.2468       -8.149291       7.9672614      15488.102    
    149000   354.45142      0.0745         0.20496458     0.20441971     0.20545236    -2022.6553      830.76975      830.76975      830.76975      5.7337931e+08  1.2222836     -55301122      -55301122       1055.4958     -55300066      -2022.8431     -2017.4657     -2027.6571      10.137315     -8.318245       7.4937595      15649.444    
    150000   353.41659      0.075          0.20371642     0.20298207     0.20409648    -2009.3592      831.15633      831.15633      831.15633      5.7418012e+08  1.2205788     -55278029      -55278029       1052.4143     -55276977      -2010.5247     -2003.2773     -2014.2757      10.138457     -8.3771986      7.3318817      15147.823    
    151000   352.13678      0.0755         0.2024056      0.20159262     0.20270487    -1995.898       831.54292      831.54292      831.54292      5.7498168e+08  1.2188773     -55255072      -55255072       1048.6032     -55254024      -1997.5879     -1989.5644     -2000.5415      10.27448      -7.6225116      7.3410893      15481.411    
    152000   350.77112      0.076          0.20098252     0.20028958     0.20131262    -1982.3496      831.9295       831.9295       831.9295       5.7578398e+08  1.2171789     -55232245      -55232245       1044.5365     -55231201      -1983.5432     -1976.7045     -1986.8011      10.580453     -6.5915283      7.1525805      15527.475    
    153000   349.44         0.0765         0.19961627     0.19904999     0.20000649    -1969.4802      832.31609      832.31609      832.31609      5.7658702e+08  1.2154837     -55209539      -55209539       1040.5726     -55208499      -1970.0595     -1964.4707     -1973.9106      10.614934     -6.2716263      6.7941927      15428.052    
    154000   348.198        0.077          0.1984301      0.19783593     0.1987525     -1957.4588      832.70267      832.70267      832.70267      5.7739082e+08  1.2137916     -55186952      -55186952       1036.8742     -55185916      -1958.3529     -1952.4888     -1961.5347      10.010443     -6.8997004      6.6477907      15477.385    
    155000   347.15347      0.0775         0.19733868     0.1966673      0.19749761    -1945.8955      833.08925      833.08925      833.08925      5.7819535e+08  1.2121026     -55164479      -55164479       1033.7638     -55163446      -1947.5814     -1940.9553     -1949.1499      9.3534337     -7.4857223      6.7623793      15549.775    
    156000   346.31472      0.078          0.19625075     0.19554359     0.19620973    -1934.383       833.47584      833.47584      833.47584      5.7900064e+08  1.2104168     -55142119      -55142119       1031.2661     -55141088      -1936.8443     -1929.8652     -1936.4394      8.9492261     -7.069715       6.7588484      15457.798    
    157000   345.39779      0.0785         0.19509004     0.19446612     0.19487846    -1922.6404      833.86242      833.86242      833.86242      5.7980667e+08  1.2087341     -55119871      -55119871       1028.5356     -55118843      -1925.389      -1919.2314     -1923.3009      8.528185      -6.0612361      6.4150269      15569.189    
    158000   344.07177      0.079          0.19388517     0.19342717     0.19368066    -1911.3184      834.24901      834.24901      834.24901      5.8061345e+08  1.2070546     -55097734      -55097734       1024.587      -55096709      -1913.4978     -1908.9777     -1911.4795      8.5318011     -5.4206899      5.6282194      15552.029    
    159000   342.47766      0.0795         0.19269729     0.19232761     0.19268771    -1900.5267      834.63559      834.63559      834.63559      5.8142098e+08  1.2053781     -55075700      -55075700       1019.84       -55074680      -1901.7744     -1898.1259     -1901.6798      9.0706408     -5.390459       4.6577096      15439.26     
    160000   341.14997      0.08           0.19159825     0.19116454     0.19169223    -1889.8101      835.02218      835.02218      835.02218      5.8222926e+08  1.2037047     -55053763      -55053763       1015.8863     -55052747      -1890.9277     -1886.6473     -1891.8552      9.265143      -5.5204408      4.1701198      15647.043    
    161000   340.35139      0.0805         0.19067099     0.19008947     0.19056718    -1879.5218      835.40876      835.40876      835.40876      5.8303829e+08  1.2020345     -55031922      -55031922       1013.5083     -55030909      -1881.7764     -1876.0372     -1880.7519      8.3831491     -5.3998158      4.5499869      15471.7      
    162000   339.74583      0.081          0.18985581     0.18915978     0.18941436    -1869.9892      835.79534      835.79534      835.79534      5.8384806e+08  1.2003673     -55010175      -55010175       1011.7051     -55009164      -1873.7312     -1866.8619     -1869.3744      7.0053663     -4.9721017      5.2754354      15518.63     
    163000   338.8133       0.0815         0.18895573     0.18826809     0.18834897    -1860.5898      836.18193      836.18193      836.18193      5.8465859e+08  1.1987032     -54988516      -54988516       1008.9282     -54987507      -1864.8481     -1858.0616     -1858.8598      6.7120326     -4.5625602      5.5719389      15643.208    
    164000   337.48446      0.082          0.18788701     0.18734298     0.18737647    -1850.8313      836.56851      836.56851      836.56851      5.8546986e+08  1.1970422     -54966944      -54966944       1004.9711     -54965939      -1854.3006     -1848.9314     -1849.262       7.6218978     -4.3643057      5.0656968      15504.234    
    165000   336.12629      0.0825         0.18681656     0.1863494      0.18644645    -1840.9817      836.9551       836.9551       836.9551       5.8628189e+08  1.1953842     -54945464      -54945464       1000.9267     -54944463      -1843.7361     -1839.1256     -1840.0834      8.4835807     -4.2187267      4.1454506      15459.718    
    166000   335.09284      0.083          0.18590552     0.18534601     0.18549001    -1831.5373      837.34168      837.34168      837.34168      5.8709466e+08  1.1937293     -54924073      -54924073       997.84925     -54923075      -1834.7448     -1829.2229     -1830.6441      8.2340905     -3.9130964      3.6944754      15632.208    
    167000   334.38851      0.0835         0.18507299     0.18442112     0.18450564    -1822.5175      837.72827      837.72827      837.72827      5.8790819e+08  1.1920775     -54902762      -54902762       995.75187     -54901766      -1826.5284     -1820.0949     -1820.9291      7.0815962     -3.3685739      4.0031277      15461.335    
    168000   333.77543      0.084          0.18426122     0.18359811     0.18359804    -1814.1537      838.11485      838.11485      838.11485      5.8872246e+08  1.1904287     -54881529      -54881529       993.92623     -54880535      -1818.5168     -1811.9725     -1811.9718      6.1003913     -2.7585037      4.5022283      15460.71     
    169000   333.06698      0.0845         0.18346791     0.18278111     0.1827585     -1806.0943      838.50143      838.50143      838.50143      5.8953749e+08  1.1887829     -54860377      -54860377       991.81659     -54859385      -1810.6875     -1803.9093     -1803.6862      5.8852546     -2.3480199      4.5854318      15587.316    
    170000   332.26677      0.085          0.18268482     0.18194365     0.18191201    -1797.9784      838.88802      838.88802      838.88802      5.9035327e+08  1.1871402     -54839300      -54839300       989.43371     -54838311      -1802.959      -1795.6442     -1795.332       6.3341572     -2.2393482      4.2482942      15456.82     
    171000   331.46104      0.0855         0.18190712     0.18113714     0.18105104    -1789.9344      839.2746       839.2746       839.2746       5.9116981e+08  1.1855005     -54818294      -54818294       987.03438     -54817307      -1795.2837     -1787.6845     -1786.8349      6.9457933     -2.4240781      3.9336924      15541.429    
    172000   330.74071      0.086          0.1811078      0.18038602     0.18019692    -1782.024       839.66119      839.66119      839.66119      5.9198709e+08  1.1838638     -54797355      -54797355       984.88937     -54796370      -1787.395      -1780.2716     -1778.4053      6.8621232     -2.4110906      3.9310085      15552.678    
    173000   330.08409      0.0865         0.18027019     0.17962541     0.17940151    -1774.1496      840.04777      840.04777      840.04777      5.9280513e+08  1.1822302     -54776482      -54776482       982.93407     -54775499      -1779.1285     -1772.765      -1770.5553      6.0404247     -1.9458324      4.208212       15451.139    
    174000   329.43338      0.087          0.17949065     0.17887433     0.17873433    -1766.9194      840.43436      840.43436      840.43436      5.9362392e+08  1.1805995     -54755675      -54755675       980.99636     -54754694      -1771.435      -1765.3524     -1763.9707      5.6854362     -1.2685918      4.6058363      15640.488    
    175000   328.72925      0.0875         0.17882556     0.17821775     0.17816082    -1760.6847      840.82094      840.82094      840.82094      5.9444347e+08  1.1789718     -54734933      -54734933       978.89957     -54733954      -1764.871      -1758.8724     -1758.3106      6.023681      -0.893713       4.7312201      15481.359    
    176000   328.081        0.088          0.17819065     0.17757799     0.17754415    -1754.4627      841.20753      841.20753      841.20753      5.9526377e+08  1.1773472     -54714251      -54714251       976.96921     -54713274      -1758.605      -1752.5585     -1752.2245      6.0065041     -1.0450141      3.988047       15400.391    
    177000   327.65581      0.0885         0.17751957     0.17687548     0.17673222    -1747.2729      841.59411      841.59411      841.59411      5.9608482e+08  1.1757255     -54693623      -54693623       975.70307     -54692648      -1751.982      -1745.6252     -1744.2114      5.5448055     -1.4864432      3.0235853      15611.412    
    178000   327.23911      0.089          0.17683635     0.17618473     0.17588907    -1739.9791      841.98069      841.98069      841.98069      5.9690663e+08  1.1741068     -54673051      -54673051       974.46218     -54672077      -1745.2391     -1738.8081     -1735.8901      5.3034417     -1.6950193      2.8530133      15433.976    
    179000   326.62827      0.0895         0.17617354     0.17549861     0.1752377     -1733.3987      842.36728      842.36728      842.36728      5.9772919e+08  1.172491      -54652541      -54652541       972.64322     -54651568      -1738.6977     -1732.0366     -1729.4617      5.4947531     -1.5779086      3.311928       15499.996    
    180000   326.02056      0.09           0.17551846     0.17482434     0.17472166    -1727.3278      842.75386      842.75386      842.75386      5.9855251e+08  1.1708782     -54632087      -54632087       970.83357     -54631116      -1732.2325     -1725.3821     -1724.3688      5.7620937     -1.1956356      3.9756244      15634.729    
    181000   325.59838      0.0905         0.17488101     0.17419401     0.17417179    -1721.3481      843.14045      843.14045      843.14045      5.9937658e+08  1.1692684     -54611680      -54611680       969.57637     -54610710      -1725.9413     -1719.1612     -1718.9419      5.8377687     -0.50302081     4.4636058      15440.086    
    182000   325.25575      0.091          0.17423109     0.17362654     0.17350848    -1715.1611      843.52703      843.52703      843.52703      6.0020141e+08  1.1676616     -54591323      -54591323       968.55607     -54590354      -1719.5272     -1713.5607     -1712.3956      5.9910557      0.025298688    4.3951226      15484.547    
    183000   324.8996       0.0915         0.1736077      0.17307268     0.17275744    -1708.8176      843.91362      843.91362      843.91362      6.01027e+08    1.1660576     -54571026      -54571026       967.49553     -54570059      -1713.3748     -1708.0945     -1704.9834      6.1258751      0.18601141     3.8640113      15598.382    
    184000   324.54351      0.092          0.17305324     0.17247916     0.17204341    -1702.6921      844.3002       844.3002       844.3002       6.0185334e+08  1.1644566     -54550788      -54550788       966.43515     -54549822      -1707.9027     -1702.237      -1697.9364      5.9408858      0.0073254819   3.4432544      15422.455    
    185000   324.1218       0.0925         0.17253959     0.17187089     0.17147566    -1697.1335      844.68678      844.68678      844.68678      6.0268044e+08  1.1628586     -54530596      -54530596       965.17937     -54529631      -1702.8334     -1696.2338     -1692.3332      5.52796       -0.18806472     3.6678719      15556.328    
    186000   323.68128      0.093          0.17204786     0.17127032     0.1710153     -1692.0256      845.07337      845.07337      845.07337      6.035083e+08   1.1612634     -54510439      -54510439       963.86757     -54509475      -1697.9803     -1690.3066     -1687.7898      5.1642523     -0.10326425     4.099169       15477.407    
    187000   323.47534      0.0935         0.17153043     0.17070143     0.17055432    -1686.9354      845.45995      845.45995      845.45995      6.0433692e+08  1.1596712     -54490321      -54490321       963.25432     -54489358      -1692.8738     -1684.6921     -1683.2402      5.1728066      0.024258854    4.2711488      15452.961    
    188000   323.48042      0.094          0.17092182     0.17015584     0.17002267    -1681.3894      845.84654      845.84654      845.84654      6.0516629e+08  1.1580819     -54470255      -54470255       963.26947     -54469292      -1686.8672     -1679.3076     -1677.9933      5.6663108     -0.12333558     3.9346425      15613.574    
    189000   323.33921      0.0945         0.17027435     0.1696065      0.16941426    -1675.4507      846.23312      846.23312      846.23312      6.0599642e+08  1.1564955     -54450245      -54450245       962.84896     -54449283      -1680.4772     -1673.886      -1671.9888      5.9144088     -0.020641936    3.609356       15508.796    
    190000   322.97062      0.095          0.16969296     0.16903514     0.16877562    -1669.5574      846.61971      846.61971      846.61971      6.0682731e+08  1.1549119     -54430285      -54430285       961.75135     -54429323      -1674.7393     -1668.2471     -1665.6858      5.3154041      0.50527355     3.2927194      15427.219    
    191000   322.60996      0.0955         0.16923744     0.16848935     0.1682242     -1664.4493      847.00629      847.00629      847.00629      6.0765896e+08  1.1533313     -54410364      -54410364       960.67737     -54409403      -1670.2437     -1662.8606     -1660.2437      4.6835865      1.1891995      3.1388063      15635.157    
    192000   322.40569      0.096          0.1688239      0.16799057     0.16776187    -1659.9271      847.39287      847.39287      847.39287      6.0849137e+08  1.1517536     -54390478      -54390478       960.06909     -54389518      -1666.1623     -1657.938      -1655.6809      4.8930559      1.6268966      3.7023358      15526.471    
    193000   322.31634      0.0965         0.16837107     0.16754948     0.16733678    -1655.5879      847.77946      847.77946      847.77946      6.0932454e+08  1.1501787     -54370627      -54370627       959.80301     -54369667      -1661.6932     -1653.5848     -1651.4856      5.7763277      1.1931622      4.4649531      15538.574    
    194000   322.15922      0.097          0.16789061     0.167115       0.16690835    -1651.1686      848.16604      848.16604      848.16604      6.1015847e+08  1.1486067     -54350810      -54350810       959.33516     -54349851      -1656.9515     -1649.2969     -1647.2574      6.551058       0.025538076    4.638239       15555.389    
    195000   321.97885      0.0975         0.16738546     0.1666703      0.16638983    -1646.338       848.55263      848.55263      848.55263      6.1099316e+08  1.1470376     -54331032      -54331032       958.79803     -54330073      -1651.966      -1644.908      -1642.1399      6.3547426     -0.86165274     4.2363587      15483.562    
    196000   321.86623      0.098          0.16682657     0.16613227     0.1657792     -1640.7206      848.93921      848.93921      848.93921      6.1182861e+08  1.1454713     -54311302      -54311302       958.46268     -54310343      -1646.4503     -1639.5981     -1636.1135      5.27748       -0.75618938     3.8327531      15490.233    
    197000   321.71826      0.0985         0.16626148     0.16556768     0.1652037     -1635.111       849.3258       849.3258       849.3258       6.1266482e+08  1.1439079     -54291618      -54291618       958.02206     -54290660      -1640.8732     -1634.0259     -1630.4337      4.3760136      0.25887097     3.4250064      15628.955    
    198000   321.5559       0.099          0.16582046     0.16508948     0.16475107    -1630.5979      849.71238      849.71238      849.71238      6.135018e+08   1.1423473     -54271975      -54271975       957.53857     -54271017      -1636.5207     -1629.3065     -1625.9666      4.6671504      1.1706361      3.320947       15487.024    
    199000   321.48434      0.0995         0.16542508     0.16466641     0.1643684     -1626.6466      850.09897      850.09897      850.09897      6.1433953e+08  1.1407895     -54252363      -54252363       957.32546     -54251406      -1632.6186     -1625.1311     -1622.19        5.8985183      1.4678576      3.7971524      15602.965    
    200000   321.52894      0.1            0.16497035     0.16425592     0.16396062    -1622.4587      850.48555      850.48555      850.48555      6.1517803e+08  1.1392346     -54232782      -54232782       957.45829     -54231825      -1628.1308     -1621.0799     -1618.1655      6.7099275      1.2788771      4.297998       15069.711    
    201000   321.57864      0.1005         0.16449432     0.16381371     0.16357141    -1618.1576      850.87213      850.87213      850.87213      6.1601729e+08  1.1376825     -54213237      -54213237       957.60628     -54212280      -1623.4327     -1616.7156     -1614.3243      6.2081002      0.98958949     4.3249016      15469.447    
    202000   321.45483      0.101          0.16404188     0.16335272     0.16317868    -1613.8606      851.25872      851.25872      851.25872      6.1685731e+08  1.1361333     -54193731      -54193731       957.2376      -54192774      -1618.9675     -1612.166      -1610.4484      5.3460209      0.79816546     3.8980456      15585.748    
    203000   321.19798      0.1015         0.16359646     0.16286073     0.16265591    -1609.057       851.6453       851.6453       851.6453       6.176981e+08   1.1345868     -54174261      -54174261       956.47273     -54173305      -1614.5715     -1607.3104     -1605.289       5.0438725      0.82617625     3.5024243      15507.056    
    204000   321.02298      0.102          0.16317222     0.16240256     0.1620779     -1604.2526      852.03189      852.03189      852.03189      6.1853965e+08  1.1330431     -54154827      -54154827       955.95163     -54153871      -1610.3846     -1602.7886     -1599.5845      5.3247042      0.90545893     3.4592879      15482.993    
    205000   320.99238      0.1025         0.16279882     0.16204441     0.1615934     -1600.2521      852.41847      852.41847      852.41847      6.1938197e+08  1.1315023     -54135426      -54135426       955.86049     -54134470      -1606.6994     -1599.254      -1594.8028      5.6790246      1.1705551      3.5492335      15578.672    
    206000   321.03672      0.103          0.16239761     0.16167076     0.16123832    -1596.5349      852.80506      852.80506      852.80506      6.2022504e+08  1.1299642     -54116054      -54116054       955.99253     -54115098      -1602.7398     -1595.5663     -1591.2985      5.725303       1.4793169      3.7071149      15443.522    
    207000   321.08828      0.1035         0.16190397     0.16120645     0.16088006    -1592.2049      853.19164      853.19164      853.19164      6.2106889e+08  1.1284289     -54096713      -54096713       956.14607     -54095757      -1597.868      -1590.984      -1587.7627      5.6338609      1.6155268      3.9594031      15434.585    
    208000   321.09522      0.104          0.16142574     0.16073739     0.1604485     -1587.6688      853.57822      853.57822      853.57822      6.219135e+08   1.1268965     -54077409      -54077409       956.16673     -54076452      -1593.1482     -1586.3547     -1583.5035      5.5037031      1.4357243      3.9992703      15545.509    
    209000   320.99541      0.1045         0.16103856     0.1603264      0.15996342    -1583.4473      853.96481      853.96481      853.96481      6.2275887e+08  1.1253667     -54058142      -54058142       955.86952     -54057186      -1589.327      -1582.2985     -1578.7162      5.3210974      1.1832338      3.6248833      15464.206    
    210000   320.84457      0.105          0.16068249     0.15993708     0.15947424    -1579.3858      854.35139      854.35139      854.35139      6.2360501e+08  1.1238398     -54038909      -54038909       955.42035     -54037954      -1585.8129     -1578.4562     -1573.8884      5.141811       1.0980837      3.4710153      15469.688    
    211000   320.79812      0.1055         0.16024757     0.15950937     0.15903014    -1575.087       854.73798      854.73798      854.73798      6.2445192e+08  1.1223156     -54019706      -54019706       955.28202     -54018751      -1581.5205     -1574.235      -1569.5054      5.0995515      1.083583       3.9957307      15484.323    
    212000   320.79732      0.106          0.15980414     0.15909791     0.15867698    -1571.1129      855.12456      855.12456      855.12456      6.2529959e+08  1.1207941     -54000529      -54000529       955.27963     -53999574      -1577.1443     -1570.1743     -1566.0201      5.2771479      0.77912524     4.4150135      15458.483    
    213000   320.67766      0.1065         0.15943468     0.15870709     0.158351      -1567.5393      855.51115      855.51115      855.51115      6.2614803e+08  1.1192754     -53981384      -53981384       954.92333     -53980429      -1573.498      -1566.3172     -1562.8029      5.6076415      0.2627193      4.0343619      15480.532    
    214000   320.53134      0.107          0.159037       0.15825097     0.15793961    -1563.3772      855.89773      855.89773      855.89773      6.2699723e+08  1.1177595     -53962274      -53962274       954.4876      -53961319      -1569.5732     -1561.8156     -1558.7427      5.7494666      0.23293766     3.4958608      15465.194    
    215000   320.58857      0.1075         0.1585558      0.15777061     0.15746826    -1558.6633      856.28431      856.28431      856.28431      6.2784721e+08  1.1162463     -53943196      -53943196       954.65803     -53942241      -1564.824      -1557.0749     -1554.0909      5.4731505      0.91978969     3.6264476      15397.561    
    216000   320.80033      0.108          0.15811288     0.15737597     0.15706048    -1554.5664      856.6709       856.6709       856.6709       6.2869795e+08  1.1147358     -53924155      -53924155       955.28861     -53923200      -1560.4528     -1553.18       -1550.0664      5.1221996      1.6523597      4.2223176      15561.651    
    217000   320.8783       0.1085         0.15777262     0.15705122     0.15669842    -1551.1876      857.05748      857.05748      857.05748      6.2954946e+08  1.113228      -53905149      -53905149       955.52078     -53904193      -1557.0947     -1549.975      -1546.4932      5.1224698      1.6906336      4.516365       15395.975    
[...]
   4885000   329.55011      2.4425         0.0037028138   0.0036756017   0.0037269789  -36.533907      2661.6332      2661.6332      2661.6332      1.8855785e+10  0.037168016   -5114368.4     -5114368.4      981.34395     -5113387       -36.543931     -36.275368     -36.782422      0.038252358    0.030933314   -0.10021635     15740.167    
   4886000   329.55457      2.443          0.0036993953   0.0036720813   0.0037243271  -36.502356      2662.0198      2662.0198      2662.0198      1.8864002e+10  0.037151826   -5110184.8     -5110184.8      981.35725     -5109203.4     -36.510192     -36.240625     -36.756251      0.036916291    0.032714822   -0.096564423    15625.026    
   4887000   329.56091      2.4435         0.0036955901   0.0036684891   0.003722067   -36.470585      2662.4064      2662.4064      2662.4064      1.8872221e+10  0.037135645   -5106003.6     -5106003.6      981.37612     -5105022.2     -36.472639     -36.205173     -36.733945      0.037508897    0.036429561   -0.096004985    15779.83     
   4888000   329.57438      2.444          0.003691447    0.0036652624   0.0037192589  -36.437103      2662.7929      2662.7929      2662.7929      1.8880443e+10  0.037119473   -5101825.2     -5101825.2      981.41623     -5100843.7     -36.43175      -36.173328     -36.706231      0.038038239    0.037633553   -0.097159863    15640.516    
   4889000   329.59036      2.4445         0.0036871343   0.0036622593   0.0037158526  -36.40183       2663.1795      2663.1795      2663.1795      1.8888668e+10  0.037103311   -5097649.6     -5097649.6      981.46382     -5096668.1     -36.389186     -36.143689     -36.672614      0.0387207      0.038414435   -0.098766324    15630.448    
   4890000   329.59777      2.445          0.0036833765   0.0036592178   0.0037124135  -36.368148      2663.5661      2663.5661      2663.5661      1.8896895e+10  0.037087158   -5093477       -5093477        981.48589     -5092495.5     -36.352099     -36.113672     -36.638672      0.038647934    0.03747234    -0.099751818    15782.634    
   4891000   329.5956       2.4455         0.0036801884   0.0036559579   0.0037089569  -36.335564      2663.9527      2663.9527      2663.9527      1.8905124e+10  0.037071014   -5089307.2     -5089307.2      981.47942     -5088325.7     -36.320636     -36.081499     -36.604558      0.036898869    0.035880727   -0.099654956    15668.319    
   4892000   329.5898       2.446          0.003677508    0.003652599    0.0037055747  -36.30457       2664.3393      2664.3393      2664.3393      1.8913355e+10  0.03705488    -5085139.9     -5085139.9      981.46214     -5084158.4     -36.294182     -36.04835      -36.571179      0.037946598    0.034862771   -0.10068085     15674.975    
   4893000   329.58058      2.4465         0.0036754737   0.0036491434   0.0037020844  -36.275028      2664.7259      2664.7259      2664.7259      1.8921589e+10  0.037038755   -5080974.9     -5080974.9      981.43468     -5079993.5     -36.274105     -36.014245     -36.536732      0.042347187    0.032638024   -0.10329745     15788.712    
   4894000   329.57083      2.447          0.0036734278   0.0036457238   0.003698762   -36.246117      2665.1124      2665.1124      2665.1124      1.8929826e+10  0.03702264    -5076812.1     -5076812.1      981.40564     -5075830.7     -36.253913     -35.980496     -36.503943      0.049734505    0.029151103   -0.10597985     15686.278    
   4895000   329.55537      2.4475         0.0036706491   0.0036426877   0.0036960135  -36.217946      2665.499       2665.499       2665.499       1.8938064e+10  0.037006534   -5072651.4     -5072651.4      981.35961     -5071670.1     -36.22649      -35.950532     -36.476817      0.058107024    0.026661332   -0.10738962     15743.361    
   4896000   329.5324       2.448          0.0036666992   0.0036398523   0.0036932119  -36.186408      2665.8856      2665.8856      2665.8856      1.8946305e+10  0.036990437   -5068492.8     -5068492.8      981.29121     -5067511.5     -36.187508     -35.922549     -36.449167      0.063233357    0.025021989   -0.10731805     15711.092    
   4897000   329.51133      2.4485         0.0036619407   0.0036366752   0.0036898599  -36.149275      2666.2722      2666.2722      2666.2722      1.8954549e+10  0.036974349   -5064337.2     -5064337.2      981.22847     -5063355.9     -36.140545     -35.891194     -36.416086      0.063246253    0.02308784    -0.10666557     15669.722    
   4898000   329.49208      2.449          0.0036576565   0.0036332926   0.0036863768  -36.112594      2666.6588      2666.6588      2666.6588      1.8962795e+10  0.036958271   -5060184.8     -5060184.8      981.17116     -5059203.6     -36.098263     -35.85781      -36.38171       0.061317142    0.020617495   -0.10724981     15821.573    
   4899000   329.47964      2.4495         0.0036541263   0.0036300115   0.0036829909  -36.079048      2667.0454      2667.0454      2667.0454      1.8971043e+10  0.036942202   -5056035.4     -5056035.4      981.13412     -5055054.3     -36.063423     -35.825428     -36.348295      0.060656374    0.019506807   -0.10788935     15645.141    
   4900000   329.47546      2.45           0.0036514614   0.0036271842   0.0036798227  -36.050558      2667.432       2667.432       2667.432       1.8979294e+10  0.036926143   -5051888.6     -5051888.6      981.12167     -5050907.4     -36.037122     -35.797525     -36.317027      0.061136842    0.022374346   -0.10904725     15129.092    
   4901000   329.47213      2.4505         0.0036492008   0.0036246464   0.003676946   -36.025309      2667.8185      2667.8185      2667.8185      1.8987547e+10  0.036910093   -5047743.6     -5047743.6      981.11173     -5046762.5     -36.014812     -35.772479     -36.288636      0.064754915    0.02436454    -0.11001404     15790.637    
   4902000   329.46612      2.451          0.0036468827   0.0036219442   0.0036744712  -36.000652      2668.2051      2668.2051      2668.2051      1.8995802e+10  0.036894052   -5043600.2     -5043600.2      981.09386     -5042619.1     -35.991934     -35.74581      -36.264211      0.068621752    0.023609001   -0.10847755     15611.009    
   4903000   329.45447      2.4515         0.0036442416   0.0036188012   0.003671881   -35.973102      2668.5917      2668.5917      2668.5917      1.900406e+10   0.03687802    -5039458.5     -5039458.5      981.05916     -5038477.5     -35.965868     -35.714791     -36.238648      0.070900499    0.022788612   -0.10636953     15628.838    
   4904000   329.4387       2.452          0.0036408603   0.0036152603   0.003668507   -35.939231      2668.9783      2668.9783      2668.9783      1.901232e+10   0.036861998   -5035319.2     -5035319.2      981.0122      -5034338.2     -35.932498     -35.679845     -36.205349      0.071635515    0.020948747   -0.10586727     15777.488    
   4905000   329.43237      2.4525         0.0036365704   0.003611286    0.00366431    -35.898236      2669.3649      2669.3649      2669.3649      1.9020583e+10  0.036845985   -5031183.2     -5031183.2      980.99334     -5030202.2     -35.890159     -35.640622     -36.163928      0.071069284    0.018207011   -0.10592036     15640.928    
   4906000   329.44288      2.453          0.0036324795   0.0036072095   0.0036605853  -35.859114      2669.7515      2669.7515      2669.7515      1.9028848e+10  0.036829981   -5027051.3     -5027051.3      981.02463     -5026070.2     -35.849785     -35.60039      -36.127168      0.072064059    0.015893447   -0.10622614     15771.254    
   4907000   329.45891      2.4535         0.0036294289   0.0036041246   0.0036579387  -35.830224      2670.138       2670.138       2670.138       1.9037115e+10  0.036813987   -5022922.2     -5022922.2      981.07237     -5021941.2     -35.819679     -35.569944     -36.101048      0.07228906     0.01312876    -0.1066838      15728.06     
   4908000   329.47358      2.454          0.0036271623   0.0036018981   0.0036557291  -35.808173      2670.5246      2670.5246      2670.5246      1.9045385e+10  0.036798001   -5018794.9     -5018794.9      981.11606     -5017813.8     -35.797309     -35.54797      -36.079241      0.071078296    0.01168209    -0.10711065     15647.684    
   4909000   329.49287      2.4545         0.003624821    0.0035997445   0.0036534154  -35.785775      2670.9112      2670.9112      2670.9112      1.9053657e+10  0.036782025   -5014668.7     -5014668.7      981.17351     -5013687.6     -35.774201     -35.526716     -36.056407      0.072522316    0.011934119   -0.10726301     15756.021    
   4910000   329.51403      2.455          0.0036217184   0.0035970526   0.0036504766  -35.757044      2671.2978      2671.2978      2671.2978      1.9061932e+10  0.036766059   -5010544.4     -5010544.4      981.23652     -5009563.2     -35.743581     -35.500149     -36.027403      0.075132169    0.011898748   -0.10501782     15668.841    
   4911000   329.52974      2.4555         0.003617855    0.0035941576   0.003646845   -35.722864      2671.6844      2671.6844      2671.6844      1.9070209e+10  0.036750101   -5006422.7     -5006422.7      981.28329     -5005441.5     -35.705452     -35.471577     -35.991562      0.077646948    0.012581808   -0.10259946     15679.982    
   4912000   329.53681      2.456          0.0036135523   0.0035912257   0.0036432741  -35.687317      2672.071       2672.071       2672.071       1.9078488e+10  0.036734153   -5002304.3     -5002304.3      981.30436     -5001323       -35.662989     -35.442642     -35.95632       0.081120729    0.015687865   -0.10276216     15816.086    
   4913000   329.54285      2.4565         0.0036096651   0.0035882795   0.0036404432  -35.655524      2672.4575      2672.4575      2672.4575      1.908677e+10   0.036718214   -4998188.7     -4998188.7      981.32233     -4997207.4     -35.624625     -35.413566     -35.928381      0.082764509    0.018333479   -0.10610358     15645.31     
   4914000   329.551        2.457          0.0036069252   0.0035854914   0.0036379339  -35.629083      2672.8441      2672.8441      2672.8441      1.9095054e+10  0.036702284   -4994075.4     -4994075.4      981.34659     -4993094       -35.597584     -35.386049     -35.903616      0.081889549    0.017668587   -0.10992148     15619.426    
   4915000   329.55145      2.4575         0.0036045678   0.0035825866   0.0036352458  -35.602928      2673.2307      2673.2307      2673.2307      1.9103341e+10  0.036686364   -4989963.8     -4989963.8      981.34795     -4988982.5     -35.574318     -35.357381     -35.877086      0.081406956    0.014098111   -0.11194754     15803.632    
   4916000   329.53607      2.458          0.0036020281   0.003579373    0.0036321226  -35.573727      2673.6173      2673.6173      2673.6173      1.911163e+10   0.036670452   -4985854.3     -4985854.3      981.30214     -4984873       -35.549254     -35.325665     -35.846263      0.0778343      0.01034162    -0.11197794     15613.538    
   4917000   329.50304      2.4585         0.0035989916   0.0035761277   0.0036288131  -35.542174      2674.0039      2674.0039      2674.0039      1.9119921e+10  0.03665455    -4981747.1     -4981747.1      981.20378     -4980765.9     -35.519286     -35.293637     -35.813601      0.07229871     0.0077653389  -0.11019498     15714.662    
   4918000   329.46578      2.459          0.0035955805   0.0035729122   0.0036256408  -35.509938      2674.3905      2674.3905      2674.3905      1.9128215e+10  0.036638657   -4977642.5     -4977642.5      981.09284     -4976661.4     -35.485621     -35.261902     -35.782293      0.069511858    0.0078001896  -0.10880245     15698.779    
   4919000   329.44625      2.4595         0.0035924758   0.0035694333   0.0036224325  -35.477725      2674.7771      2674.7771      2674.7771      1.9136511e+10  0.036622773   -4973540.7     -4973540.7      981.03467     -4972559.6     -35.454979     -35.227568     -35.750629      0.070535037    0.0082566014  -0.10768123     15629.312    
   4920000   329.45112      2.46           0.0035898466   0.003566224    0.0036190001  -35.447227      2675.1636      2675.1636      2675.1636      1.914481e+10   0.036606899   -4969441.3     -4969441.3      981.04919     -4968460.3     -35.429032     -35.195894     -35.716754      0.075006491    0.0074042968  -0.10441865     15751.23     
   4921000   329.47694      2.4605         0.0035872444   0.0035636317   0.0036152801  -35.4179        2675.5502      2675.5502      2675.5502      1.9153111e+10  0.036591033   -4965344.5     -4965344.5      981.12607     -4964363.4     -35.40335      -35.17031      -35.68004       0.080002416    0.0075539974  -0.10345865     15610.963    
   4922000   329.51999      2.461          0.0035842692   0.0035606996   0.0036115528  -35.386205      2675.9368      2675.9368      2675.9368      1.9161414e+10  0.036575177   -4961250       -4961250        981.25427     -4960268.8     -35.373986     -35.141373     -35.643255      0.08293708     0.0072863806  -0.10561325     15599.224    
   4923000   329.56218      2.4615         0.0035813385   0.0035573065   0.0036083689  -35.354927      2676.3234      2676.3234      2676.3234      1.916972e+10   0.03655933    -4957158.5     -4957158.5      981.37989     -4956177.1     -35.345063     -35.107886     -35.611832      0.084194539    0.0065255895  -0.1091099      15747.694    
   4924000   329.57458      2.462          0.0035788933   0.0035540229   0.003606015   -35.328337      2676.71        2676.71        2676.71        1.9178028e+10  0.036543492   -4953069.2     -4953069.2      981.41683     -4952087.8     -35.32093      -35.075479     -35.588601      0.08475        0.0053828294  -0.11404217     15673.405    
   4925000   329.55799      2.4625         0.0035762579   0.0035507341   0.0036038814  -35.301829      2677.0966      2677.0966      2677.0966      1.9186339e+10  0.036527663   -4948981.6     -4948981.6      981.36743     -4948000.2     -35.294922     -35.043021     -35.567544      0.084997705    0.0026643794  -0.11806563     15688.138    
   4926000   329.53791      2.463          0.0035727867   0.0035473384   0.003600981   -35.269697      2677.4831      2677.4831      2677.4831      1.9194652e+10  0.036511843   -4944896.4     -4944896.4      981.30764     -4943915       -35.260663     -35.009508     -35.53892       0.087101407    0.0019312309  -0.11971716     15727.82     
   4927000   329.52686      2.4635         0.0035691595   0.0035437882   0.0035971624  -35.233523      2677.8697      2677.8697      2677.8697      1.9202967e+10  0.036496033   -4940813.9     -4940813.9      981.27472     -4939832.6     -35.224866     -34.974471     -35.501232      0.088621661    0.004234382   -0.11975324     15665.748    
   4928000   329.52745      2.464          0.0035656868   0.0035401739   0.0035930699  -35.196745      2678.2563      2678.2563      2678.2563      1.9211285e+10  0.036480231   -4936735       -4936735        981.27647     -4935753.7     -35.190592     -34.9388       -35.460843      0.08787152     0.0063897021  -0.11837312     15706.487    
   4929000   329.53894      2.4645         0.0035623553   0.0035369157   0.0035894109  -35.16303       2678.6429      2678.6429      2678.6429      1.9219605e+10  0.036464439   -4932659       -4932659        981.3107      -4931677.7     -35.157713     -34.906644     -35.424731      0.087611131    0.0087849142  -0.11850588     15686.104    
   4930000   329.55437      2.465          0.0035590456   0.003533371    0.0035862536  -35.130093      2679.0295      2679.0295      2679.0295      1.9227928e+10  0.036448656   -4928585.9     -4928585.9      981.35665     -4927604.5     -35.125049     -34.87166      -35.393571      0.088086997    0.0098104164  -0.1223392      15593.531    
   4931000   329.5699       2.4655         0.0035555249   0.0035295001   0.0035832269  -35.09582       2679.4161      2679.4161      2679.4161      1.9236253e+10  0.036432882   -4924515.6     -4924515.6      981.40288     -4923534.2     -35.090303     -34.833458     -35.3637        0.088139588    0.0088109206  -0.12386928     15781.844    
   4932000   329.57367      2.466          0.0035520796   0.0035260207   0.003580003   -35.062434      2679.8026      2679.8026      2679.8026      1.924458e+10   0.036417117   -4920448.2     -4920448.2      981.4141      -4919466.8     -35.0563       -34.799119     -35.331882      0.087343592    0.0058973013  -0.12072149     15629.155    
   4933000   329.56104      2.4665         0.00354861     0.0035227886   0.0035765665  -35.029082      2680.1892      2680.1892      2680.1892      1.925291e+10   0.036401361   -4916383.7     -4916383.7      981.37651     -4915402.3     -35.022058     -34.767221     -35.297967      0.085753004    0.0022106384  -0.11709147     15636.148    
   4934000   329.54602      2.467          0.0035451245   0.0035196811   0.0035730155  -34.99571       2680.5758      2680.5758      2680.5758      1.9261242e+10  0.036385614   -4912321.9     -4912321.9      981.33177     -4911340.6     -34.987659     -34.736552     -35.262921      0.085241459   -0.00036179193 -0.11623356     15866.451    
   4935000   329.5463       2.4675         0.0035419224   0.0035160323   0.0035695002  -34.961608      2680.9624      2680.9624      2680.9624      1.9269577e+10  0.036369876   -4908263.1     -4908263.1      981.3326      -4907281.8     -34.956056     -34.70054      -35.228228      0.086460975   -0.0026030739  -0.11942584     15651.249    
   4936000   329.56048      2.468          0.0035391462   0.0035121002   0.0035663525  -34.929185      2681.349       2681.349       2681.349       1.9277914e+10  0.036354148   -4904207.1     -4904207.1      981.37483     -4903225.8     -34.928658     -34.661734     -35.197163      0.085751298   -0.0031428778  -0.12567586     15614.11     
   4937000   329.58486      2.4685         0.0035364192   0.0035087355   0.0035631218  -34.898517      2681.7356      2681.7356      2681.7356      1.9286253e+10  0.036338428   -4900153.9     -4900153.9      981.44745     -4899172.5     -34.901744     -34.628527     -35.165278      0.080736165   -0.002207953   -0.13137265     15742.055    
   4938000   329.62154      2.469          0.0035337913   0.0035059406   0.0035598622  -34.869953      2682.1222      2682.1222      2682.1222      1.9294595e+10  0.036322717   -4896103.2     -4896103.2      981.55667     -4895121.6     -34.875809     -34.600943     -35.133108      0.073300354   -0.00011337505 -0.13483191     15659.734    
   4939000   329.65444      2.4695         0.0035313887   0.0035036914   0.0035570457  -34.845384      2682.5087      2682.5087      2682.5087      1.9302939e+10  0.036307016   -4892054.5     -4892054.5      981.65462     -4891072.9     -34.852096     -34.578745     -35.105311      0.068873514    0.0017249239  -0.13306558     15691.569    
   4940000   329.66861      2.47           0.0035287367   0.0035013414   0.0035540063  -34.818931      2682.8953      2682.8953      2682.8953      1.9311286e+10  0.036291324   -4888007.6     -4888007.6      981.69682     -4887025.9     -34.825924     -34.555553     -35.075315      0.069317035    0.0013996935  -0.1296307      15668.798    
   4941000   329.6752       2.4705         0.0035257681   0.0034983842   0.0035510473  -34.789702      2683.2819      2683.2819      2683.2819      1.9319635e+10  0.03627564    -4883962.9     -4883962.9      981.71646     -4882981.2     -34.796626     -34.526368     -35.046112      0.073255097   -0.00015042585 -0.12846542     15617.92     
   4942000   329.68479      2.471          0.003522203    0.0034950592   0.0035484447  -34.758473      2683.6685      2683.6685      2683.6685      1.9327986e+10  0.036259966   -4879920.7     -4879920.7      981.745       -4878939       -34.761441     -34.493552     -35.020427      0.077756715   -0.0008797984  -0.12943094     15830.428    
ERROR on proc 0: Pair distance > table outer cutoff: ijtype 2 2 dist 473.9000486019004 (src/pair_table_pgn.cpp:138)
Last command: run				${steps_tensile}
