LAMMPS (23 Jun 2022 - Update 1)
OMP_NUM_THREADS environment is not set. Defaulting to 1 thread. (src/comm.cpp:98)
  using 1 OpenMP thread(s) per MPI task
###

# Read restart info
read_restart ${read_res}
read_restart ./trial9/2080/equpmf55.res
Reading restart file ...
  restart file = 23 Jun 2022, LAMMPS = 23 Jun 2022
  restoring atom style atomic from restart
  orthogonal box = (1539.3097 1539.3097 1539.3097) to (2460.6903 2460.6903 2460.6903)
  1 by 2 by 2 MPI processor grid
  restoring pair style table from restart
  2000 atoms
  read_restart CPU = 0.043 seconds

# Settings
pair_style table/pgn spline 10941
pair_coeff 1 1 N20e.txt DE_GNP 308 72.9   # 1.35 * r
pair_coeff 2 2 N100e.txt DE_GNP 473.9 111.78
WARNING: 20 of 10941 force values in table DE_GNP are inconsistent with -dE/dr.
WARNING:  Should only be flagged at inflection points (src/pair_table_pgn.cpp:478)
pair_coeff 1 2 mixed_potentiale.txt DE_GNP 391.2 92.95
WARNING: 1564 of 10941 force values in table DE_GNP are inconsistent with -dE/dr.
WARNING:  Should only be flagged at inflection points (src/pair_table_pgn.cpp:478)

# Neighbor list
neighbor 2.0 bin
neigh_modify delay 0 every 1 check no once yes

# Temperature
variable T equal ${Temp}
variable T equal 300

# Deformation
reset_timestep 0
variable tmp equal "lx"
variable L0 equal ${tmp}
variable L0 equal 921.38056013988
variable strain equal "(lx - v_L0)/v_L0"
variable stp equal "step"
variable tmpe equal "temp"
variable p1 equal "v_strain"
variable p2 equal "-pxx*1.01325/10000"
variable p3 equal "-pyy*1.01325/10000"
variable p4 equal "-pzz*1.01325/10000"
variable p5 equal "lx"
variable p6 equal "ly"
variable p7 equal "lz"
variable p8 equal "press"
variable p9 equal "epair"
variable p10 equal "etotal"

# Thermo
thermo_style custom step temp v_p1 v_p2 v_p3 v_p4 press lx ly lz vol density epair pe ke etotal pxx pyy pzz pxy pxz pyz spcpu
thermo ${ts_save}
thermo 1000

# Dump
# dump 1 all custom 2000 ./${N20}${N100}/tensile/trajectory/trajectory_${usic}_${trial}_*.tensile.custom id type x y z ix iy iz
# dump_modify 1 sort id
dump 2 all cfg 50000 ./trial${trial}/${N20}${N100}/tensile/trajectory/dumpten.tens_${usic}_${trial}_*.cfg mass type xs ys zs fx fy fz
dump 2 all cfg 50000 ./trial9/${N20}${N100}/tensile/trajectory/dumpten.tens_${usic}_${trial}_*.cfg mass type xs ys zs fx fy fz
dump 2 all cfg 50000 ./trial9/20${N100}/tensile/trajectory/dumpten.tens_${usic}_${trial}_*.cfg mass type xs ys zs fx fy fz
dump 2 all cfg 50000 ./trial9/2080/tensile/trajectory/dumpten.tens_${usic}_${trial}_*.cfg mass type xs ys zs fx fy fz
dump 2 all cfg 50000 ./trial9/2080/tensile/trajectory/dumpten.tens_1_${trial}_*.cfg mass type xs ys zs fx fy fz
dump 2 all cfg 50000 ./trial9/2080/tensile/trajectory/dumpten.tens_1_9_*.cfg mass type xs ys zs fx fy fz
dump_modify 2 element N20 N100

fix 1 all nvt temp ${T} ${T} 100
fix 1 all nvt temp 300 ${T} 100
fix 1 all nvt temp 300 300 100
fix 2 all deform 1 x erate ${strain_rate} y erate ${strain_rate} z erate ${strain_rate} units box
fix 2 all deform 1 x erate 5e-6 y erate ${strain_rate} z erate ${strain_rate} units box
fix 2 all deform 1 x erate 5e-6 y erate 5e-6 z erate ${strain_rate} units box
fix 2 all deform 1 x erate 5e-6 y erate 5e-6 z erate 5e-6 units box
fix             def1 all print ${ts_save} "${p1} ${p2} ${p3} ${p4}" file ./tensile/${trial}/tensile${N20}${N100}_${usic}_${trial}.txt screen no
fix             def1 all print 1000 "${p1} ${p2} ${p3} ${p4}" file ./tensile/${trial}/tensile${N20}${N100}_${usic}_${trial}.txt screen no
fix             def1 all print 1000 "${p1} ${p2} ${p3} ${p4}" file ./tensile/9/tensile${N20}${N100}_${usic}_${trial}.txt screen no
fix             def1 all print 1000 "${p1} ${p2} ${p3} ${p4}" file ./tensile/9/tensile20${N100}_${usic}_${trial}.txt screen no
fix             def1 all print 1000 "${p1} ${p2} ${p3} ${p4}" file ./tensile/9/tensile2080_${usic}_${trial}.txt screen no
fix             def1 all print 1000 "${p1} ${p2} ${p3} ${p4}" file ./tensile/9/tensile2080_1_${trial}.txt screen no
fix             def1 all print 1000 "${p1} ${p2} ${p3} ${p4}" file ./tensile/9/tensile2080_1_9.txt screen no

timestep       		${ts}
timestep       		0.1
run				${steps_tensile}
run				6000000
Generated 0 of 1 mixed pair_coeff terms from geometric mixing rule
Unused restart file global fix info:
  fix style: npt, fix ID: 5
Neighbor list info ...
  update every 1 steps, delay 0 steps, check no
  max neighbors/atom: 2000, page size: 100000
  master list distance cutoff = 113.78
  ghost atom cutoff = 113.78
  binsize = 56.89, bins = 17 17 17
  1 neighbor lists, perpetual/occasional/extra = 1 0 0
  (1) pair table/pgn, perpetual
      attributes: half, newton on
      pair build: half/bin/atomonly/newton
      stencil: half/bin/3d
      bin: standard
Per MPI rank memory allocation (min/avg/max) = 3.88 | 3.88 | 3.88 Mbytes
   Step          Temp           v_p1           v_p2           v_p3           v_p4          Press            Lx             Ly             Lz           Volume        Density         E_pair         PotEng         KinEng         TotEng          Pxx            Pyy            Pzz            Pxy            Pxz            Pyz           S/CPU     
         0   304.9277       3.7016248e-16  0.0079224351  -0.0026626768   0.0014562648  -22.093998      921.38056      921.38056      921.38056      7.8219878e+08  1.6219512     -92706423      -92706423       1816.9542     -92704606      -78.188356      26.278577     -14.372216     -24.086896     -35.813021     -80.817969      0            
      1000   354.69599      0.0005         0.01591065     0.0053390821   0.0094909787  -101.12908      921.84125      921.84125      921.84125      7.8337267e+08  1.6195207     -92705788      -92705788       2113.5054     -92703674      -157.02591     -52.692644     -93.668677     -23.704216     -35.912703     -79.321982      9863.6281    
      2000   422.19102      0.001          0.02349068     0.013066126    0.01711084    -176.55283      922.30194      922.30194      922.30194      7.8454773e+08  1.6170951     -92704153      -92704153       2515.684      -92701638      -231.83498     -128.95264     -168.87086     -23.04665      -36.040915     -77.536329      11024.168    
      3000   478.07915      0.0015         0.030626853    0.020569757    0.024343783   -248.50857      922.76263      922.76263      922.76263      7.8572396e+08  1.6146743     -92701486      -92701486       2848.7012     -92698638      -302.26354     -203.00772     -240.25446     -22.585579     -35.765922     -76.531536      11014.796    
      4000   512.10571      0.002          0.037600583    0.027935754    0.031470794   -319.12864      923.22332      923.22332      923.22332      7.8690137e+08  1.6122583     -92697737      -92697737       3051.4532     -92694685      -371.0889      -275.70445     -310.59258     -22.194284     -34.9518       -75.658629      11065.598    
      5000   524.55256      0.0025         0.044543159    0.035154374    0.038582041   -389.10954      923.68401      923.68401      923.68401      7.8807995e+08  1.6098472     -92692839      -92692839       3125.6195     -92689714      -439.6068      -346.94669     -380.77514     -21.281538     -33.907302     -74.701157      11037.627    
      6000   521.74194      0.003          0.051529745    0.042316422    0.045706688   -459.0932       924.1447       924.1447       924.1447       7.8925971e+08  1.6074408     -92686747      -92686747       3108.872      -92683638      -508.55904     -417.63061     -451.08994     -20.58487      -33.216888     -74.018908      11056.151    
      7000   510.6338       0.0035         0.058547928    0.049386154    0.05272959    -528.54239      924.60539      924.60539      924.60539      7.9044065e+08  1.6050393     -92679455      -92679455       3042.6826     -92676412      -577.82312     -487.40344     -520.40059     -20.539846     -32.972946     -73.244236      11055.454    
      8000   496.39812      0.004          0.065404988    0.056333164    0.059553865   -596.40437      925.06608      925.06608      925.06608      7.9162276e+08  1.6026425     -92670964      -92670964       2957.8574     -92668007      -645.49705     -555.96511     -587.75095     -20.679876     -32.952786     -72.51098       11060.427    
      9000   481.8688       0.0045         0.072008115    0.063225874    0.066243167   -662.80831      925.52677      925.52677      925.52677      7.9280605e+08  1.6002505     -92661273      -92661273       2871.2824     -92658402      -710.66484     -623.99086     -653.76923     -20.654372     -32.636376     -71.799379      10848.143    
     10000   468.13887      0.005          0.078485126    0.070040348    0.072902872   -728.44262      925.98746      925.98746      925.98746      7.9399053e+08  1.5978632     -92650395      -92650395       2789.4707     -92647606      -774.58797     -691.24449     -719.4954      -20.330631     -32.077192     -70.678097      11012.09     
     11000   455.59505      0.0055         0.08489293     0.076680395    0.079463601   -792.94984      926.44815      926.44815      926.44815      7.9517618e+08  1.5954807     -92638342      -92638342       2714.7265     -92635627      -837.82808     -756.77666     -784.24477     -20.112481     -31.382444     -69.378286      11086.401    
     12000   444.4734       0.006          0.091119948    0.083109102    0.085856926   -855.61634      926.90884      926.90884      926.90884      7.9636301e+08  1.593103      -92625133      -92625133       2648.4567     -92622484      -899.28397     -820.22306     -847.34198     -19.872885     -31.062988     -67.974064      11033.207    
     13000   435.06662      0.0065         0.097131038    0.089355728    0.092062932   -916.35726      927.36953      927.36953      927.36953      7.9755102e+08  1.5907299     -92610811      -92610811       2592.405      -92608218      -958.60881     -881.87247     -908.59049     -19.224441     -31.242746     -66.920479      11062.486    
     14000   427.34353      0.007          0.10306957     0.095491496    0.098130282   -976.03863      927.83022      927.83022      927.83022      7.9874021e+08  1.5883616     -92595413      -92595413       2546.386      -92592866      -1017.2175     -942.42779     -968.47058     -18.982367     -30.984815     -66.399139      11056.622    
     15000   420.93853      0.0075         0.10894867     0.10156094     0.10408341    -1034.9306      928.29091      928.29091      928.29091      7.9993058e+08  1.585998      -92578960      -92578960       2508.2208     -92576452      -1075.2397     -1002.3286     -1027.2234     -19.087894     -30.280383     -66.037286      11047.564    
     16000   415.74037      0.008          0.11468329     0.10750187     0.10982347    -1092.2235      928.7516       928.7516       928.7516       8.0112213e+08  1.583639      -92561468      -92561468       2477.2469     -92558991      -1131.8361     -1060.961      -1083.8734     -18.349116     -29.857426     -65.101047      11062.542    
     17000   411.65158      0.0085         0.12027826     0.11329542     0.11546733    -1148.2556      929.21229      929.21229      929.21229      8.0231487e+08  1.5812847     -92542951      -92542951       2452.8833     -92540498      -1187.0541     -1118.1389     -1139.5739     -17.380828     -29.797771     -63.793062      11056.447    
     18000   408.34749      0.009          0.12579713     0.11900314     0.1211487     -1203.8785      929.67299      929.67299      929.67299      8.0350879e+08  1.5789351     -92523424      -92523424       2433.1954     -92520991      -1241.5211     -1174.4697     -1195.6447     -17.050201     -29.346319     -62.696205      11089.363    
     19000   405.7186       0.0095         0.13121236     0.12465543     0.12673339    -1258.66        930.13368      930.13368      930.13368      8.047039e+08   1.5765902     -92502909      -92502909       2417.5308     -92500492      -1294.9653     -1230.2535     -1250.7613     -16.982995     -28.236971     -61.750872      11064.639    
     20000   403.83314      0.01           0.13652583     0.13019282     0.13207577    -1311.9316      930.59437      930.59437      930.59437      8.0590019e+08  1.5742499     -92481438      -92481438       2406.296      -92479032      -1347.4051     -1284.9033     -1303.4865     -16.5765       -27.753383     -60.664423      11069.686    
     21000   402.68647      0.0105         0.1417613      0.13558567     0.13725932    -1363.9486      931.05506      931.05506      931.05506      8.0709766e+08  1.5719142     -92459032      -92459032       2399.4634     -92456633      -1399.0753     -1338.1265     -1354.6442     -16.146234     -28.204084     -59.803451      11158.784    
     22000   401.98409      0.011          0.14682766     0.14082811     0.14243809    -1414.8988      931.51575      931.51575      931.51575      8.0829632e+08  1.5695831     -92435700      -92435700       2395.2782     -92433305      -1449.0764     -1389.8654     -1405.7547     -16.345845     -28.551228     -59.254635      11043.955    
     23000   401.73856      0.0115         0.15175929     0.1458679      0.14751279    -1464.3967      931.97644      931.97644      931.97644      8.0949617e+08  1.5672567     -92411464      -92411464       2393.8152     -92409070      -1497.7477     -1439.6042     -1455.8381     -16.739024     -28.120934     -58.538709      11060.412    
     24000   401.96733      0.012          0.1566245      0.15077276     0.15241439    -1512.6627      932.43713      932.43713      932.43713      8.106972e+08   1.5649348     -92386356      -92386356       2395.1783     -92383961      -1545.7636     -1488.0115     -1504.213      -16.386436     -27.214483     -57.700022      11078.599    
     25000   402.46228      0.0125         0.16137645     0.15565569     0.15722597    -1560.1879      932.89782      932.89782      932.89782      8.1189942e+08  1.5626175     -92360383      -92360383       2398.1275     -92357985      -1592.6617     -1536.2022     -1551.6997     -15.595655     -26.214549     -56.775012      11061.663    
     26000   403.03946      0.013          0.1659248      0.16043844     0.16193033    -1606.3609      933.35851      933.35851      933.35851      8.1310283e+08  1.5603048     -92333574      -92333574       2401.5668     -92331172      -1637.5504     -1583.4043     -1598.1281     -15.001582     -25.677513     -55.838808      11030.264    
     27000   403.80733      0.0135         0.17030102     0.16512821     0.16642022    -1650.9563      933.8192       933.8192       933.8192       8.1430742e+08  1.5579967     -92305953      -92305953       2406.1422     -92303547      -1680.7404     -1629.6887     -1642.4399     -14.361252     -25.411159     -55.323261      11021.991    
     28000   404.65268      0.014          0.17466377     0.16974696     0.1707666     -1694.8016      934.27989      934.27989      934.27989      8.1551321e+08  1.5556931     -92277533      -92277533       2411.1794     -92275121      -1723.7974     -1675.2722     -1685.3354     -14.104417     -25.451875     -54.609523      11062.977    
     29000   405.72725      0.0145         0.17897675     0.17418274     0.17511396    -1737.8845      934.74058      934.74058      934.74058      8.1672018e+08  1.553394      -92248327      -92248327       2417.5823     -92245910      -1766.3632     -1719.05       -1728.2404     -14.585113     -25.835658     -53.429432      11032.651    
     30000   406.9722       0.015          0.18312698     0.17853933     0.17949745    -1780.2904      935.20127      935.20127      935.20127      8.1792835e+08  1.5510995     -92218350      -92218350       2425.0006     -92215925      -1807.3227     -1762.0462     -1771.5021     -15.094993     -25.830841     -52.422557      11035.286    
     31000   408.23139      0.0155         0.18718949     0.18282179     0.1837444     -1821.7145      935.66196      935.66196      935.66196      8.1913771e+08  1.5488095     -92187613      -92187613       2432.5036     -92185181      -1847.4166     -1804.3107     -1813.4163     -14.85957      -25.094628     -51.451253      11071.807    
     32000   409.71449      0.016          0.19123155     0.18693156     0.187753      -1861.7193      936.12265      936.12265      936.12265      8.2034826e+08  1.546524      -92156139      -92156139       2441.3409     -92153698      -1887.3087     -1844.8711     -1852.978      -13.828969     -24.148955     -50.735222      11121.169    
     33000   411.46593      0.0165         0.19518602     0.19089899     0.1916739     -1900.679       936.58334      936.58334      936.58334      8.2156e+08     1.544243      -92123946      -92123946       2451.777      -92121495      -1926.3362     -1884.0266     -1891.6743     -12.63463      -23.808625     -50.534817      11045.069    
     34000   413.26524      0.017          0.19896629     0.19478741     0.19557889    -1938.7535      937.04403      937.04403      937.04403      8.2277293e+08  1.5419665     -92091051      -92091051       2462.4985     -92088588      -1963.6446     -1922.4023     -1930.2136     -11.931225     -23.650719     -49.837117      11066.195    
     35000   415.081        0.0175         0.20254236     0.19860529     0.199396      -1975.635       937.50472      937.50472      937.50472      8.2398705e+08  1.5396944     -92057480      -92057480       2473.3179     -92055007      -1998.9377     -1960.0818     -1967.8855     -12.089299     -22.978242     -48.802293      11047.785    
     36000   416.89144      0.018          0.20596601     0.20228912     0.20304161    -2011.0099      937.96541      937.96541      937.96541      8.2520237e+08  1.5374268     -92023254      -92023254       2484.1057     -92020770      -2032.7264     -1996.4384     -2003.8649     -12.495546     -22.576185     -48.074335      10570.597    
     37000   418.61571      0.0185         0.20936813     0.20589869     0.2066057     -2045.8015      938.4261       938.4261       938.4261       8.2641889e+08  1.5351637     -91988377      -91988377       2494.38       -91985883      -2066.3028     -2032.0621     -2039.0397     -12.409603     -22.483542     -46.981211      11045.718    
     38000   420.26322      0.019          0.21282582     0.2094419      0.21011944    -2080.392       938.88679      938.88679      938.88679      8.276366e+08   1.532905      -91952864      -91952864       2504.197      -91950360      -2100.4275     -2067.0309     -2073.7176     -12.059862     -22.132027     -45.541575      11049.969    
     39000   421.81957      0.0195         0.21619509     0.21286303     0.21346       -2113.7203      939.34748      939.34748      939.34748      8.288555e+08   1.5306507     -91916735      -91916735       2513.4707     -91914222      -2133.6797     -2100.7948     -2106.6864     -11.86548      -22.134662     -44.30072       11057.009    
     40000   423.43615      0.02           0.21935496     0.21615897     0.21661227    -2145.3284      939.80817      939.80817      939.80817      8.300756e+08   1.5284009     -91880009      -91880009       2523.1033     -91877486      -2164.8651     -2133.3232     -2137.7969     -11.631212     -22.231853     -43.500025      11051.412    
     41000   425.13497      0.0205         0.22241981     0.21936829     0.2197326     -2176.2339      940.26886      940.26886      940.26886      8.312969e+08   1.5261554     -91842698      -91842698       2533.2259     -91840165      -2195.1129     -2164.9967     -2168.5922     -10.831833     -21.660741     -42.919146      11072.304    
     42000   426.75508      0.021          0.22548138     0.22253099     0.22286686    -2207.0211      940.72955      940.72955      940.72955      8.325194e+08   1.5239144     -91804806      -91804806       2542.8796     -91802263      -2225.3282     -2196.2101     -2199.5249     -9.7310875     -20.927091     -42.310973      11113.591    
     43000   428.48571      0.0215         0.22847097     0.22561948     0.22598063    -2237.2599      941.19024      941.19024      941.19024      8.3374309e+08  1.5216777     -91766334      -91766334       2553.1918     -91763781      -2254.8331     -2226.6911     -2230.2554     -9.1482264     -20.562797     -41.342992      11028.408    
     44000   430.12453      0.022          0.23133452     0.22870416     0.2290606     -2266.9604      941.65093      941.65093      941.65093      8.3496798e+08  1.5194454     -91727307      -91727307       2562.9569     -91724744      -2283.0942     -2257.1346     -2260.6523     -9.41679       -20.626367     -40.415987      11042.707    
     45000   431.57786      0.0225         0.23402649     0.23169062     0.23196862    -2295.2076      942.11162      942.11162      942.11162      8.3619407e+08  1.5172175     -91687749      -91687749       2571.6168     -91685177      -2309.6619     -2286.6087     -2289.3523     -10.213088     -20.697659     -39.922513      11027.648    
     46000   433.31304      0.023          0.23665496     0.23444595     0.23463937    -2321.705       942.57231      942.57231      942.57231      8.3742136e+08  1.5149939     -91647688      -91647688       2581.9561     -91645106      -2335.6028     -2313.8016     -2315.7105     -10.665275     -20.287498     -39.137527      11046.015    
     47000   435.07551      0.0235         0.23934762     0.23706517     0.23728435    -2347.881       943.033        943.033        943.033        8.3864985e+08  1.5127747     -91607126      -91607126       2592.458      -91604533      -2362.1773     -2339.6513     -2341.8144     -10.323942     -19.590807     -38.156402      11045.362    
     48000   436.34324      0.024          0.24199345     0.23968976     0.23991802    -2373.8835      943.49369      943.49369      943.49369      8.3987955e+08  1.5105598     -91566046      -91566046       2600.0119     -91563445      -2388.2897     -2365.5541     -2367.8067     -9.7984698     -19.260457     -37.48012       11031.12     
     49000   437.41016      0.0245         0.24446271     0.24230402     0.24237951    -2398.7047      943.95438      943.95438      943.95438      8.4111044e+08  1.5083492     -91524470      -91524470       2606.3694     -91521864      -2412.6594     -2391.3548     -2392.0998     -9.2815608     -18.963846     -36.922892      11023.105    
     50000   438.7701       0.025          0.24674479     0.2447935      0.24468907    -2421.9997      944.41507      944.41507      944.41507      8.4234253e+08  1.5061429     -91482453      -91482453       2614.4727     -91479838      -2435.1817     -2415.924      -2414.8934     -8.4529002     -18.403816     -36.0529        10737.121    
     51000   440.37294      0.0255         0.24896511     0.24713808     0.2469573     -2444.479       944.87576      944.87576      944.87576      8.4357583e+08  1.503941      -91440016      -91440016       2624.0235     -91437392      -2457.0946     -2439.0633     -2437.2791     -7.5157591     -18.077924     -34.840181      11022.959    
     52000   441.71646      0.026          0.25118929     0.24932532     0.24921329    -2466.413       945.33645      945.33645      945.33645      8.4481033e+08  1.5017433     -91397141      -91397141       2632.0291     -91394509      -2479.0455     -2460.6496     -2459.544      -7.074417      -18.345848     -33.764299      11035.425    
     53000   442.75716      0.0265         0.25329341     0.25143031     0.25141787    -2487.5124      945.79714      945.79714      945.79714      8.4604604e+08  1.4995499     -91353835      -91353835       2638.2302     -91351196      -2499.8116     -2481.4243     -2481.3015     -7.2896449     -18.394595     -32.750572      10620.474    
     54000   443.74841      0.027          0.25523617     0.25351984     0.25357068    -2507.8598      946.25784      946.25784      946.25784      8.4728295e+08  1.4973608     -91310119      -91310119       2644.1367     -91307475      -2518.9851     -2502.0463     -2502.548      -7.6171129     -17.730945     -31.680872      10991.279    
     55000   444.85717      0.0275         0.25710607     0.25556495     0.25560506    -2527.4318      946.71853      946.71853      946.71853      8.4852106e+08  1.4951759     -91266007      -91266007       2650.7434     -91263357      -2537.4396     -2522.23       -2522.6258     -7.6267361     -17.094716     -30.52954       11042.675    
     56000   446.0555       0.028          0.25893164     0.25758148     0.25743085    -2546.0777      947.17922      947.17922      947.17922      8.4976038e+08  1.4929953     -91221523      -91221523       2657.8838     -91218865      -2555.4566     -2542.1315     -2540.645      -7.1492247     -16.828492     -29.643052      11051.682    
     57000   447.08605      0.0285         0.26068743     0.25950975     0.25916658    -2563.9074      947.63991      947.63991      947.63991      8.5100091e+08  1.4908189     -91176689      -91176689       2664.0245     -91174025      -2572.7849     -2561.1621     -2557.7753     -6.4149349     -16.413545     -29.255236      11018.984    
     58000   447.99849      0.029          0.26242677     0.26124871     0.26089432    -2581.034       948.1006       948.1006       948.1006       8.5224264e+08  1.4886468     -91131504      -91131504       2669.4614     -91128835      -2589.9508     -2578.3243     -2574.8268     -6.2014597     -16.070281     -28.455709      11019.884    
     59000   448.93992      0.0295         0.26417616     0.26293933     0.2626597     -2598.1584      948.56129      948.56129      948.56129      8.5348558e+08  1.4864789     -91085963      -91085963       2675.071      -91083288      -2607.216      -2595.0094     -2592.2497     -6.1358606     -15.915395     -26.939211      11047.908    
     60000   449.74583      0.03           0.26574323     0.26457148     0.26436039    -2614.2778      949.02198      949.02198      949.02198      8.5472973e+08  1.4843151     -91040080      -91040080       2679.8731     -91037400      -2622.6817     -2611.1175     -2609.0341     -5.5948773     -15.645548     -25.950278      11072.41     
     61000   450.48241      0.0305         0.26708116     0.26609661     0.26585768    -2628.6223      949.48267      949.48267      949.48267      8.5597508e+08  1.4821556     -90993880      -90993880       2684.2622     -90991195      -2635.8861     -2626.1693     -2623.8113     -5.0497689     -15.188391     -25.512426      11081.251    
     62000   451.28928      0.031          0.26835774     0.26755972     0.26717748    -2641.9769      949.94336      949.94336      949.94336      8.5722165e+08  1.4800003     -90947398      -90947398       2689.0701     -90944709      -2648.485      -2640.6091     -2636.8367     -4.71166       -14.22877      -24.552746      11036.561    
     63000   452.12531      0.0315         0.26971302     0.26896379     0.26850004    -2655.4054      950.40405      950.40405      950.40405      8.5846942e+08  1.4778491     -90900648      -90900648       2694.0516     -90897954      -2661.8605     -2654.4662     -2649.8894     -4.7105617     -13.012217     -22.986392      11042.444    
     64000   452.75097      0.032          0.27109585     0.2703499      0.26989943    -2669.1181      950.86474      950.86474      950.86474      8.5971841e+08  1.4757021     -90853619      -90853619       2697.7797     -90850921      -2675.508      -2668.1461     -2663.7002     -4.4024331     -12.213736     -22.018122      11138.306    
     65000   453.20149      0.0325         0.27236443     0.2717129      0.27123196    -2682.159       951.32543      951.32543      951.32543      8.6096861e+08  1.4735593     -90806297      -90806297       2700.4642     -90803596      -2688.0279     -2681.5979     -2676.8514     -3.8690829     -12.085895     -21.584633      11060.598    
     66000   453.72647      0.033          0.27347283     0.27296645     0.27237193    -2693.6794      951.78612      951.78612      951.78612      8.6222001e+08  1.4714206     -90758701      -90758701       2703.5924     -90755997      -2698.9669     -2693.9695     -2688.1019     -3.8307484     -11.993498     -21.117683      11060.072    
     67000   454.46967      0.0335         0.27442121     0.27402414     0.27333532    -2703.4482      952.24681      952.24681      952.24681      8.6347263e+08  1.469286      -90710879      -90710879       2708.0208     -90708171      -2708.3268     -2704.408      -2697.6099     -3.995323      -11.450768     -20.644879      11039.771    
     68000   455.21784      0.034          0.27527168     0.27497567     0.27427661    -2712.4729      952.7075       952.7075       952.7075       8.6472647e+08  1.4671556     -90662850      -90662850       2712.4789     -90660137      -2716.7202     -2713.7988     -2706.8997     -3.7475306     -10.762383     -20.433662      11055.384    
     69000   455.46735      0.0345         0.27620785     0.27590012     0.27524045    -2721.7647      953.16819      953.16819      953.16819      8.6598151e+08  1.4650293     -90614610      -90614610       2713.9656     -90611896      -2725.9595     -2722.9225     -2716.412      -3.0774357     -10.127462     -19.749513      11053.125    
     70000   455.31863      0.035          0.27714036     0.27678283     0.2760746     -2730.4804      953.62888      953.62888      953.62888      8.6723777e+08  1.4629071     -90566162      -90566162       2713.0795     -90563449      -2735.1627     -2731.6342     -2724.6445     -2.447291      -9.6257075     -18.217348      11051.223    
     71000   455.36277      0.0355         0.27788024     0.27756644     0.27677862    -2737.8084      954.08957      954.08957      954.08957      8.6849524e+08  1.460789      -90517526      -90517526       2713.3425     -90514812      -2742.4648     -2739.3678     -2731.5926     -1.9410251     -8.946757      -16.732634      11046.377    
     72000   455.71611      0.036          0.2784959      0.27835943     0.27748479    -2744.7656      954.55026      954.55026      954.55026      8.6975393e+08  1.4586749     -90468716      -90468716       2715.4479     -90466001      -2748.5408     -2747.194      -2738.562      -1.7652551     -8.3127807     -16.033712      11054.93     
     73000   455.87581      0.0365         0.27909763     0.27912996     0.27823899    -2751.7611      955.01095      955.01095      955.01095      8.7101384e+08  1.456565      -90419738      -90419738       2716.3995     -90417021      -2754.4795     -2754.7985     -2746.0053     -1.8331784     -7.641726      -15.818752      11068.102    
     74000   455.83723      0.037          0.27958437     0.27972519     0.27891681    -2757.5504      955.47164      955.47164      955.47164      8.7227496e+08  1.4544591     -90370598      -90370598       2716.1696     -90367881      -2759.2832     -2760.673      -2752.6949     -1.9897459     -6.7150259     -15.585774      11131.455    
     75000   455.90093      0.0375         0.27997291     0.28024729     0.27944997    -2762.3001      955.93233      955.93233      955.93233      8.7353729e+08  1.4523573     -90321310      -90321310       2716.5492     -90318593      -2763.1177     -2765.8257     -2757.9568     -1.8556605     -6.0745375     -15.383198      11057.202    
     76000   455.99021      0.038          0.28045573     0.28081898     0.27988975    -2767.2159      956.39302      956.39302      956.39302      8.7480085e+08  1.4502595     -90271885      -90271885       2717.0812     -90269168      -2767.8829     -2771.4679     -2762.2971     -0.95895782    -6.0028742     -14.897769      11047.948    
     77000   455.90324      0.0385         0.28097144     0.28130631     0.28035048    -2772.0313      956.85371      956.85371      956.85371      8.7606562e+08  1.4481658     -90222334      -90222334       2716.5629     -90219617      -2772.9725     -2776.2775     -2766.8441      0.25306539    -6.0958927     -13.765944      11052.389    
     78000   455.62838      0.039          0.28128715     0.28166535     0.28072985    -2775.4991      957.3144       957.3144       957.3144       8.7733161e+08  1.4460761     -90172663      -90172663       2714.9252     -90169948      -2776.0883     -2779.8209     -2770.5882      0.62133303    -6.0734419     -12.71194       11059.795    
     79000   455.26584      0.0395         0.2814677      0.28195861     0.28097774    -2777.8733      957.77509      957.77509      957.77509      8.7859882e+08  1.4439904     -90122886      -90122886       2712.765      -90120173      -2777.8702     -2782.7151     -2773.0347      0.12525483    -5.5162        -12.370448      11067.425    
     80000   454.66118      0.04           0.28157735     0.28226119     0.28121116    -2779.9973      958.23578      958.23578      958.23578      8.7986725e+08  1.4419087     -90073010      -90073010       2709.162      -90070301      -2778.9524     -2785.7013     -2775.3383     -0.51243652    -4.5562093     -12.322225      10852.286    
     81000   453.93552      0.0405         0.28158964     0.28255609     0.28140197    -2781.6356      958.69647      958.69647      958.69647      8.811369e+08   1.4398311     -90023048      -90023048       2704.838      -90020343      -2779.0736     -2788.6118     -2777.2215     -0.63561605    -3.6360825     -11.949137      9634.3303    
     82000   453.55924      0.041          0.28153679     0.28269422     0.28144473    -2782.0569      959.15716      959.15716      959.15716      8.8240777e+08  1.4377574     -89973028      -89973028       2702.5959     -89970326      -2778.5521     -2789.975      -2777.6436      0.04337547    -3.0740473     -11.443722      11037.155    
     83000   453.46975      0.0415         0.28155954     0.28264995     0.28140717    -2781.8625      959.61785      959.61785      959.61785      8.8367986e+08  1.4356877     -89922962      -89922962       2702.0627     -89920260      -2778.7766     -2789.5381     -2777.2729      0.93822627    -2.4100935     -10.900337      11052.196    
     84000   453.15175      0.042          0.28159063     0.28252621     0.28139746    -2781.5258      960.07854      960.07854      960.07854      8.8495318e+08  1.4336219     -89872848      -89872848       2700.1678     -89870148      -2779.0834     -2788.3169     -2777.177       1.2362519     -1.7201106     -10.17866       11058.29     
     85000   452.45439      0.0425         0.28146329     0.28239898     0.28139856    -2780.692       960.53923      960.53923      960.53923      8.8622771e+08  1.4315601     -89822692      -89822692       2696.0125     -89819996      -2777.8267     -2787.0613     -2777.1879      1.4285593     -1.3631318     -9.5411313      11109.118    
     86000   451.50499      0.043          0.28112407     0.2823023      0.28134823    -2779.0924      960.99992      960.99992      960.99992      8.8750347e+08  1.4295023     -89772513      -89772513       2690.3554     -89769823      -2774.4789     -2786.1071     -2776.6912      1.8004256     -1.4897677     -8.8513494      11093.347    
     87000   450.46274      0.0435         0.28067232     0.28212024     0.2811608     -2776.3907      961.46061      961.46061      961.46061      8.8878045e+08  1.4274484     -89722323      -89722323       2684.145      -89719638      -2770.0204     -2784.3102     -2774.8413      2.2044373     -1.5294909     -8.2331237      11063.391    
     88000   449.42127      0.044          0.28027781     0.28182003     0.28080646    -2772.9396      961.9213       961.9213       961.9213       8.9005866e+08  1.4253985     -89672128      -89672128       2677.9392     -89669450      -2766.1269     -2781.3474     -2771.3443      2.454221      -0.78512575    -7.3901371      11056.298    
     89000   448.5411       0.0445         0.27993452     0.28145154     0.28041053    -2769.2955      962.382        962.382        962.382        8.9133809e+08  1.4233525     -89621944      -89621944       2672.6946     -89619271      -2762.7389     -2777.7107     -2767.4368      2.4030663      0.059293309   -6.4190692      10951.042    
     90000   447.90833      0.045          0.27952812     0.2810117      0.28004219    -2765.2998      962.84269      962.84269      962.84269      8.9261875e+08  1.4213103     -89571780      -89571780       2668.9241     -89569111      -2758.728      -2773.3699     -2763.8015      2.1864427      0.45923823    -6.1132977      11023.411    
     91000   447.4354       0.0455         0.27899378     0.28060908     0.27964666    -2760.9163      963.30338      963.30338      963.30338      8.9390064e+08  1.4192721     -89521646      -89521646       2666.1062     -89518980      -2753.4545     -2769.3963     -2759.8979      2.2664167      0.61666799    -6.1393954      11040.353    
     92000   446.75465      0.046          0.27834124     0.28023433     0.27926623    -2756.2852      963.76407      963.76407      963.76407      8.9518375e+08  1.4172378     -89471552      -89471552       2662.0498     -89468890      -2747.0145     -2765.6978     -2756.1434      2.7150624      0.94841666    -5.8877444      11053.916    
     93000   445.68769      0.0465         0.27768186     0.2797203      0.27886494    -2751.1048      964.22476      964.22476      964.22476      8.9646809e+08  1.4152074     -89421502      -89421502       2655.6922     -89418847      -2740.5069     -2760.6247     -2752.183       3.5248031      1.3138028     -5.1433375      11039.503    
     94000   444.27723      0.047          0.27700035     0.27900627     0.27826463    -2744.539       964.68545      964.68545      964.68545      8.9775365e+08  1.4131808     -89371507      -89371507       2647.2877     -89368860      -2733.7809     -2753.5778     -2746.2584      4.1889566      1.4770084     -4.3061288      11042.285    
     95000   442.86831      0.0475         0.27624923     0.27815079     0.27747411    -2736.6531      965.14614      965.14614      965.14614      8.9904045e+08  1.4111582     -89321578      -89321578       2638.8925     -89318939      -2726.3679     -2745.1348     -2738.4566      4.0220924      1.4577309     -3.5005791      11037.417    
     96000   441.44487      0.048          0.27542651     0.27729468     0.27665015    -2728.4196      965.60683      965.60683      965.60683      9.0032847e+08  1.4091393     -89271734      -89271734       2630.4108     -89269104      -2718.2484     -2736.6857     -2730.3247      3.5323305      1.4437572     -2.7836448      11100.714    
     97000   439.99624      0.0485         0.2745285      0.27649611     0.27584263    -2720.1817      966.06752      966.06752      966.06752      9.0161772e+08  1.4071244     -89221991      -89221991       2621.7789     -89219369      -2709.3856     -2728.8045     -2722.3551      3.6328753      1.5724557     -2.4567805      11062.144    
     98000   438.72776      0.049          0.27363287     0.27576573     0.27506169    -2712.2635      966.52821      966.52821      966.52821      9.029082e+08   1.4051132     -89172353      -89172353       2614.2205     -89169739      -2700.5465     -2721.5961     -2714.6478      3.9865967      1.7526644     -2.254798       11051.154    
     99000   437.58765      0.0495         0.2727681      0.27506154     0.27432861    -2704.6904      966.9889       966.9889       966.9889       9.0419992e+08  1.4031059     -89122819      -89122819       2607.427      -89120212      -2692.0118     -2714.6464     -2707.4129      4.2697741      1.9961292     -1.6555602      11055.557    
    100000   436.17337      0.05           0.27181961     0.27419455     0.27353856    -2696.1188      967.44959      967.44959      967.44959      9.0549286e+08  1.4011024     -89073385      -89073385       2598.9998     -89070786      -2682.6509     -2706.0898     -2699.6157      4.3730137      1.9674112     -1.1040214      10655.58     
    101000   434.65862      0.0505         0.27064548     0.27309266     0.27257008    -2685.4453      967.91028      967.91028      967.91028      9.0678704e+08  1.3991028     -89024069      -89024069       2589.9739     -89021479      -2671.0632     -2695.215      -2690.0575      4.3114911      1.9664933     -0.62472014     11025.165    
    102000   433.47482      0.051          0.26930238     0.27186634     0.27146118    -2673.3445      968.37097      968.37097      968.37097      9.0808245e+08  1.3971069     -88974906      -88974906       2582.9201     -88972323      -2657.8079     -2683.1122     -2679.1136      4.2232261      2.2548841      0.17841473     11036.083    
    103000   432.38404      0.0515         0.2680308      0.27067775     0.27028151    -2661.3704      968.83166      968.83166      968.83166      9.0937909e+08  1.3951148     -88925906      -88925906       2576.4205     -88923330      -2645.2583     -2671.3817     -2667.4711      4.0382004      2.598511       1.1199855      11040.866    
    104000   431.00954      0.052          0.26698319     0.26958683     0.26913007    -2650.5472      969.29235      969.29235      969.29235      9.1067697e+08  1.3931266     -88877068      -88877068       2568.2304     -88874499      -2634.9192     -2660.6152     -2656.1072      3.9506705      2.7294133      1.9659986      11067.816    
    105000   429.47117      0.0525         0.26592061     0.26845042     0.2680313     -2639.6984      969.75304      969.75304      969.75304      9.1197608e+08  1.391142      -88828397      -88828397       2559.0638     -88825838      -2624.4324     -2649.3997     -2645.2632      3.6697186      2.589086       2.1615059      11058.548    
    106000   427.82214      0.053          0.26470374     0.26723805     0.26691774    -2628.0435      970.21373      970.21373      970.21373      9.1327643e+08  1.3891613     -88779888      -88779888       2549.2378     -88777339      -2612.4228     -2637.4345     -2634.2733      3.0061514      2.4084795      1.9941526      11123.384    
    107000   426.27815      0.0535         0.26335976     0.26595019     0.26565478    -2615.2306      970.67442      970.67442      970.67442      9.1457801e+08  1.3871843     -88731548      -88731548       2540.0377     -88729008      -2599.1588     -2624.7243     -2621.8089      2.8976849      2.4983152      2.3175347      11061.303    
    108000   425.10105      0.054          0.26194116     0.26462054     0.26430112    -2601.7364      971.13511      971.13511      971.13511      9.1588083e+08  1.3852111     -88683395      -88683395       2533.0238     -88680862      -2585.1582     -2611.6017     -2608.4493      3.0943253      2.6742258      3.0639079      11070.62     
    109000   423.93802      0.0545         0.2605231      0.26326561     0.26297352    -2588.2465      971.5958       971.5958       971.5958       9.1718488e+08  1.3832416     -88635433      -88635433       2526.0937     -88632907      -2571.163      -2598.2295     -2595.3469      2.9261429      2.6620022      3.8530839      11054.069    
    110000   422.4991       0.055          0.25914329     0.26184644     0.26165817    -2574.7114      972.05649      972.05649      972.05649      9.1849017e+08  1.3812758     -88587671      -88587671       2517.5198     -88585153      -2557.5455     -2584.2234     -2582.3654      2.5102335      2.6782837      4.6414188      11065.44     
    111000   421.00639      0.0555         0.25772107     0.26044872     0.26029136    -2560.9381      972.51718      972.51718      972.51718      9.197967e+08   1.3793138     -88540136      -88540136       2508.6252     -88537627      -2543.5092     -2570.429      -2568.876       2.3817182      2.8623257      5.1627211      11082.675    
    112000   419.61049      0.056          0.25617028     0.25906944     0.25878871    -2546.3556      972.97787      972.97787      972.97787      9.2110447e+08  1.3773555     -88492834      -88492834       2500.3076     -88490334      -2528.2041     -2556.8165     -2554.046       2.3011335      3.1719732      5.4593861      11070.198    
    113000   418.20663      0.0565         0.25458442     0.25766821     0.25727227    -2531.5401      973.43856      973.43856      973.43856      9.2241348e+08  1.3754008     -88445748      -88445748       2491.9424     -88443256      -2512.5529     -2542.9875     -2539.0799      1.9929913      3.587984       5.8591009      11053.771    
    114000   416.40875      0.057          0.253052       0.25618094     0.25583309    -2516.8715      973.89925      973.89925      973.89925      9.2372372e+08  1.3734499     -88398872      -88398872       2481.2295     -88396391      -2497.429      -2528.3093     -2524.8763      1.6142255      4.033998       6.32715        11065.788    
    115000   414.45372      0.0575         0.25157267     0.25456909     0.25434553    -2501.8087      974.35994      974.35994      974.35994      9.2503521e+08  1.3715027     -88352205      -88352205       2469.5802     -88349735      -2482.8292     -2512.4016     -2510.1952      1.3328531      4.2577437      6.541625       11070.034    
    116000   412.87574      0.058          0.25014224     0.25292772     0.25276073    -2486.4896      974.82063      974.82063      974.82063      9.2634794e+08  1.3695591     -88305778      -88305778       2460.1776     -88303318      -2468.7119     -2496.2025     -2494.5544      0.65273983     4.0635937      6.4866617      11112.608    
    117000   411.81315      0.0585         0.24862559     0.25133144     0.25110532    -2470.803       975.28132      975.28132      975.28132      9.276619e+08   1.3676192     -88259612      -88259612       2453.846      -88257159      -2453.7438     -2480.4485     -2478.2168     -0.055919082    3.855037       6.7913657      11113.438    
    118000   410.83214      0.059          0.24704381     0.24982624     0.24953844    -2455.493       975.74201      975.74201      975.74201      9.2897711e+08  1.365683      -88213697      -88213697       2448.0005     -88211249      -2438.1328     -2465.5933     -2462.7529     -0.17785694     4.2901377      7.2824602      11063.803    
    119000   409.47196      0.0595         0.24545661     0.24829997     0.24805853    -2440.382       976.2027       976.2027       976.2027       9.3029357e+08  1.3637504     -88168021      -88168021       2439.8957     -88165581      -2422.4684     -2450.5302     -2448.1473      0.18643666     5.0173427      7.9236103      11079.715    
    120000   407.84115      0.06           0.24383739     0.246652       0.24649403    -2424.4869      976.66339      976.66339      976.66339      9.3161126e+08  1.3618215     -88122593      -88122593       2430.1783     -88120163      -2406.488      -2434.266      -2432.7069      0.47789433     5.3000145      8.6161324      11071.882    
    121000   406.2946       0.0605         0.24220581     0.24491757     0.24480781    -2407.8664      977.12408      977.12408      977.12408      9.329302e+08   1.3598962     -88077422      -88077422       2420.963      -88075001      -2390.3855     -2417.1485     -2416.0653      0.068193677    5.32565        8.7339295      11058.901    
    122000   404.79925      0.061          0.24058312     0.24327809     0.24312685    -2391.6048      977.58477      977.58477      977.58477      9.3425039e+08  1.3579746     -88032502      -88032502       2412.0527     -88030090      -2374.3708     -2400.9681     -2399.4754     -1.0542329      5.163142       8.2616991      11061.304    
    123000   403.18596      0.0615         0.23900114     0.24176982     0.24147486    -2376.004       978.04546      978.04546      978.04546      9.3557182e+08  1.3560565     -87987829      -87987829       2402.4397     -87985427      -2358.7579     -2386.0826     -2383.1716     -1.9887406      5.0334755      8.7396818      11064.746    
    124000   401.69909      0.062          0.23743351     0.24025831     0.23979354    -2360.3433      978.50615      978.50615      978.50615      9.3689449e+08  1.3541421     -87943411      -87943411       2393.58       -87941017      -2343.2865     -2371.1651     -2366.5783     -2.0143961      5.3929763      10.061639      11059.792    
    125000   400.49547      0.0625         0.23583574     0.23862663     0.23803582    -2343.9368      978.96685      978.96685      978.96685      9.3821841e+08  1.3522313     -87899253      -87899253       2386.408      -87896867      -2327.5178     -2355.0617     -2349.2309     -1.7444644      6.0048728      10.589505      11058.827    
    126000   399.37502      0.063          0.23418443     0.23688657     0.23634043    -2327.2026      979.42754      979.42754      979.42754      9.3954358e+08  1.350324      -87855367      -87855367       2379.7317     -87852988      -2311.2206     -2337.8887     -2332.4987     -1.5993217      6.1171181      9.688565       11081.071    
    127000   398.11357      0.0635         0.23252148     0.23512543     0.23473467    -2310.6557      979.88823      979.88823      979.88823      9.4086999e+08  1.3484204     -87811755      -87811755       2372.2152     -87809383      -2294.8085     -2320.5076     -2316.6511     -1.845427       5.9052916      8.5197767      11109.804    
    128000   396.59226      0.064          0.23090061     0.233416       0.23308821    -2294.2835      980.34892      980.34892      980.34892      9.4219765e+08  1.3465203     -87768410      -87768410       2363.1502     -87766047      -2278.8118     -2303.6368     -2300.4018     -2.4470543      5.8070227      8.6301417      11067.008    
    129000   394.70556      0.0645         0.2292379      0.23176084     0.23132873    -2277.5803      980.80961      980.80961      980.80961      9.4352657e+08  1.3446238     -87725335      -87725335       2351.908      -87722983      -2262.4022     -2287.3016     -2283.0371     -3.1014309      6.2173054      9.8397292      11061.387    
    130000   392.68622      0.065          0.22755172     0.23012864     0.2295059     -2260.6671      981.2703       981.2703       981.2703       9.4485672e+08  1.3427308     -87682525      -87682525       2339.8756     -87680185      -2245.7609     -2271.1931     -2265.0472     -3.4117265      6.756261       10.880489      11054.579    
    131000   390.80885      0.0655         0.22588325     0.22849593     0.22775799    -2244.0568      981.73099      981.73099      981.73099      9.4618813e+08  1.3408414     -87639970      -87639970       2328.689      -87637642      -2229.2944     -2255.0795     -2247.7966     -3.4228049      6.3201194      10.947712      11075.436    
    132000   389.38679      0.066          0.22426228     0.22689787     0.22610186    -2228.0188      982.19168      982.19168      982.19168      9.4752079e+08  1.3389556     -87597677      -87597677       2320.2154     -87595357      -2213.2966     -2239.3079     -2231.4519     -3.4118509      5.094143       10.311665      11074.482    
    133000   388.39112      0.0665         0.22264801     0.22531335     0.22452482    -2212.3075      982.65237      982.65237      982.65237      9.488547e+08   1.3370733     -87555656      -87555656       2314.2826     -87553341      -2197.365      -2223.6699     -2215.8877     -3.5275408      4.5103973      10.170921      11092.655    
    134000   387.32822      0.067          0.22102957     0.22368637     0.2229432     -2196.4278      983.11306      983.11306      983.11306      9.5018986e+08  1.3351945     -87513906      -87513906       2307.9491     -87511598      -2181.3922     -2207.6129     -2200.2783     -3.6482595      4.9735672      10.380369      11066.654    
    135000   386.03505      0.0675         0.21946071     0.22201397     0.22131357    -2180.4038      983.57375      983.57375      983.57375      9.5152628e+08  1.3333192     -87472429      -87472429       2300.2436     -87470128      -2165.9088     -2191.1076     -2184.1951     -3.7615949      5.8723654      10.278182      11062.306    
    136000   384.47337      0.068          0.21801529     0.22041953     0.21978015    -2165.3589      984.03444      984.03444      984.03444      9.5286394e+08  1.3314475     -87431200      -87431200       2290.9381     -87428909      -2151.6436     -2175.3716     -2169.0614     -3.8966418      6.3051405      9.9933518      11071.838    
    137000   382.51891      0.0685         0.21660475     0.21893415     0.21831202    -2151.0023      984.49513      984.49513      984.49513      9.5420286e+08  1.3295792     -87390191      -87390191       2279.2922     -87387912      -2137.7227     -2160.7121     -2154.5721     -4.1169373      6.0154916      9.8278017      11150.31     
    138000   380.59196      0.069          0.21509167     0.21737834     0.216656      -2135.4585      984.95582      984.95582      984.95582      9.5554303e+08  1.3277144     -87349413      -87349413       2267.8102     -87347145      -2122.7897     -2145.3574     -2138.2285     -4.0242656      5.3907359      10.010872      11077.004    
    139000   379.03609      0.0695         0.21350966     0.21575094     0.21488424    -2119.0718      985.41651      985.41651      985.41651      9.5688446e+08  1.3258531     -87308898      -87308898       2258.5393     -87306639      -2107.1765     -2129.2963     -2120.7426     -3.4905978      4.9084988      10.651152      11057.965    
    140000   377.53409      0.07           0.21188987     0.21411571     0.2132321     -2102.9285      985.8772       985.8772       985.8772       9.5822714e+08  1.3239953     -87268653      -87268653       2249.5895     -87266404      -2091.1905     -2113.1577     -2104.4372     -3.0959032      4.5201224      10.858317      11071.688    
    141000   376.01066      0.0705         0.21027524     0.21252005     0.21174449    -2087.4736      986.33789      986.33789      986.33789      9.5957108e+08  1.322141      -87228671      -87228671       2240.5119     -87226430      -2075.2553     -2097.4098     -2089.7557     -2.8844367      4.3097735      10.445524      11096.819    
    142000   374.49174      0.071          0.20876775     0.21100596     0.21034353    -2072.9245      986.79858      986.79858      986.79858      9.6091627e+08  1.3202901     -87188940      -87188940       2231.4612     -87186708      -2060.3775     -2082.4669     -2075.9292     -2.6670877      4.0639304      10.1609        11074.086    
    143000   372.96003      0.0715         0.20737527     0.20958981     0.20892784    -2059.0277      987.25927      987.25927      987.25927      9.6226272e+08  1.3184427     -87149443      -87149443       2222.3343     -87147220      -2046.6348     -2068.4906     -2061.9575     -2.7328156      3.8158317      9.7767926      11084.663    
    144000   371.36867      0.072          0.20606985     0.20820024     0.20746329    -2045.3438      987.71996      987.71996      987.71996      9.6361043e+08  1.3165987     -87110162      -87110162       2212.8519     -87107950      -2033.7513     -2054.7766     -2047.5035     -2.8274229      3.7717825      9.2625164      11086.592    
    145000   369.79661      0.0725         0.20484833     0.20678757     0.20602565    -2031.9485      988.18065      988.18065      988.18065      9.6495939e+08  1.3147582     -87071095      -87071095       2203.4846     -87068891      -2021.6959     -2040.8346     -2033.3151     -2.875449       3.901807       8.9396682      11053.576    
    146000   368.38695      0.073          0.20356037     0.20532518     0.20463355    -2018.3209      988.64134      988.64134      988.64134      9.6630962e+08  1.3129211     -87032238      -87032238       2195.085      -87030043      -2008.9846     -2026.402      -2019.5761     -3.1970156      4.025632       9.0033855      11010.882    
    147000   367.04416      0.0735         0.20212873     0.20380766     0.2032662     -2004.1207      989.10203      989.10203      989.10203      9.676611e+08   1.3110874     -86993609      -86993609       2187.0838     -86991422      -1994.8555     -2011.4252     -2006.0814     -3.8033721      4.1921272      9.1867117      11112.348    
    148000   365.5689       0.074          0.20066238     0.20233565     0.20186236    -1989.836       989.56272      989.56272      989.56272      9.6901384e+08  1.3092571     -86955222      -86955222       2178.2932     -86953043      -1980.3837     -1996.8976     -1992.2266     -4.1861823      4.1489576      9.1028743      11069.441    
    149000   363.92431      0.0745         0.19928688     0.20095138     0.2004389     -1976.0742      990.02341      990.02341      990.02341      9.7036784e+08  1.3074303     -86917065      -86917065       2168.4937     -86914896      -1966.8086     -1983.2359     -1978.1782     -3.7100499      3.8525025      8.7697223      11088.066    
    150000   362.31743      0.075          0.19800821     0.1996013      0.19903567    -1962.81        990.4841       990.4841       990.4841       9.717231e+08   1.3056068     -86879129      -86879129       2158.9188     -86876970      -1954.1891     -1969.9116     -1964.3294     -2.9996667      3.4250044      8.5718205      10674.747    
    151000   360.92178      0.0755         0.19680673     0.19827858     0.19777128    -1950.3466      990.94479      990.94479      990.94479      9.7307963e+08  1.3037867     -86841394      -86841394       2150.6027     -86839244      -1942.3314     -1956.8574     -1951.8508     -2.9542562      2.8518934      8.2407413      11060.724    
    152000   359.73791      0.076          0.19569328     0.19706753     0.19661649    -1938.9006      991.40548      991.40548      991.40548      9.7443741e+08  1.30197       -86803849      -86803849       2143.5484     -86801706      -1931.3425     -1944.9054     -1940.4539     -3.2693555      2.0571444      7.2790701      11094.96     
    153000   358.9024       0.0765         0.19454684     0.19591669     0.19542054    -1927.4087      991.86617      991.86617      991.86617      9.7579646e+08  1.3001567     -86766493      -86766493       2138.5699     -86764354      -1920.0281     -1933.5474     -1928.6508     -3.3997958      1.4314974      6.407107       11074.743    
    154000   358.20136      0.077          0.19337946     0.1947813      0.19424849    -1915.9775      992.32686      992.32686      992.32686      9.7715677e+08  1.2983467     -86729321      -86729321       2134.3927     -86727186      -1908.5069     -1922.3419     -1917.0835     -3.4190413      1.553618       6.2600486      11077.357    
    155000   357.01959      0.0775         0.19227638     0.19362768     0.19313359    -1904.8858      992.78755      992.78755      992.78755      9.7851834e+08  1.2965401     -86692326      -86692326       2127.3509     -86690198      -1897.6203     -1910.9566     -1906.0803     -3.3221569      2.0927469      6.4473631      11078.675    
    156000   355.38721      0.078          0.19121032     0.19245997     0.19196359    -1893.6882      993.24824      993.24824      993.24824      9.7988118e+08  1.2947368     -86655502      -86655502       2117.6242     -86653384      -1887.0991     -1899.4322     -1894.5334     -3.4145338      2.3629616      6.2286997      11084.497    
    157000   353.93876      0.0785         0.19009415     0.19128059     0.19077613    -1882.23        993.70893      993.70893      993.70893      9.8124529e+08  1.2929369     -86618858      -86618858       2108.9934     -86616749      -1876.0834     -1887.7926     -1882.814      -3.4543453      2.2415056      5.7388498      11135.277    
    158000   352.83949      0.079          0.18896908     0.19010254     0.18961995    -1870.8498      994.16962      994.16962      994.16962      9.8261065e+08  1.2911404     -86582400      -86582400       2102.4433     -86580297      -1864.9798     -1876.1662     -1871.4034     -3.1467347      1.5411865      5.3217429      11083.596    
    159000   351.68961      0.0795         0.18788579     0.1890068      0.18855317    -1860.1719      994.63031      994.63031      994.63031      9.8397729e+08  1.2893471     -86546111      -86546111       2095.5915     -86544015      -1854.2886     -1865.3521     -1860.8751     -3.0815458      0.60299424     4.7293054      11086.018    
    160000   350.34856      0.08           0.18688024     0.18795082     0.18756544    -1850.1406      995.091        995.091        995.091        9.8534519e+08  1.2875572     -86509982      -86509982       2087.6007     -86507894      -1844.3646     -1854.9303     -1851.1269     -3.3103354      0.32437523     4.4098396      11105.617    
    161000   349.06932      0.0805         0.18593065     0.18689962     0.186627      -1840.4713      995.5517       995.5517       995.5517       9.8671436e+08  1.2857706     -86474013      -86474013       2079.9782     -86471933      -1834.9928     -1844.5559     -1841.8653     -3.3603082      0.77284775     4.5796874      11087.391    
    162000   347.95467      0.081          0.18501284     0.18588966     0.18565629    -1830.9361      996.01239      996.01239      996.01239      9.880848e+08   1.2839872     -86438201      -86438201       2073.3364     -86436128      -1825.9348     -1834.5884     -1832.2851     -3.0536874      1.2078912      4.3843064      11107.263    
    163000   347.08532      0.0815         0.18405067     0.18491344     0.18461131    -1821.1215      996.47308      996.47308      996.47308      9.894565e+08   1.2822072     -86402537      -86402537       2068.1562     -86400469      -1816.4389     -1824.9537     -1821.9719     -2.6674643      0.58008591     3.8689364      11099.469    
    164000   346.41509      0.082          0.18307775     0.18402728     0.1836115     -1811.7165      996.93377      996.93377      996.93377      9.9082947e+08  1.2804305     -86367011      -86367011       2064.1626     -86364947      -1806.8369     -1816.2081     -1812.1046     -2.8366713     -0.51175888     3.430901       11122.357    
    165000   345.66335      0.0825         0.18224049     0.1832181      0.18274351    -1803.4447      997.39446      997.39446      997.39446      9.9220372e+08  1.278657      -86331615      -86331615       2059.6832     -86329555      -1798.5738     -1808.2221     -1803.5383     -3.1610309     -0.81974211     3.317783       11123.011    
    166000   344.69674      0.083          0.18153669     0.18239325     0.18199134    -1795.9414      997.85515      997.85515      997.85515      9.9357923e+08  1.2768869     -86296341      -86296341       2053.9235     -86294288      -1791.6279     -1800.0814     -1796.1149     -2.9220396     -0.10682894     3.234825       11087.478    
    167000   343.59111      0.0835         0.18076498     0.18154067     0.18122562    -1788.0789      998.31584      998.31584      998.31584      9.9495602e+08  1.27512       -86261193      -86261193       2047.3355     -86259145      -1784.0117     -1791.6671     -1788.5578     -2.4951052      0.65401526     3.2015517      11189.18     
    168000   342.58797      0.084          0.17982398     0.18068513     0.18031707    -1779.1798      998.77653      998.77653      998.77653      9.9633407e+08  1.2733563     -86226181      -86226181       2041.3581     -86224140      -1774.7247     -1783.2236     -1779.5911     -2.5051336      0.23928381     3.1364672      11100.51     
    169000   341.71307      0.0845         0.17884375     0.17981825     0.17932473    -1769.8387      999.23722      999.23722      999.23722      9.977134e+08   1.2715959     -86191306      -86191306       2036.1449     -86189270      -1765.0506     -1774.6681     -1769.7974     -2.8183847     -1.104322       2.7317083      11103.48     
    170000   340.85595      0.085          0.17803998     0.1789491      0.17844819    -1761.4517      999.69791      999.69791      999.69791      9.99094e+08    1.2698387     -86156547      -86156547       2031.0376     -86154516      -1757.118      -1766.0903     -1761.1467     -2.7055621     -1.8210658      2.0608044      11086.311    
    171000   339.97827      0.0855         0.1774242      0.1781357      0.17780065    -1754.6198      1000.1586      1000.1586      1000.1586      1.0004759e+09  1.2680848     -86121893      -86121893       2025.8079     -86119868      -1751.0407     -1758.0626     -1754.7559     -2.2539712     -1.5309023      1.6230651      11089.331    
    172000   339.14564      0.086          0.17677761     0.17736704     0.17718825    -1747.9493      1000.6193      1000.6193      1000.6193      1.001859e+09   1.2663341     -86087347      -86087347       2020.8466     -86085326      -1744.6594     -1750.4765     -1748.7121     -2.3995786     -1.1265955      1.194768       11109.61     
    173000   338.52475      0.0865         0.17600693     0.17662826     0.17640274    -1740.3995      1001.08        1001.08        1001.08        1.0032434e+09  1.2645867     -86052921      -86052921       2017.1469     -86050904      -1737.0533     -1743.1854     -1740.9597     -2.9299249     -1.2087629      0.9226217      11081.148    
    174000   338.11374      0.087          0.17518185     0.17591639     0.17556252    -1732.5792      1001.5407      1001.5407      1001.5407      1.0046291e+09  1.2628424     -86018617      -86018617       2014.6978     -86016602      -1728.9104     -1736.1598     -1732.6674     -3.0081225     -1.111917       1.0254626      11094.914    
    175000   337.57741      0.0875         0.17439489     0.17519227     0.17483225    -1725.2057      1002.0014      1002.0014      1002.0014      1.0060161e+09  1.2611014     -85984415      -85984415       2011.502      -85982404      -1721.1438     -1729.0132     -1725.4602     -2.7031047     -0.63367937     1.1470773      11097.96     
    176000   336.90266      0.088          0.17368731     0.1744919      0.17418678    -1718.4505      1002.462       1002.462       1002.462       1.0074043e+09  1.2593635     -85950306      -85950306       2007.4814     -85948299      -1714.1605     -1722.1012     -1719.0899     -2.6482957     -0.7628218      1.2926956      11114.632    
    177000   336.23535      0.0885         0.17305159     0.17382743     0.17358686    -1712.1996      1002.9227      1002.9227      1002.9227      1.0087939e+09  1.2576288     -85916298      -85916298       2003.5051     -85914295      -1707.8864     -1715.5434     -1713.1691     -3.1140075     -1.6285758      1.2602437      11170.602    
    178000   335.58203      0.089          0.17242705     0.17326526     0.17297749    -1706.291       1003.3834      1003.3834      1003.3834      1.0101847e+09  1.2558974     -85882384      -85882384       1999.6123     -85880384      -1701.7226     -1709.9952     -1707.1551     -3.6692907     -2.2319778      0.89819857     11099.343    
    179000   334.94382      0.0895         0.17182256     0.17275585     0.17236784    -1700.621       1003.8441      1003.8441      1003.8441      1.0115767e+09  1.2541691     -85848551      -85848551       1995.8094     -85846555      -1695.7568     -1704.9677     -1701.1383     -3.4332853     -1.8429959      0.27892211     11094.167    
    180000   334.35012      0.09           0.1712725      0.17212705     0.17176699    -1694.7661      1004.3048      1004.3048      1004.3048      1.0129701e+09  1.2524439     -85814794      -85814794       1992.2718     -85812802      -1690.3281     -1698.7619     -1695.2084     -2.5249719     -0.96564938    -0.11246698     11099.774    
    181000   333.84564      0.0905         0.17070914     0.17138562     0.17111018    -1688.313       1004.7655      1004.7655      1004.7655      1.0143647e+09  1.250722      -85781115      -85781115       1989.2657     -85779126      -1684.7682     -1691.4446     -1688.7261     -2.0911067     -0.55391264     0.45269409     11088.697    
    182000   333.35661      0.091          0.17009225     0.17067406     0.17044372    -1681.7502      1005.2262      1005.2262      1005.2262      1.0157607e+09  1.2490032     -85747527      -85747527       1986.3518     -85745541      -1678.68       -1684.422      -1682.1487     -2.3003145     -0.81547285     1.2535025      11099.651    
    183000   332.73344      0.0915         0.16945308     0.17006819     0.1698573     -1675.7252      1005.6869      1005.6869      1005.6869      1.0171578e+09  1.2472875     -85714035      -85714035       1982.6386     -85712053      -1672.3718     -1678.4425     -1676.3612     -2.7167905     -1.5966678      1.632897       11106.175    
    184000   332.18972      0.092          0.16882425     0.16954388     0.16928023    -1670.0333      1006.1476      1006.1476      1006.1476      1.0185563e+09  1.245575      -85680637      -85680637       1979.3987     -85678658      -1666.1658     -1673.268      -1670.666      -3.0359631     -2.0816177      1.517348       11112.634    
    185000   331.89386      0.0925         0.16823869     0.16902962     0.16871364    -1664.5512      1006.6083      1006.6083      1006.6083      1.0199561e+09  1.2438656     -85647330      -85647330       1977.6358     -85645353      -1660.3868     -1668.1926     -1665.0742     -3.2415887     -2.021176       1.0072412      11118.994    
    186000   331.70035      0.093          0.16768869     0.16848396     0.1681612     -1659.1294      1007.069       1007.069       1007.069       1.0213571e+09  1.2421593     -85614096      -85614096       1976.4828     -85612119      -1654.9587     -1662.8074     -1659.622      -3.386402      -1.9016823      0.49197805     11132.684    
    187000   331.4769       0.0935         0.16719691     0.16791745     0.16764695    -1653.9561      1007.5296      1007.5296      1007.5296      1.0227594e+09  1.2404562     -85580921      -85580921       1975.1513     -85578946      -1650.1052     -1657.2164     -1654.5467     -3.3057943     -1.4926154     -0.11107808     11154.388    
    188000   331.22319      0.094          0.16674791     0.16736782     0.16717488    -1649.1179      1007.9903      1007.9903      1007.9903      1.024163e+09   1.2387561     -85547809      -85547809       1973.6395     -85545835      -1645.674      -1651.792      -1649.8878     -2.978037      -0.99934734    -0.46243364     11131.375    
    189000   330.85342      0.0945         0.1662799      0.16683183     0.16671633    -1644.3065      1008.451       1008.451       1008.451       1.0255679e+09  1.2370592     -85514767      -85514767       1971.4362     -85512795      -1641.0551     -1646.5021     -1645.3623     -2.9785364     -0.92881502    -0.068229731    11077.537    
    190000   330.28776      0.095          0.16574116     0.16634008     0.16619715    -1639.2085      1008.9117      1008.9117      1008.9117      1.0269741e+09  1.2353654     -85481797      -85481797       1968.0656     -85479828      -1635.7381     -1641.6489     -1640.2383     -3.2299507     -1.0295189      0.53859677     11105.562    
    191000   329.65929      0.0955         0.16515613     0.16585318     0.16557401    -1633.6321      1009.3724      1009.3724      1009.3724      1.0283816e+09  1.2336747     -85448906      -85448906       1964.3208     -85446942      -1629.9642     -1636.8436     -1634.0884     -3.037273      -0.70760469     0.74157993     11107.678    
    192000   329.17303      0.096          0.16458917     0.16530343     0.16491494    -1627.7902      1009.8331      1009.8331      1009.8331      1.0297903e+09  1.231987      -85416099      -85416099       1961.4234     -85414138      -1624.3688     -1631.418      -1627.5839     -2.4100455     -0.60405361     0.59962575     11069.22     
    193000   328.89566      0.0965         0.16407748     0.16473384     0.16432728    -1622.2999      1010.2938      1010.2938      1010.2938      1.0312003e+09  1.2303024     -85383363      -85383363       1959.7706     -85381404      -1619.3189     -1625.7966     -1621.7842     -2.3583168     -1.1893879      0.31520699     11099.236    
    194000   328.72165      0.097          0.16363745     0.16424615     0.16389624    -1617.8299      1010.7545      1010.7545      1010.7545      1.0326116e+09  1.2286209     -85350685      -85350685       1958.7337     -85348727      -1614.9761     -1620.9835     -1617.5302     -3.0146731     -1.999526      -0.11724538     11094.591    
    195000   328.50066      0.0975         0.16319014     0.1638341      0.1636086     -1614.0565      1011.2152      1011.2152      1011.2152      1.0340242e+09  1.2269425     -85318057      -85318057       1957.4169     -85316100      -1610.5614     -1616.9169     -1614.6913     -3.6842001     -2.0862161     -0.18306054     11109.337    
    196000   328.43138      0.098          0.16268228     0.16339575     0.16323695    -1609.7211      1011.6759      1011.6759      1011.6759      1.0354381e+09  1.2252671     -85285493      -85285493       1957.0041     -85283536      -1605.5493     -1612.5907     -1611.0234     -3.914167      -1.5096762     -0.072995969    11164.845    
    197000   328.5102       0.0985         0.16213861     0.16291522     0.16275054    -1604.7516      1012.1365      1012.1365      1012.1365      1.0368533e+09  1.2235947     -85253006      -85253006       1957.4738     -85251049      -1600.1837     -1607.8482     -1606.223      -3.8388478     -1.0526527      0.089354695    11115.084    
    198000   328.33579      0.099          0.16162125     0.16243305     0.1622481     -1599.8105      1012.5972      1012.5972      1012.5972      1.0382698e+09  1.2219255     -85220587      -85220587       1956.4345     -85218630      -1595.0777     -1603.0896     -1601.2643     -3.6083563     -1.007977       0.61586714     11102.11     
    199000   327.85516      0.0995         0.16121018     0.1619656      0.16172149    -1595.188       1013.0579      1013.0579      1013.0579      1.0396875e+09  1.2202592     -85188224      -85188224       1953.5706     -85186270      -1591.0208     -1598.4762     -1596.067      -3.2377624     -1.3340955      1.2058185      11117.408    
    200000   327.49786      0.1            0.16088533     0.16151762     0.16119725    -1590.921       1013.5186      1013.5186      1013.5186      1.0411066e+09  1.218596      -85155915      -85155915       1951.4416     -85153963      -1587.8148     -1594.055      -1590.8931     -2.8239351     -1.1521934      1.0369381      10769.669    
    201000   327.31499      0.1005         0.16050367     0.16102092     0.16071386    -1586.4412      1013.9793      1013.9793      1013.9793      1.0425269e+09  1.2169357     -85123661      -85123661       1950.3519     -85121711      -1584.0481     -1589.1529     -1586.1224     -2.6418615     -0.59847511     0.13576567     11104.674    
    202000   327.1599       0.101          0.16001913     0.16051329     0.16027742    -1581.7414      1014.44        1014.44        1014.44        1.0439485e+09  1.2152785     -85091470      -85091470       1949.4278     -85089521      -1579.266      -1584.143      -1581.8152     -2.8274752     -0.14498881    -0.36798692     11102.771    
    203000   326.93088      0.1015         0.15949854     0.16005137     0.15983283    -1577.0466      1014.9007      1014.9007      1014.9007      1.0453715e+09  1.2136244     -85059358      -85059358       1948.0632     -85057410      -1574.1282     -1579.5842     -1577.4274     -3.6010209     -0.21870432    -0.12061801     11070.713    
    204000   326.72281      0.102          0.15903369     0.15961349     0.15936884    -1572.5504      1015.3614      1015.3614      1015.3614      1.0467957e+09  1.2119732     -85027314      -85027314       1946.8234     -85025367      -1569.5404     -1575.2627     -1572.8481     -4.1416319     -0.85621406    -0.030021092    11063.634    
    205000   326.62175      0.1025         0.15861442     0.1591871      0.15890023    -1568.2268      1015.8221      1015.8221      1015.8221      1.0482212e+09  1.210325      -84995323      -84995323       1946.2212     -84993377      -1565.4027     -1571.0545     -1568.2234     -3.7442642     -1.1462489     -0.1740303      11076.713    
    206000   326.40377      0.103          0.15820249     0.15881136     0.15853622    -1564.4381      1016.2828      1016.2828      1016.2828      1.049648e+09   1.2086798     -84963375      -84963375       1944.9223     -84961430      -1561.3372     -1567.3463     -1564.6308     -3.1452649     -1.1773782      0.071696091    11062.377    
    207000   326.06663      0.1035         0.15781206     0.15840298     0.1582026     -1560.7127      1016.7434      1016.7434      1016.7434      1.0510761e+09  1.2070375     -84931472      -84931472       1942.9134     -84929529      -1557.4839     -1563.3159     -1561.3383     -3.1759522     -1.4312115      0.55032139     11130.871    
    208000   325.93431      0.104          0.15740001     0.1579532      0.15778596    -1556.5069      1017.2041      1017.2041      1017.2041      1.0525055e+09  1.2053983     -84899622      -84899622       1942.125      -84897680      -1553.4173     -1558.8769     -1557.2264     -3.376169      -1.8431157      0.72407544     11052.299    
    209000   326.0971       0.1045         0.15692531     0.157514       0.15733948    -1552.0316      1017.6648      1017.6648      1017.6648      1.0539361e+09  1.203762      -84867837      -84867837       1943.095      -84865894      -1548.7324     -1554.5423     -1552.8199     -2.9823658     -1.5272362      0.74481757     11088.1      
    210000   326.21386      0.105          0.15640547     0.1570847      0.15691873    -1547.525       1018.1255      1018.1255      1018.1255      1.0553681e+09  1.2021287     -84836124      -84836124       1943.7907     -84834180      -1543.602      -1550.3055     -1548.6675     -2.7125696     -0.8061228      0.71319321     11081.69     
    211000   325.95613      0.1055         0.15594972     0.1567001      0.1564921     -1543.3569      1018.5862      1018.5862      1018.5862      1.0568014e+09  1.2004983     -84804462      -84804462       1942.255      -84802520      -1539.1041     -1546.5097     -1544.457      -3.0133001     -0.47893108     0.35440396     11099.247    
    212000   325.52921      0.106          0.15558822     0.15635219     0.15602607    -1539.49        1019.0469      1019.0469      1019.0469      1.058236e+09   1.1988709     -84772847      -84772847       1939.7112     -84770908      -1535.5363     -1543.0762     -1539.8576     -3.3350899     -0.45645627    -0.15074076     11077.052    
    213000   325.32468      0.1065         0.15531519     0.15595248     0.15558912    -1535.8394      1019.5076      1019.5076      1019.5076      1.0596718e+09  1.1972464     -84741278      -84741278       1938.4924     -84739339      -1532.8418     -1539.1313     -1535.5452     -3.3242849     -0.76345937    -0.13466916     11076.461    
    214000   325.29954      0.107          0.15504796     0.15548682     0.15518691    -1532.1052      1019.9683      1019.9683      1019.9683      1.061109e+09   1.1956248     -84709758      -84709758       1938.3426     -84707820      -1530.2044     -1534.5356     -1531.5757     -3.1400651     -1.3251376      0.35369818     11067.885    
    215000   325.24063      0.1075         0.15464416     0.15505304     0.15478193    -1528.0175      1020.429       1020.429       1020.429       1.0625475e+09  1.1940062     -84678297      -84678297       1937.9916     -84676359      -1526.2192     -1530.2545     -1527.5789     -3.274837      -1.5878504      0.49691337     11070.501    
    216000   325.16072      0.108          0.15410046     0.15467649     0.15438086    -1523.6707      1020.8897      1020.8897      1020.8897      1.0639872e+09  1.1923905     -84646892      -84646892       1937.5154     -84644954      -1520.8533     -1526.5382     -1523.6206     -3.4333499     -1.2929235     -0.038919952    11103.54     
    217000   325.21932      0.1085         0.15359378     0.15429391     0.15401681    -1519.5476      1021.3504      1021.3504      1021.3504      1.0654283e+09  1.1907777     -84615540      -84615540       1937.8646     -84613602      -1515.8527     -1522.7625     -1520.0278     -3.4309488     -0.90361097    -0.40394415     11158.629    
[...]
   3041000   322.48642      1.5205         0.013931824    0.013953545    0.013824829   -137.21588      2322.3397      2322.3397      2322.3397      1.2524986e+10  0.10129259    -27474181      -27474181       1921.5802     -27472260      -137.49641     -137.71078     -136.44045     -0.32176689     0.076717174    0.23260156     10943.417    
   3042000   322.51629      1.521          0.013920741    0.013943563    0.013816167   -137.11809      2322.8004      2322.8004      2322.8004      1.2532441e+10  0.10123233    -27459555      -27459555       1921.7583     -27457633      -137.38704     -137.61227     -136.35497     -0.33117311     0.071750596    0.24509956     10935.602    
   3043000   322.56175      1.5215         0.013908506    0.013931209    0.013806624   -137.0058       2323.2611      2323.2611      2323.2611      1.2539899e+10  0.10117212    -27444934      -27444934       1922.0291     -27443012      -137.26628     -137.49034     -136.26078     -0.33467991     0.074852109    0.2676944      10934.665    
   3044000   322.59291      1.522          0.013897007    0.013920076    0.013798121   -136.90338      2323.7218      2323.7218      2323.7218      1.2547361e+10  0.10111196    -27430320      -27430320       1922.2148     -27428398      -137.15279     -137.38046     -136.17687     -0.33614239     0.087288083    0.28052446     10918.026    
   3045000   322.58786      1.5225         0.013887677    0.013910212    0.013790164   -136.81406      2324.1825      2324.1825      2324.1825      1.2554825e+10  0.10105185    -27415710      -27415710       1922.1847     -27413788      -137.06071     -137.28312     -136.09834     -0.33400226     0.10252587     0.28469162     10911.736    
   3046000   322.54822      1.523          0.013878827    0.013901441    0.013780377   -136.72389      2324.6432      2324.6432      2324.6432      1.2562292e+10  0.10099178    -27401103      -27401103       1921.9485     -27399181      -136.97338     -137.19656     -136.00175     -0.32807074     0.11616844     0.28701695     10879.513    
   3047000   322.50186      1.5235         0.013868296    0.013892888    0.013768501   -136.62204      2325.1038      2325.1038      2325.1038      1.2569762e+10  0.10093176    -27386501      -27386501       1921.6723     -27384579      -136.86944     -137.11214     -135.88454     -0.32527324     0.12091592     0.29114368     10891.426    
   3048000   322.46947      1.524          0.013856778    0.013884539    0.013756354   -136.51672      2325.5645      2325.5645      2325.5645      1.2577235e+10  0.10087179    -27371904      -27371904       1921.4793     -27369982      -136.75576     -137.02975     -135.76466     -0.32677349     0.11854857     0.29768582     10881.627    
   3049000   322.45887      1.5245         0.013846335    0.013875426    0.013744497   -136.41338      2326.0252      2326.0252      2326.0252      1.2584711e+10  0.10081187    -27357313      -27357313       1921.4161     -27355391      -136.6527      -136.93981     -135.64764     -0.33001345     0.11143236     0.30868861     10877.448    
   3050000   322.4767       1.525          0.01383749     0.013864949    0.013734609   -136.31729      2326.4859      2326.4859      2326.4859      1.259219e+10   0.10075199    -27342727      -27342727       1921.5223     -27340805      -136.56541     -136.83641     -135.55005     -0.33291918     0.093192402    0.32251529     10522.038    
   3051000   322.50761      1.5255         0.013829698    0.013854754    0.013727629   -136.23515      2326.9466      2326.9466      2326.9466      1.2599672e+10  0.10069216    -27328145      -27328145       1921.7065     -27326223      -136.48851     -136.73579     -135.48116     -0.33447433     0.071318774    0.33307695     10945.81     
   3052000   322.52942      1.526          0.013822407    0.013846348    0.013722414   -136.16636      2327.4073      2327.4073      2327.4073      1.2607157e+10  0.10063238    -27313565      -27313565       1921.8365     -27311643      -136.41655     -136.65283     -135.42969     -0.33558465     0.064917728    0.33499992     10928.522    
   3053000   322.54363      1.5265         0.013814356    0.013838274    0.013716088   -136.0925       2327.868       2327.868       2327.868       1.2614645e+10  0.10057265    -27298987      -27298987       1921.9211     -27297065      -136.3371      -136.57314     -135.36727     -0.33204312     0.075529627    0.323868       10899.968    
   3054000   322.55305      1.527          0.013804787    0.013829399    0.01370758    -136.00383      2328.3287      2328.3287      2328.3287      1.2622136e+10  0.10051296    -27284411      -27284411       1921.9773     -27282489      -136.24265     -136.48555     -135.2833      -0.31669307     0.08973612     0.30592923     10900.845    
   3055000   322.55443      1.5275         0.013794043    0.013820383    0.01369764    -135.90613      2328.7894      2328.7894      2328.7894      1.262963e+10   0.10045332    -27269841      -27269841       1921.9855     -27267919      -136.13662     -136.39657     -135.1852      -0.29651291     0.099598225    0.29572062     10894.273    
   3056000   322.56093      1.528          0.013782161    0.013811435    0.013687672   -135.80481      2329.2501      2329.2501      2329.2501      1.2637127e+10  0.10039373    -27255275      -27255275       1922.0242     -27253353      -136.01935     -136.30826     -135.08682     -0.282138       0.10302843     0.29689575     10873.238    
   3057000   322.59114      1.5285         0.013769613    0.013801676    0.013677883   -135.69922      2329.7107      2329.7107      2329.7107      1.2644627e+10  0.10033418    -27240715      -27240715       1922.2043     -27238793      -135.89551     -136.21195     -134.99021     -0.27970141     0.10321267     0.30457435     10867.907    
   3058000   322.63619      1.529          0.013759262    0.013791491    0.013667638   -135.59796      2330.1714      2330.1714      2330.1714      1.2652129e+10  0.10027468    -27226161      -27226161       1922.4727     -27224239      -135.79336     -136.11143     -134.8891      -0.28039059     0.10175994     0.31813378     10826.617    
   3059000   322.65678      1.5295         0.013751984    0.013781963    0.013657028   -135.50777      2330.6321      2330.6321      2330.6321      1.2659635e+10  0.10021523    -27211612      -27211612       1922.5954     -27209689      -135.72153     -136.0174      -134.78438     -0.27624851     0.090591463    0.33099874     10835.163    
   3060000   322.63833      1.53           0.013744666    0.013771681    0.013646881   -135.41649      2331.0928      2331.0928      2331.0928      1.2667144e+10  0.10015583    -27197066      -27197066       1922.4854     -27195144      -135.64931     -135.91593     -134.68425     -0.27304575     0.069796232    0.3266984      10828.781    
   3061000   322.60039      1.5305         0.013735834    0.013758908    0.01363738    -135.31416      2331.5535      2331.5535      2331.5535      1.2674655e+10  0.10009647    -27182525      -27182525       1922.2594     -27180602      -135.56214     -135.78986     -134.59047     -0.28289666     0.053838063    0.30770299     10819.905    
   3062000   322.5687       1.531          0.01372506     0.013744336    0.013627417   -135.198        2332.0142      2332.0142      2332.0142      1.268217e+10   0.10003716    -27167989      -27167989       1922.0705     -27166067      -135.45581     -135.64605     -134.49214     -0.30521125     0.055187478    0.28605202     10837.482    
   3063000   322.55539      1.5315         0.013713619    0.013731789    0.013616553   -135.08335      2332.4749      2332.4749      2332.4749      1.2689688e+10  0.099977896   -27153461      -27153461       1921.9912     -27151539      -135.3429      -135.52222     -134.38493     -0.32558307     0.06553046     0.27168943     10830.939    
   3064000   322.54909      1.532          0.013703549    0.013722829    0.01360704    -134.98945      2332.9356      2332.9356      2332.9356      1.2697208e+10  0.099918679   -27138939      -27138939       1921.9537     -27137017      -135.24352     -135.43379     -134.29104     -0.3331109      0.071623335    0.27513008     10898.578    
   3065000   322.54251      1.5325         0.013695073    0.01371578     0.013599999   -134.91521      2333.3963      2333.3963      2333.3963      1.2704732e+10  0.099859509   -27124420      -27124420       1921.9145     -27122498      -135.15986     -135.36422     -134.22155     -0.33407377     0.073800566    0.29123611     10838.611    
   3066000   322.5392       1.533          0.013687394    0.013709047    0.013593956   -134.84792      2333.857       2333.857       2333.857       1.2712258e+10  0.099800386   -27109903      -27109903       1921.8947     -27107981      -135.08408     -135.29777     -134.16192     -0.33147246     0.075819138    0.29994248     10829.368    
   3067000   322.53693      1.5335         0.013680014    0.013702298    0.013587406   -134.77989      2334.3176      2334.3176      2334.3176      1.2719788e+10  0.099741309   -27095387      -27095387       1921.8812     -27093465      -135.01124     -135.23117     -134.09727     -0.32246008     0.074669786    0.29121756     10846.056    
   3068000   322.53836      1.534          0.013672422    0.013694157    0.013577896   -134.69685      2334.7783      2334.7783      2334.7783      1.272732e+10   0.099682279   -27080873      -27080873       1921.8898     -27078951      -134.93632     -135.15082     -134.00341     -0.30764175     0.08095502     0.28007048     10885.492    
   3069000   322.55244      1.5345         0.013663359    0.013684723    0.013566574   -134.59875      2335.239       2335.239       2335.239       1.2734856e+10  0.099623295   -27066363      -27066363       1921.9736     -27064441      -134.84687     -135.05771     -133.89167     -0.29762331     0.097615311    0.2748044      10884.913    
   3070000   322.57627      1.535          0.013653152    0.013674183    0.013556178   -134.4963       2335.6997      2335.6997      2335.6997      1.2742394e+10  0.099564358   -27051859      -27051859       1922.1156     -27049937      -134.74613     -134.95369     -133.78907     -0.30855637     0.11230505     0.27688826     10903.408    
   3071000   322.59913      1.5355         0.013642589    0.013663806    0.013546785   -134.39651      2336.1604      2336.1604      2336.1604      1.2749935e+10  0.099505467   -27037361      -27037361       1922.2518     -27035439      -134.64189     -134.85128     -133.69637     -0.32935874     0.1133664      0.28296522     10902.243    
   3072000   322.61072      1.536          0.01363206     0.013654161    0.013537264   -134.29882      2336.6211      2336.6211      2336.6211      1.275748e+10   0.099446623   -27022867      -27022867       1922.3209     -27020945      -134.53797     -134.75609     -133.6024      -0.33421716     0.098560127    0.28949568     10881.932    
   3073000   322.62413      1.5365         0.013621928    0.013645236    0.013527855   -134.20518      2337.0818      2337.0818      2337.0818      1.2765027e+10  0.099387825   -27008379      -27008379       1922.4008     -27006457      -134.43798     -134.66801     -133.50955     -0.31871594     0.081197806    0.29127668     10890.698    
   3074000   322.64919      1.537          0.01361269     0.013637975    0.013519774   -134.12432      2337.5425      2337.5425      2337.5425      1.2772577e+10  0.099329074   -26993895      -26993895       1922.5501     -26991972      -134.34681     -134.59635     -133.4298      -0.30058946     0.077685823    0.29239055     10884.352    
   3075000   322.68166      1.5375         0.013604304    0.013631744    0.013512013   -134.0507       2338.0032      2338.0032      2338.0032      1.278013e+10   0.099270369   -26979413      -26979413       1922.7436     -26977490      -134.26404     -134.53485     -133.3532      -0.29517979     0.084817509    0.29992619     10883.872    
   3076000   322.71622      1.538          0.013596156    0.013624825    0.013503122   -133.97188      2338.4639      2338.4639      2338.4639      1.2787687e+10  0.09921171    -26964934      -26964934       1922.9496     -26963011      -134.18363     -134.46657     -133.26545     -0.30296429     0.089056094    0.30964682     10958.671    
   3077000   322.74404      1.5385         0.013587797    0.013615832    0.013492718   -133.88057      2338.9246      2338.9246      2338.9246      1.2795246e+10  0.099153097   -26950458      -26950458       1923.1153     -26948535      -134.10113     -134.37781     -133.16278     -0.31786624     0.089781381    0.31607156     10862.992    
   3078000   322.75492      1.539          0.013579194    0.013605139    0.01348172    -133.78091      2339.3852      2339.3852      2339.3852      1.2802808e+10  0.099094531   -26935987      -26935987       1923.1801     -26934064      -134.01622     -134.27228     -133.05423     -0.3335763      0.096323029    0.3112937      10885.906    
   3079000   322.73642      1.5395         0.013569606    0.013595134    0.013470927   -133.68095      2339.8459      2339.8459      2339.8459      1.2810373e+10  0.09903601    -26921522      -26921522       1923.0699     -26919599      -133.9216      -134.17354     -132.94771     -0.34477213     0.10480776     0.29897972     10861.799    
   3080000   322.68156      1.54           0.013557972    0.013584848    0.013460131   -133.57332      2340.3066      2340.3066      2340.3066      1.2817941e+10  0.098977536   -26907061      -26907061       1922.743      -26905139      -133.80678     -134.07203     -132.84116     -0.34504836     0.11068722     0.2916842      10886.463    
   3081000   322.6133       1.5405         0.013545413    0.013573049    0.01344862    -133.45533      2340.7673      2340.7673      2340.7673      1.2825513e+10  0.098919108   -26892607      -26892607       1922.3363     -26890685      -133.68284     -133.95558     -132.72756     -0.33681972     0.11139487     0.29011012     10908.617    
   3082000   322.55518      1.541          0.013533334    0.013561722    0.013436864   -133.33965      2341.228       2341.228       2341.228       1.2833087e+10  0.098860726   -26878160      -26878160       1921.9899     -26876238      -133.56363     -133.84379     -132.61153     -0.32778297     0.10425985     0.28885408     10920.239    
   3083000   322.51647      1.5415         0.013522447    0.013552082    0.013424799   -133.23243      2341.6887      2341.6887      2341.6887      1.2840664e+10  0.098802389   -26863720      -26863720       1921.7593     -26861798      -133.45618     -133.74865     -132.49247     -0.32121394     0.09166312     0.2892514      10916.401    
   3084000   322.49936      1.542          0.013513659    0.013543376    0.013413637   -133.13816      2342.1494      2342.1494      2342.1494      1.2848244e+10  0.098744099   -26849285      -26849285       1921.6573     -26847363      -133.36945     -133.66273     -132.3823      -0.3143463      0.083794206    0.29544083     10920.762    
   3085000   322.50999      1.5425         0.013506256    0.013534894    0.013404405   -133.05553      2342.6101      2342.6101      2342.6101      1.2855827e+10  0.098685854   -26834854      -26834854       1921.7207     -26832932      -133.29638     -133.57902     -132.29119     -0.30949697     0.084896278    0.3023895      10914.925    
   3086000   322.55162      1.543          0.013499585    0.013526582    0.013397249   -132.9827       2343.0708      2343.0708      2343.0708      1.2863413e+10  0.098627655   -26820426      -26820426       1921.9687     -26818504      -133.23055     -133.49698     -132.22057     -0.31191723     0.085883434    0.30258674     10928.902    
   3087000   322.60224      1.5435         0.013492118    0.013518526    0.013391646   -132.9132       2343.5315      2343.5315      2343.5315      1.2871002e+10  0.098569502   -26806000      -26806000       1922.2704     -26804078      -133.15685     -133.41748     -132.16527     -0.31841708     0.083021843    0.28844841     10967.552    
   3088000   322.64343      1.544          0.013482705    0.013511332    0.013386922   -132.84303      2343.9921      2343.9921      2343.9921      1.2878594e+10  0.098511395   -26791576      -26791576       1922.5158     -26789654      -133.06395     -133.34648     -132.11865     -0.31577907     0.082760055    0.26939609     10971.034    
   3089000   322.67941      1.5445         0.01347215     0.013502944    0.013380624   -132.75999      2344.4528      2344.4528      2344.4528      1.2886189e+10  0.098453333   -26777155      -26777155       1922.7302     -26775232      -132.95978     -133.26369     -132.0565      -0.29761046     0.089198139    0.26373068     10932.213    
   3090000   322.70957      1.545          0.013461987    0.013492115    0.013372551   -132.66437      2344.9135      2344.9135      2344.9135      1.2893787e+10  0.098395317   -26762738      -26762738       1922.9099     -26760815      -132.85948     -133.15682     -131.97682     -0.27786202     0.096491265    0.2757377      10933.945    
   3091000   322.70916      1.5455         0.013452323    0.013481572    0.013363288   -132.56743      2345.3742      2345.3742      2345.3742      1.2901388e+10  0.098337346   -26748327      -26748327       1922.9075     -26746404      -132.76411     -133.05277     -131.8854      -0.26855984     0.092268154    0.29163282     10952.712    
   3092000   322.67178      1.546          0.013442856    0.013472618    0.01335262    -132.47173      2345.8349      2345.8349      2345.8349      1.2908992e+10  0.098279421   -26733920      -26733920       1922.6847     -26731997      -132.67067     -132.96441     -131.78011     -0.27471728     0.074655622    0.30482394     10923.285    
   3093000   322.62074      1.5465         0.013434131    0.013463641    0.013341129   -132.37569      2346.2956      2346.2956      2346.2956      1.2916599e+10  0.098221542   -26719517      -26719517       1922.3806     -26717595      -132.58457     -132.8758      -131.66671     -0.28813001     0.062429775    0.31175223     10930.333    
   3094000   322.59028      1.547          0.013425584    0.013453709    0.013329573   -132.27688      2346.7563      2346.7563      2346.7563      1.2924209e+10  0.098163708   -26705120      -26705120       1922.1991     -26703198      -132.50021     -132.77778     -131.55266     -0.29899679     0.06993396     0.30840687     10934.908    
   3095000   322.59053      1.5475         0.013416435    0.013444614    0.013319379   -132.18333      2347.217       2347.217       2347.217       1.2931822e+10  0.098105919   -26690727      -26690727       1922.2006     -26688805      -132.40992     -132.68802     -131.45205     -0.30996361     0.088244363    0.30243569     10906.909    
   3096000   322.60687      1.548          0.013406496    0.013436202    0.013310521   -132.09382      2347.6777      2347.6777      2347.6777      1.2939438e+10  0.098048176   -26676339      -26676339       1922.298      -26674417      -132.31183     -132.605       -131.36463     -0.32115175     0.10148777     0.30248942     10921.853    
   3097000   322.62997      1.5485         0.013396171    0.01342726     0.013301652   -132.00126      2348.1384      2348.1384      2348.1384      1.2947057e+10  0.097990478   -26661956      -26661956       1922.4356     -26660033      -132.20993     -132.51675     -131.2771      -0.32316555     0.1023127      0.30660838     10935.801    
   3098000   322.65714      1.549          0.013386596    0.013417321    0.013291842   -131.90479      2348.599       2348.599       2348.599       1.2954679e+10  0.097932825   -26647577      -26647577       1922.5975     -26645655      -132.115