LAMMPS (23 Jun 2022 - Update 1)
OMP_NUM_THREADS environment is not set. Defaulting to 1 thread. (src/comm.cpp:98)
  using 1 OpenMP thread(s) per MPI task
###

# Read restart info
read_restart ${read_res}
read_restart ./trial9/1090/equpmf70.res
Reading restart file ...
  restart file = 23 Jun 2022, LAMMPS = 23 Jun 2022
  restoring atom style atomic from restart
  orthogonal box = (1623.7864 1623.7864 1623.7864) to (2376.2136 2376.2136 2376.2136)
  2 by 1 by 2 MPI processor grid
  restoring pair style table from restart
  1000 atoms
  read_restart CPU = 0.023 seconds

# Settings
pair_style table/pgn spline 10941
pair_coeff 1 1 N20e.txt DE_GNP 308 72.9   # 1.35 * r
pair_coeff 2 2 N100e.txt DE_GNP 473.9 111.78
WARNING: 20 of 10941 force values in table DE_GNP are inconsistent with -dE/dr.
WARNING:  Should only be flagged at inflection points (src/pair_table_pgn.cpp:478)
pair_coeff 1 2 mixed_potentiale.txt DE_GNP 391.2 92.95
WARNING: 1564 of 10941 force values in table DE_GNP are inconsistent with -dE/dr.
WARNING:  Should only be flagged at inflection points (src/pair_table_pgn.cpp:478)

# Neighbor list
neighbor 2.0 bin
neigh_modify delay 0 every 1 check no once yes

# Temperature
variable T equal ${Temp}
variable T equal 300

# Deformation
reset_timestep 0
variable tmp equal "lx"
variable L0 equal ${tmp}
variable L0 equal 752.427240389717
variable strain equal "(lx - v_L0)/v_L0"
variable stp equal "step"
variable tmpe equal "temp"
variable p1 equal "v_strain"
variable p2 equal "-pxx*1.01325/10000"
variable p3 equal "-pyy*1.01325/10000"
variable p4 equal "-pzz*1.01325/10000"
variable p5 equal "lx"
variable p6 equal "ly"
variable p7 equal "lz"
variable p8 equal "press"
variable p9 equal "epair"
variable p10 equal "etotal"

# Thermo
thermo_style custom step temp v_p1 v_p2 v_p3 v_p4 press lx ly lz vol density epair pe ke etotal pxx pyy pzz pxy pxz pyz spcpu
thermo ${ts_save}
thermo 1000

# Dump
# dump 1 all custom 2000 ./${N20}${N100}/tensile/trajectory/trajectory_${usic}_${trial}_*.tensile.custom id type x y z ix iy iz
# dump_modify 1 sort id
dump 2 all cfg 50000 ./trial${trial}/${N20}${N100}/tensile/trajectory/dumpten.tens_${usic}_${trial}_*.cfg mass type xs ys zs fx fy fz
dump 2 all cfg 50000 ./trial9/${N20}${N100}/tensile/trajectory/dumpten.tens_${usic}_${trial}_*.cfg mass type xs ys zs fx fy fz
dump 2 all cfg 50000 ./trial9/10${N100}/tensile/trajectory/dumpten.tens_${usic}_${trial}_*.cfg mass type xs ys zs fx fy fz
dump 2 all cfg 50000 ./trial9/1090/tensile/trajectory/dumpten.tens_${usic}_${trial}_*.cfg mass type xs ys zs fx fy fz
dump 2 all cfg 50000 ./trial9/1090/tensile/trajectory/dumpten.tens_1_${trial}_*.cfg mass type xs ys zs fx fy fz
dump 2 all cfg 50000 ./trial9/1090/tensile/trajectory/dumpten.tens_1_9_*.cfg mass type xs ys zs fx fy fz
dump_modify 2 element N20 N100

fix 1 all nvt temp ${T} ${T} 100
fix 1 all nvt temp 300 ${T} 100
fix 1 all nvt temp 300 300 100
fix 2 all deform 1 x erate ${strain_rate} y erate ${strain_rate} z erate ${strain_rate} units box
fix 2 all deform 1 x erate 5e-6 y erate ${strain_rate} z erate ${strain_rate} units box
fix 2 all deform 1 x erate 5e-6 y erate 5e-6 z erate ${strain_rate} units box
fix 2 all deform 1 x erate 5e-6 y erate 5e-6 z erate 5e-6 units box
fix             def1 all print ${ts_save} "${p1} ${p2} ${p3} ${p4}" file ./tensile/${trial}/tensile${N20}${N100}_${usic}_${trial}.txt screen no
fix             def1 all print 1000 "${p1} ${p2} ${p3} ${p4}" file ./tensile/${trial}/tensile${N20}${N100}_${usic}_${trial}.txt screen no
fix             def1 all print 1000 "${p1} ${p2} ${p3} ${p4}" file ./tensile/9/tensile${N20}${N100}_${usic}_${trial}.txt screen no
fix             def1 all print 1000 "${p1} ${p2} ${p3} ${p4}" file ./tensile/9/tensile10${N100}_${usic}_${trial}.txt screen no
fix             def1 all print 1000 "${p1} ${p2} ${p3} ${p4}" file ./tensile/9/tensile1090_${usic}_${trial}.txt screen no
fix             def1 all print 1000 "${p1} ${p2} ${p3} ${p4}" file ./tensile/9/tensile1090_1_${trial}.txt screen no
fix             def1 all print 1000 "${p1} ${p2} ${p3} ${p4}" file ./tensile/9/tensile1090_1_9.txt screen no

timestep       		${ts}
timestep       		0.1
run				${steps_tensile}
run				6000000
Generated 0 of 1 mixed pair_coeff terms from geometric mixing rule
Unused restart file global fix info:
  fix style: npt, fix ID: 5
Neighbor list info ...
  update every 1 steps, delay 0 steps, check no
  max neighbors/atom: 2000, page size: 100000
  master list distance cutoff = 113.78
  ghost atom cutoff = 113.78
  binsize = 56.89, bins = 14 14 14
  1 neighbor lists, perpetual/occasional/extra = 1 0 0
  (1) pair table/pgn, perpetual
      attributes: half, newton on
      pair build: half/bin/atomonly/newton
      stencil: half/bin/3d
      bin: standard
Per MPI rank memory allocation (min/avg/max) = 3.84 | 3.841 | 3.841 Mbytes
   Step          Temp           v_p1           v_p2           v_p3           v_p4          Press            Lx             Ly             Lz           Volume        Density         E_pair         PotEng         KinEng         TotEng          Pxx            Pyy            Pzz            Pxy            Pxz            Pyz           S/CPU     
         0   305.82423      1.5109346e-16  0.0096940813  -0.0058826114  -0.0047801272   3.1866346      752.42724      752.42724      752.42724      4.2598424e+08  1.5671663     -52799878      -52799878       910.69234     -52798968      -95.673144      58.05686       47.176188     -2.4790648     -61.281765      13.291876      0            
      1000   349.57692      0.0005         0.017479093    0.0021682922   0.0032825235  -75.433534      752.80345      752.80345      752.80345      4.2662353e+08  1.5648179     -52799742      -52799742       1040.9804     -52798701      -172.50523     -21.399381     -32.395988     -2.1903283     -61.000909      13.182538      19986.654    
      2000   389.21857      0.001          0.024921815    0.0098698726   0.010980494   -150.57877      753.17967      753.17967      753.17967      4.2726347e+08  1.5624741     -52798965      -52798965       1159.0264     -52797806      -245.95919     -97.408069     -108.36905     -2.089184      -59.936401      12.58163       20509.567    
      3000   412.42272      0.0015         0.032186671    0.017316074    0.018432836   -223.49069      753.55588      753.55588      753.55588      4.2790404e+08  1.5601351     -52797550      -52797550       1228.1244     -52796322      -317.65775     -170.89637     -181.91795     -2.0910826     -57.815015      11.769002      20711.332    
      4000   422.59031      0.002          0.039487686    0.024710523    0.025896904   -296.38988      753.93209      753.93209      753.93209      4.2854526e+08  1.5578007     -52795478      -52795478       1258.4018     -52794219      -389.71316     -243.8739      -255.58257     -2.006062      -56.523046      11.202146      20499.22     
      5000   423.5481       0.0025         0.046658362    0.032079416    0.033341421   -368.7119       754.30831      754.30831      754.30831      4.2918711e+08  1.555471      -52792739      -52792739       1261.2539     -52791478      -460.48223     -316.59922     -329.05424     -1.6249287     -56.405777      10.624177      20715.625    
      6000   419.1046       0.003          0.053590971    0.039373646    0.040639818   -439.52442      754.68452      754.68452      754.68452      4.2982961e+08  1.553146      -52789336      -52789336       1248.0219     -52788088      -528.90176     -388.58767     -401.08382     -0.8304665     -55.910655      10.051409      20505.155    
      7000   412.29852      0.0035         0.060400524    0.046539638    0.047828229   -509.14842      755.06074      755.06074      755.06074      4.3047275e+08  1.5508255     -52785282      -52785282       1227.7546     -52784054      -596.10683     -459.31051     -472.02792      0.337034      -54.841294      9.9146246      20695.362    
      8000   405.05909      0.004          0.06720714     0.053605061    0.054945637   -578.19834      755.43695      755.43695      755.43695      4.3111652e+08  1.5485097     -52780579      -52780579       1206.1968     -52779373      -663.2829      -529.04082     -542.27128      0.93783215    -53.721587      10.127707      20677.274    
      9000   398.19413      0.0045         0.074000344    0.060566666    0.061887093   -646.28375      755.81316      755.81316      755.81316      4.3176094e+08  1.5461985     -52775220      -52775220       1185.7541     -52774034      -730.32661     -597.74651     -610.77812      0.47174821    -52.957438      9.9029363      20575.72     
     10000   391.95621      0.005          0.080589293    0.06734461     0.068594301   -712.32241      756.18938      756.18938      756.18938      4.32406e+08    1.5438919     -52769211      -52769211       1167.1787     -52768044      -795.35449     -664.63963     -676.97311     -0.224656      -52.480927      9.0905098      20527.61     
     11000   386.44891      0.0055         0.086897297    0.073934494    0.075123698   -776.23321      756.56559      756.56559      756.56559      4.3305171e+08  1.5415899     -52762573      -52762573       1150.7789     -52761422      -857.60964     -729.67672     -741.41325     -0.051204337   -51.553697      8.3683308      20708.465    
     12000   381.79669      0.006          0.093099513    0.080410996    0.081619173   -839.3114       756.9418       756.9418       756.9418       4.3369805e+08  1.5392924     -52755320      -52755320       1136.9254     -52754183      -918.82076     -793.59482     -805.51861      0.94654788    -49.840939      7.7921078      20614.925    
     13000   378.3073       0.0065         0.099240769    0.086820714    0.088098704   -901.91689      757.31802      757.31802      757.31802      4.3434504e+08  1.5369995     -52747465      -52747465       1126.5345     -52746338      -979.43024     -856.85383     -869.46661      1.7431221     -48.397987      7.1571458      20696.008    
     14000   375.85767      0.007          0.1052364      0.09312892     0.094453633   -963.29946      757.69423      757.69423      757.69423      4.3499267e+08  1.5347112     -52739021      -52739021       1119.24       -52737902      -1038.6025     -919.11098     -932.18488      2.0717464     -48.029697      6.6897841      20544.661    
     15000   374.07627      0.0075         0.11112175     0.099200418    0.10053992    -1022.6568      758.07044      758.07044      758.07044      4.3564095e+08  1.5324274     -52729999      -52729999       1113.9353     -52728885      -1096.6864     -979.032       -992.25188      1.8814564     -48.130292      6.1338959      20650.266    
     16000   372.71497      0.008          0.11697884     0.10516602     0.10647539    -1081.0766      758.44666      758.44666      758.44666      4.3628987e+08  1.5301481     -52720413      -52720413       1109.8815     -52719303      -1154.4914     -1037.9079     -1050.8304      1.3427427     -47.833816      5.8587241      20485.848    
     17000   371.69905      0.0085         0.12265477     0.11108318     0.11241208    -1138.745       758.82287      758.82287      758.82287      4.3693943e+08  1.5278734     -52710272      -52710272       1106.8563     -52709165      -1210.5085     -1096.3057     -1109.4209      1.4130853     -46.648104      6.3963097      20712.86     
     18000   371.38655      0.009          0.12817315     0.11684392     0.1182888     -1195.1834      759.19909      759.19909      759.19909      4.3758964e+08  1.5256031     -52699575      -52699575       1105.9257     -52698469      -1264.9706     -1153.1599     -1167.4197      1.7710303     -45.060559      7.0750633      20475.93     
     19000   371.63952      0.0095         0.13369725     0.12253802     0.12398021    -1250.8117      759.5753       759.5753       759.5753       4.3824049e+08  1.5233374     -52688335      -52688335       1106.679      -52687229      -1319.4893     -1209.3563     -1223.5895      2.2509652     -43.948322      6.788325       20531.858    
     20000   371.93454      0.01           0.13905391     0.12812988     0.12942747    -1304.7496      759.95151      759.95151      759.95151      4.3889199e+08  1.5210761     -52676568      -52676568       1107.5575     -52675460      -1372.3554     -1264.5436     -1277.3498      3.0262341     -43.129575      5.7071245      20596.913    
     21000   372.40737      0.0105         0.14417153     0.13355481     0.13474872    -1356.9374      760.32773      760.32773      760.32773      4.3954413e+08  1.5188193     -52664286      -52664286       1108.9656     -52663177      -1422.8624     -1318.0835     -1329.8664      3.6275791     -42.258838      4.5160926      20728.606    
     22000   373.47405      0.011          0.14918336     0.13888264     0.1400692     -1408.4553      760.70394      760.70394      760.70394      4.4019692e+08  1.516567      -52651507      -52651507       1112.1419     -52650395      -1472.3253     -1370.6651     -1382.3755      4.0872794     -41.103314      3.9695828      20580.833    
     23000   374.92718      0.0115         0.15415718     0.14407127     0.14535863    -1459.288       761.08015      761.08015      761.08015      4.4085035e+08  1.5143191     -52638235      -52638235       1116.4691     -52637118      -1521.4131     -1421.8729     -1434.5781      4.3505646     -39.898574      4.6934974      20905.621    
     24000   376.31494      0.012          0.15905208     0.14916246     0.15054351    -1509.1967      761.45637      761.45637      761.45637      4.4150443e+08  1.5120757     -52624469      -52624469       1120.6016     -52623348      -1569.722      -1472.119      -1485.749       4.1467024     -38.96962       5.4520107      20513.579    
     25000   377.53528      0.0125         0.16380784     0.15419735     0.15556968    -1557.9402      761.83258      761.83258      761.83258      4.4215916e+08  1.5098367     -52610223      -52610223       1124.2356     -52609099      -1616.6577     -1521.8095     -1535.3534      4.1580753     -38.232792      5.0874422      20878.701    
     26000   378.73524      0.013          0.16838607     0.15906784     0.16038804    -1604.8753      762.20879      762.20879      762.20879      4.4281453e+08  1.5076021     -52595513      -52595513       1127.8089     -52594386      -1661.8413     -1569.8775     -1582.9069      4.3780233     -37.581051      3.9968567      20652.344    
     27000   380.12203      0.0135         0.17288079     0.16373594     0.16502176    -1650.2623      762.58501      762.58501      762.58501      4.4347055e+08  1.5053719     -52580352      -52580352       1131.9385     -52579220      -1706.2007     -1615.9481     -1628.6381      4.5840658     -36.90933       3.2427397      20716.454    
     28000   381.77648      0.014          0.17731435     0.16828671     0.16952321    -1694.6271      762.96122      762.96122      762.96122      4.4412722e+08  1.5031461     -52564754      -52564754       1136.8652     -52563617      -1749.9566     -1660.8607     -1673.064       4.996248      -35.805332      3.0366958      20546.776    
     29000   383.64928      0.0145         0.18165844     0.17280078     0.17399097    -1738.466       763.33744      763.33744      763.33744      4.4478454e+08  1.5009247     -52548728      -52548728       1142.442      -52547585      -1792.8294     -1705.4111     -1717.1574      5.8845604     -34.747658      3.0049118      20741.501    
     30000   385.45136      0.015          0.18593549     0.17729008     0.17853843    -1782.265       763.71365      763.71365      763.71365      4.4544251e+08  1.4987077     -52532272      -52532272       1147.8083     -52531124      -1835.0406     -1749.7171     -1762.0373      7.0189578     -34.062621      3.1396039      20608.592    
     31000   387.04205      0.0155         0.19009165     0.18171509     0.18302187    -1825.2442      764.08986      764.08986      764.08986      4.4610112e+08  1.4964951     -52515385      -52515385       1152.5451     -52514232      -1876.0587     -1793.3885     -1806.2854      6.9649676     -33.501939      3.221607       20672.297    
     32000   388.51391      0.016          0.19408907     0.18596617     0.18728202    -1866.3945      764.46608      764.46608      764.46608      4.4676038e+08  1.4942868     -52498089      -52498089       1156.9281     -52496932      -1915.5102     -1835.3434     -1848.3299      5.9916669     -32.324253      2.7774788      20576.166    
     33000   390.02027      0.0165         0.19794429     0.18995415     0.19132459    -1905.4956      764.84229      764.84229      764.84229      4.4742029e+08  1.4920828     -52480402      -52480402       1161.4138     -52479240      -1953.5583     -1874.7017     -1888.2269      5.8951161     -30.813707      1.723251       20533.815    
     34000   391.66451      0.017          0.20177218     0.19383344     0.19530621    -1943.9488      765.2185       765.2185       765.2185       4.4808086e+08  1.4898832     -52462324      -52462324       1166.31       -52461158      -1991.3366     -1912.9873     -1927.5224      7.1328645     -29.909904      0.90038418     20845.081    
     35000   393.48256      0.0175         0.20560142     0.19777622     0.19929415    -1982.636       765.59472      765.59472      765.59472      4.4874207e+08  1.4876879     -52443858      -52443858       1171.7239     -52442686      -2029.1282     -1951.8995     -1966.8804      8.0606823     -29.77527       0.81049377     20409.521    
     36000   395.39304      0.018          0.20928359     0.20169456     0.20313537    -2020.2764      765.97093      765.97093      765.97093      4.4940393e+08  1.4854969     -52425012      -52425012       1177.413      -52423835      -2065.4685     -1990.5705     -2004.7903      7.4914485     -29.73701       1.2171304      20828.051    
     37000   397.19649      0.0185         0.21287261     0.20544933     0.20681557    -2056.5425      766.34714      766.34714      766.34714      4.5006644e+08  1.4833102     -52405799      -52405799       1182.7833     -52404616      -2100.8893     -2027.6272     -2041.111       6.3310133     -28.701517      1.5518255      20360.751    
     38000   398.6532       0.019          0.21632844     0.20907318     0.21044016    -2091.7568      766.72336      766.72336      766.72336      4.507296e+08   1.4811278     -52386232      -52386232       1187.1212     -52385045      -2134.9957     -2063.3918     -2076.8829      5.9324642     -27.409892      1.5571489      20568.253    
     39000   399.90456      0.0195         0.21959451     0.21258736     0.21396257    -2125.6499      767.09957      767.09957      767.09957      4.5139342e+08  1.4789496     -52366320      -52366320       1190.8475     -52365129      -2167.2293     -2098.0741     -2111.6464      6.968616      -26.192948      1.2530983      20563.944    
     40000   401.16363      0.02           0.22288072     0.2159595      0.217318      -2158.5927      767.47579      767.47579      767.47579      4.5205788e+08  1.4767758     -52346072      -52346072       1194.5968     -52344877      -2199.6617     -2131.3546     -2144.7619      8.067838      -24.714397      0.67633404     20722.219    
     41000   402.41236      0.0205         0.22623013     0.21923555     0.22060353    -2191.1973      767.852        767.852        767.852        4.52723e+08    1.4746062     -52325488      -52325488       1198.3153     -52324289      -2232.7177     -2163.6867     -2177.1876      7.6520658     -23.428232      0.28231897     20611.589    
     42000   403.77278      0.021          0.22943695     0.22255655     0.22392381    -2223.5951      768.22821      768.22821      768.22821      4.5338877e+08  1.4724408     -52304572      -52304572       1202.3664     -52303370      -2264.3666     -2196.4624     -2209.9562      6.8774237     -22.582753      0.44863652     20660.085    
     43000   405.16158      0.0215         0.23239694     0.22582973     0.2272458     -2255.0291      768.60443      768.60443      768.60443      4.5405519e+08  1.4702797     -52283339      -52283339       1206.502      -52282133      -2293.5794     -2228.7662     -2242.7416      6.8101771     -21.680233      0.80949111     20629.191    
     44000   406.37691      0.022          0.23517964     0.22887391     0.23038432    -2284.523       768.98064      768.98064      768.98064      4.5472226e+08  1.4681228     -52261799      -52261799       1210.121      -52260589      -2321.0426     -2258.8099     -2273.7165      7.2625736     -20.827938      0.88588467     20677.331    
     45000   407.60142      0.0225         0.23792936     0.23178458     0.23327817    -2312.6642      769.35685      769.35685      769.35685      4.5538999e+08  1.4659701     -52239958      -52239958       1213.7674     -52238744      -2348.1802     -2287.5359     -2302.2766      7.6432466     -20.161818      0.50663266     20531.334    
     46000   408.81991      0.023          0.24073705     0.23479022     0.23605879    -2340.9362      769.73307      769.73307      769.73307      4.5605837e+08  1.4638217     -52217821      -52217821       1217.3959     -52216603      -2375.89       -2317.1993     -2329.7192      7.5942869     -19.42277      -0.43857427     20837.339    
     47000   409.84072      0.0235         0.24353902     0.23773388     0.23882325    -2368.9321      770.10928      770.10928      770.10928      4.567274e+08   1.4616774     -52195391      -52195391       1220.4357     -52194171      -2403.5433     -2346.2509     -2357.0022      7.763883      -18.30724      -1.1159174      20472.996    
     48000   410.65124      0.024          0.2461534      0.24041115     0.24159265    -2395.4509      770.48549      770.48549      770.48549      4.5739709e+08  1.4595373     -52172679      -52172679       1222.8493     -52171456      -2429.3451     -2372.6736     -2384.3341      8.3910842     -16.916624     -0.49985472     20803.768    
     49000   411.56518      0.0245         0.2485897      0.24288786     0.24426231    -2420.396       770.86171      770.86171      770.86171      4.5806744e+08  1.4574014     -52149699      -52149699       1225.5708     -52148474      -2453.3896     -2397.1168     -2410.6815      8.6923336     -15.941102      1.18576        20513.261    
     50000   412.59919      0.025          0.25097962     0.24534358     0.24679964    -2444.6841      771.23792      771.23792      771.23792      4.5873843e+08  1.4552697     -52126467      -52126467       1228.6499     -52125239      -2476.9762     -2421.3529     -2435.7231      8.3093827     -15.27962       2.3414852      19815.455    
     51000   413.54946      0.0255         0.25328835     0.24779049     0.24922556    -2468.3096      771.61414      771.61414      771.61414      4.5941008e+08  1.4531421     -52102987      -52102987       1231.4797     -52101755      -2499.7617     -2445.502      -2459.665       7.996248      -14.13342       1.9553642      20504.374    
     52000   414.32649      0.026          0.2555448      0.25018881     0.25166371    -2491.6435      771.99035      771.99035      771.99035      4.6008239e+08  1.4510186     -52079252      -52079252       1233.7935     -52078019      -2522.0311     -2469.1716     -2483.7277      8.3088405     -13.056902      1.419538       20726.506    
     53000   414.99987      0.0265         0.2577351      0.25251248     0.25409162    -2514.4805      772.36656      772.36656      772.36656      4.6075535e+08  1.4488993     -52055269      -52055269       1235.7988     -52054033      -2543.6477     -2492.1044     -2507.6893      8.8661286     -12.496686      1.7930441      19445.253    
     54000   415.80494      0.027          0.25979682     0.25471325     0.2563725     -2536.0065      772.74278      772.74278      772.74278      4.6142897e+08  1.4467841     -52031051      -52031051       1238.1961     -52029813      -2563.9953     -2513.8243     -2530.1999      9.0685288     -11.906364      2.4903711      20914.006    
     55000   416.76352      0.0275         0.26179284     0.25682541     0.25840809    -2556.2179      773.11899      773.11899      773.11899      4.6210325e+08  1.4446731     -52006611      -52006611       1241.0506     -52005370      -2583.6944     -2534.6697     -2550.2896      8.846502      -11.315392      2.4777382      20503.771    
     56000   417.65251      0.028          0.26370914     0.25884842     0.26031089    -2575.4369      773.4952       773.4952       773.4952       4.6277818e+08  1.4425661     -51981959      -51981959       1243.6978     -51980715      -2602.6068     -2554.6353     -2569.0687      8.4070341     -10.390404      2.0767866      20799.031    
     57000   418.32196      0.0285         0.26553901     0.26083512     0.2622502     -2594.3723      773.87142      773.87142      773.87142      4.6345377e+08  1.4404633     -51957098      -51957098       1245.6914     -51955853      -2620.6663     -2574.2425     -2588.2082      7.7985758     -9.2069886      1.963292       20449.496    
     58000   418.76885      0.029          0.26729621     0.26282129     0.26417975    -2613.0348      774.24763      774.24763      774.24763      4.6413001e+08  1.4383645     -51932032      -51932032       1247.0221     -51930785      -2638.0084     -2593.8445     -2607.2514      7.4721076     -8.4921758      2.0368339      20800.345    
     59000   419.33966      0.0295         0.26892521     0.26466796     0.26600704    -2630.4802      774.62384      774.62384      774.62384      4.6480692e+08  1.4362698     -51906765      -51906765       1248.7219     -51905516      -2654.0854     -2612.0697     -2625.2854      7.5064287     -7.8850581      2.18659        20504.297    
     60000   419.88565      0.03           0.27048779     0.26636777     0.26778706    -2647.0684      775.00006      775.00006      775.00006      4.6548448e+08  1.4341791     -51881308      -51881308       1250.3478     -51880057      -2669.5069     -2628.8455     -2642.8528      7.4543786     -7.1318687      2.0347347      20893.391    
     61000   420.13709      0.0305         0.2720438      0.26799579     0.2694399     -2662.9805      775.37627      775.37627      775.37627      4.661627e+08   1.4320925     -51855668      -51855668       1251.0965     -51854416      -2684.8636     -2644.9129     -2659.165       7.2684359     -6.5254353      2.1128028      20610.208    
     62000   420.42735      0.031          0.27354107     0.26961067     0.27092042    -2678.0892      775.75248      775.75248      775.75248      4.6684158e+08  1.43001       -51829854      -51829854       1251.9609     -51828602      -2699.6405     -2660.8505     -2673.7767      7.3558282     -5.8807289      2.591706       20905.019    
     63000   420.81303      0.0315         0.27491457     0.27118024     0.27238535    -2692.5904      776.1287       776.1287       776.1287       4.6752111e+08  1.4279315     -51803874      -51803874       1253.1093     -51802621      -2713.1959     -2676.3409     -2688.2344      7.5552392     -4.8667297      2.5918997      20623.431    
     64000   421.07672      0.032          0.27609472     0.27264378     0.2738216     -2706.0124      776.50491      776.50491      776.50491      4.6820131e+08  1.425857      -51777737      -51777737       1253.8946     -51776483      -2724.8431     -2690.7849     -2702.4091      7.2326871     -3.7118988      1.9893988      20653.787    
     65000   421.3458       0.0325         0.27718188     0.27394445     0.2751859     -2718.3559      776.88113      776.88113      776.88113      4.6888216e+08  1.4237866     -51751447      -51751447       1254.6958     -51750192      -2735.5725     -2703.6215     -2715.8737      6.6717963     -3.0814413      1.2014924      20701.923    
     66000   421.85488      0.033          0.27840444     0.27516805     0.27652569    -2730.8107      777.25734      777.25734      777.25734      4.6956368e+08  1.4217201     -51725002      -51725002       1256.2118     -51723746      -2747.6382     -2715.6975     -2729.0964      6.8152147     -2.90441        1.1156491      20725.487    
     67000   422.48376      0.0335         0.27976337     0.27648035     0.27779281    -2743.7669      777.63355      777.63355      777.63355      4.7024585e+08  1.4196577     -51698407      -51698407       1258.0845     -51697149      -2761.0498     -2728.6489     -2741.6019      7.5210666     -2.5735229      1.4333185      20724.281    
     68000   422.7341       0.034          0.28089691     0.27776133     0.27888186    -2755.2927      778.00977      778.00977      778.00977      4.7092869e+08  1.4175992     -51671674      -51671674       1258.83       -51670415      -2772.2369     -2741.2912     -2752.35        7.6691244     -2.3102946      1.0973637      20568.999    
     69000   422.56371      0.0345         0.28168873     0.27879572     0.27979645    -2764.3092      778.38598      778.38598      778.38598      4.7161218e+08  1.4155447     -51644819      -51644819       1258.3226     -51643561      -2780.0516     -2751.4998     -2761.3762      7.1676407     -2.0790778      0.5414991      20866.268    
     70000   422.34793      0.035          0.28234411     0.27960555     0.28065062    -2771.9394      778.76219      778.76219      778.76219      4.7229634e+08  1.4134942     -51617854      -51617854       1257.68       -51616596      -2786.5197     -2759.4922     -2769.8063      6.450282      -1.6260043      0.89179797     20533.342    
     71000   422.20995      0.0355         0.28297044     0.28042805     0.28156208    -2779.7042      779.13841      779.13841      779.13841      4.7298116e+08  1.4114476     -51590780      -51590780       1257.2691     -51589523      -2792.7011     -2767.6097     -2778.8017      5.5297147     -1.5647441      1.6579623      20731.547    
     72000   422.06004      0.036          0.28358217     0.28133234     0.28245265    -2787.6212      779.51462      779.51462      779.51462      4.7366664e+08  1.409405      -51563603      -51563603       1256.8227     -51562347      -2798.7384     -2776.5343     -2787.5909      4.7500108     -1.4979007      1.4242714      20640.075    
     73000   422.05179      0.0365         0.28422347     0.28217796     0.28325758    -2795.1608      779.89083      779.89083      779.89083      4.7435278e+08  1.4073663     -51536328      -51536328       1256.7982     -51535072      -2805.0676     -2784.8799     -2795.535       4.6707231     -0.78344538     0.51657044     20690.398    
     74000   422.09604      0.037          0.28494017     0.28303906     0.28405718    -2802.9819      780.26705      780.26705      780.26705      4.7503958e+08  1.4053316     -51508957      -51508957       1256.9299     -51507700      -2812.1408     -2793.3784     -2803.4264      4.8491869      0.3153279     -0.14821416     20592.024    
     75000   422.0302       0.0375         0.28557244     0.283782       0.28468964    -2809.5865      780.64326      780.64326      780.64326      4.7572705e+08  1.4033007     -51481493      -51481493       1256.7339     -51480236      -2818.3808     -2800.7105     -2809.6683      4.6479284      0.86764719    -0.48043283     20722.249    
     76000   422.18689      0.038          0.28593934     0.2842358      0.28507906    -2813.5676      781.01948      781.01948      781.01948      4.7641518e+08  1.4012738     -51453942      -51453942       1257.2005     -51452685      -2822.0019     -2805.1893     -2813.5116      4.327586       0.61892237    -0.7444837      20661.488    
     77000   422.38364      0.0385         0.28622525     0.28460918     0.28551315    -2817.1645      781.39569      781.39569      781.39569      4.7710397e+08  1.3992508     -51426323      -51426323       1257.7863     -51425066      -2824.8236     -2808.8742     -2817.7958      4.2147731      0.34068179    -1.1533586      20764.011    
     78000   422.04841      0.039          0.28651158     0.28503308     0.28602631    -2821.1892      781.7719       781.7719       781.7719       4.7779343e+08  1.3972317     -51398645      -51398645       1256.7881     -51397388      -2827.6495     -2813.0578     -2822.8602      4.1832627      0.30730508    -1.4176732      20435.469    
     79000   421.42081      0.0395         0.28666714     0.28540812     0.28638398    -2824.1113      782.14812      782.14812      782.14812      4.7848355e+08  1.3952165     -51370901      -51370901       1254.9192     -51369646      -2829.1847     -2816.7591     -2826.3901      3.9028235      0.7086308     -1.1798555      20740.736    
     80000   421.02773      0.04           0.28673321     0.28580178     0.28665478    -2826.5146      782.52433      782.52433      782.52433      4.7917433e+08  1.3932051     -51343103      -51343103       1253.7487     -51341849      -2829.8367     -2820.6443     -2829.0627      3.5411762      1.4152311     -1.0427173      20477.909    
     81000   420.73817      0.0405         0.2867685      0.28610421     0.28682406    -2828.1825      782.90054      782.90054      782.90054      4.7986578e+08  1.3911976     -51315271      -51315271       1252.8864     -51314018      -2830.185      -2823.629      -2830.7334      3.1323633      2.1548609     -1.7133018      20759.626    
     82000   420.41804      0.041          0.28674104     0.28613618     0.28685606    -2828.3026      783.27676      783.27676      783.27676      4.805579e+08   1.3891939     -51287403      -51287403       1251.9331     -51286151      -2829.914      -2823.9445     -2831.0492      2.828694       2.4808807     -2.8842375      20552.909    
     83000   420.00089      0.0415         0.28666167     0.28603973     0.28686092    -2827.7402      783.65297      783.65297      783.65297      4.8125068e+08  1.3871941     -51259499      -51259499       1250.6909     -51258248      -2829.1307     -2822.9927     -2831.0972      3.366466       2.5016268     -3.3867646      20756.702    
     84000   419.35487      0.042          0.28660519     0.28604335     0.28687491    -2827.6123      784.02918      784.02918      784.02918      4.8194412e+08  1.3851982     -51231566      -51231566       1248.7672     -51230317      -2828.5733     -2823.0284     -2831.2352      4.4476935      2.6748422     -3.4079721      20536.334    
     85000   418.72827      0.0425         0.28648966     0.28614042     0.28681046    -2827.3395      784.4054       784.4054       784.4054       4.8263823e+08  1.3832061     -51203609      -51203609       1246.9013     -51202362      -2827.4331     -2823.9864     -2830.5991      4.3572894      3.078737      -3.6608724      20768.083    
     86000   418.37353      0.043          0.28620133     0.28612273     0.28661775    -2825.6989      784.78161      784.78161      784.78161      4.8333301e+08  1.3812177     -51175638      -51175638       1245.8449     -51174392      -2824.5875     -2823.8118     -2828.6973      3.340374       3.045751      -4.0153417      20412.697    
     87000   418.16114      0.0435         0.28579108     0.28589852     0.28632494    -2822.6484      785.15783      785.15783      785.15783      4.8402845e+08  1.3792332     -51147666      -51147666       1245.2125     -51146421      -2820.5387     -2821.599      -2825.8075      3.01693        2.8727218     -4.2458182      20784.406    
     88000   417.81506      0.044          0.28532252     0.28555917     0.28600554    -2818.9398      785.53404      785.53404      785.53404      4.8472456e+08  1.3772525     -51119706      -51119706       1244.1819     -51118462      -2815.9144     -2818.2499     -2822.6552      3.2163881      3.7686228     -4.8470199      20628.958    
     89000   417.26108      0.0445         0.28477656     0.28516836     0.28565904    -2814.7182      785.91025      785.91025      785.91025      4.8542134e+08  1.3752756     -51091755      -51091755       1242.5323     -51090512      -2810.5261     -2814.3929     -2819.2355      3.4171113      4.8825361     -6.2462529      20785.167    
     90000   416.5359       0.045          0.28420963     0.28473171     0.28521943    -2809.9705      786.28647      786.28647      786.28647      4.8611878e+08  1.3733025     -51063816      -51063816       1240.3728     -51062576      -2804.931      -2810.0835     -2814.8969      3.5019269      4.9683428     -7.3638095      20533.083    
     91000   415.81518      0.0455         0.28369728     0.28426521     0.28471886    -2805.1036      786.66268      786.66268      786.66268      4.8681689e+08  1.3713331     -51035895      -51035895       1238.2266     -51034657      -2799.8744     -2805.4795     -2809.9567      3.5676683      4.6105491     -7.6020444      20731.218    
     92000   415.17654      0.046          0.28320303     0.28382701     0.28419783    -2800.322       787.03889      787.03889      787.03889      4.8751567e+08  1.3693675     -51007998      -51007998       1236.3249     -51006762      -2794.9966     -2801.1548     -2804.8146      3.7127687      5.284674      -7.4188655      20691.964    
     93000   414.65975      0.0465         0.28258202     0.28332993     0.28369416    -2794.9868      787.41511      787.41511      787.41511      4.8821512e+08  1.3674057     -50980130      -50980130       1234.7859     -50978895      -2788.8677     -2796.249      -2799.8437      3.7280978      6.6303699     -7.4101361      20744.354    
     94000   414.22083      0.047          0.28176025     0.28279445     0.28319512    -2788.8801      787.79132      787.79132      787.79132      4.8891524e+08  1.3654476     -50952294      -50952294       1233.4789     -50951060      -2780.7574     -2790.9643     -2794.9186      3.5712184      7.2354713     -7.7380829      20707.39     
     95000   413.53605      0.0475         0.28081945     0.28210569     0.28252936    -2781.3291      788.16753      788.16753      788.16753      4.8961603e+08  1.3634932     -50924498      -50924498       1231.4397     -50923266      -2771.4725     -2784.1667     -2788.348       3.4682075      6.9810785     -8.2333127      20604.506    
     96000   412.62254      0.048          0.27994714     0.28119376     0.28165272    -2772.5755      788.54375      788.54375      788.54375      4.9031748e+08  1.3615426     -50896750      -50896750       1228.7195     -50895521      -2762.8635     -2775.1666     -2779.6963      3.4176057      6.6416212     -8.5650866      20726.04     
     97000   411.92099      0.0485         0.27921468     0.28034097     0.28074598    -2764.3774      788.91996      788.91996      788.91996      4.9101961e+08  1.3595957     -50869059      -50869059       1226.6304     -50867833      -2755.6347     -2766.7502     -2770.7474      3.548064       6.3338127     -8.9812852      20456.816    
     98000   411.32586      0.049          0.27845569     0.27956609     0.27995904    -2756.7426      789.29618      789.29618      789.29618      4.917224e+08   1.3576524     -50841427      -50841427       1224.8582     -50840203      -2748.144      -2759.1028     -2762.9809      3.6216338      5.7859323     -9.803531       20720.39     
     99000   410.34124      0.0495         0.27757619     0.27878275     0.27916561    -2748.6621      789.67239      789.67239      789.67239      4.9242587e+08  1.3557129     -50813847      -50813847       1221.9262     -50812625      -2739.464      -2751.3718     -2755.1504      3.6049304      5.6604996     -10.69354       20548.388    
    100000   409.03149      0.05           0.27646711     0.27788719     0.27818495    -2738.8412      790.0486       790.0486       790.0486       4.9313e+08     1.3537771     -50786330      -50786330       1218.0259     -50785112      -2728.5183     -2742.5333     -2745.472       3.5904115      6.3275362     -11.103439      19643.508    
    101000   408.15733      0.0505         0.27518886     0.27673884     0.27706105    -2727.161       790.42482      790.42482      790.42482      4.9383481e+08  1.351845      -50758897      -50758897       1215.4228     -50757682      -2715.9029     -2731.2        -2734.38        3.7498903      7.1545587     -10.319564      20410.735    
    102000   407.91412      0.051          0.2740536      0.27555208     0.27594909    -2715.8641      790.80103      790.80103      790.80103      4.9454029e+08  1.3499166     -50731551      -50731551       1214.6986     -50730337      -2704.6988     -2719.4876     -2723.4058      3.95481        7.4673026     -9.229665       20682.821    
    103000   407.50391      0.0515         0.27309515     0.27452411     0.27497597    -2706.1279      791.17724      791.17724      791.17724      4.9524644e+08  1.3479918     -50704281      -50704281       1213.477      -50703068      -2695.2396     -2709.3423     -2713.8018      3.9895965      7.1465728     -9.336069       20548.347    
    104000   406.55595      0.052          0.27203278     0.27353122     0.27398815    -2696.1169      791.55346      791.55346      791.55346      4.9595326e+08  1.3460706     -50677082      -50677082       1210.6542     -50675872      -2684.7548     -2699.5432     -2704.0528      4.204426       6.35267       -10.454099      20872.924    
    105000   405.45422      0.0525         0.2707331      0.27245432     0.27276279    -2684.2675      791.92967      791.92967      791.92967      4.9666075e+08  1.3441532     -50649970      -50649970       1207.3734     -50648763      -2671.9279     -2688.9151     -2691.9594      4.5579143      5.7483837     -11.149783      20503.905    
    106000   404.43715      0.053          0.26933396     0.27117952     0.27141593    -2671.0401      792.30588      792.30588      792.30588      4.9736892e+08  1.3422393     -50622965      -50622965       1204.3448     -50621761      -2658.1195     -2676.3338     -2678.667       4.9480465      5.6465        -10.897057      20797.009    
    107000   403.28806      0.0535         0.26796287     0.26973161     0.27018607    -2657.7204      792.6821       792.6821       792.6821       4.9807776e+08  1.3403291     -50596069      -50596069       1200.923      -50594868      -2644.5879     -2662.044      -2666.5291      5.1496999      5.8869138     -10.48207       20570.935    
    108000   401.81785      0.054          0.26655687     0.26825496     0.26899339    -2644.3136      793.05831      793.05831      793.05831      4.9878727e+08  1.3384225     -50569275      -50569275       1196.545      -50568078      -2630.7118     -2647.4706     -2654.7583      5.1434431      6.5069936     -10.533124      20892.956    
    109000   400.41434      0.0545         0.26500951     0.26685069     0.26764701    -2630.1742      793.43452      793.43452      793.43452      4.9949746e+08  1.3365196     -50542587      -50542587       1192.3655     -50541395      -2615.4405     -2633.6115     -2641.4706      4.9871635      7.0037056     -10.738174      20461.728    
    110000   399.60644      0.055          0.26339063     0.26560051     0.26615682    -2615.8334      793.81074      793.81074      793.81074      5.0020832e+08  1.3346202     -50516021      -50516021       1189.9598     -50514831      -2599.4634     -2621.2732     -2626.7636      4.6370347      7.0098255     -10.775511      20796.393    
    111000   399.1202       0.0555         0.2620104      0.26445344     0.26475039    -2602.8924      794.18695      794.18695      794.18695      5.0091985e+08  1.3327244     -50489569      -50489569       1188.5118     -50488381      -2585.8416     -2609.9525     -2612.8832      4.7352627      6.4295316     -10.518278      20409.938    
    112000   398.2582       0.056          0.26088568     0.26309406     0.26348946    -2590.5723      794.56317      794.56317      794.56317      5.0163206e+08  1.3308323     -50463223      -50463223       1185.9449     -50462037      -2574.7415     -2596.5365     -2600.4388      5.4709185      5.5574306     -10.088437      20844.418    
    113000   397.01879      0.0565         0.25958513     0.26146994     0.26204652    -2576.2039      794.93938      794.93938      794.93938      5.0234494e+08  1.3289437     -50436990      -50436990       1182.2542     -50435808      -2561.9061     -2580.5076     -2586.1981      5.7333307      5.3562977     -9.7023666      20508.093    
    114000   395.80757      0.057          0.25789341     0.25985789     0.26034769    -2559.7467      795.31559      795.31559      795.31559      5.030585e+08   1.3270586     -50410888      -50410888       1178.6473     -50409709      -2545.2101     -2564.598      -2569.4319      4.986961       5.6441068     -9.3573788      20849.797    
    115000   394.40901      0.0575         0.25613254     0.25838216     0.25870635    -2543.6995      795.69181      795.69181      795.69181      5.0377273e+08  1.3251772     -50384918      -50384918       1174.4827     -50383744      -2527.8316     -2550.0336     -2553.2332      4.0744502      5.5687632     -9.4747338      20615.467    
    116000   392.77979      0.058          0.25447388     0.25687036     0.25718999    -2528.2811      796.06802      796.06802      796.06802      5.0448764e+08  1.3232993     -50359079      -50359079       1169.6311     -50357910      -2511.462      -2535.1134     -2538.2679      4.3390248      5.2580893     -10.014186      20806.792    
    117000   391.32247      0.0585         0.25284497     0.25522524     0.25579881    -2512.9337      796.44423      796.44423      796.44423      5.0520323e+08  1.3214249     -50333376      -50333376       1165.2915     -50332211      -2495.3859     -2518.8772     -2524.538       5.3924358      4.9659617     -10.393056      20548.405    
    118000   389.96087      0.059          0.25129088     0.25357155     0.25437472    -2497.6961      796.82045      796.82045      796.82045      5.0591949e+08  1.3195541     -50307809      -50307809       1161.2369     -50306648      -2480.0482     -2502.5567     -2510.4833      5.7937666      5.0404407     -10.676367      20819.64     
    119000   388.74906      0.0595         0.24968257     0.25193125     0.25264078    -2481.3047      797.19666      797.19666      797.19666      5.0663643e+08  1.3176868     -50282378      -50282378       1157.6283     -50281220      -2464.1754     -2486.3682     -2493.3706      5.5880699      5.5233487     -10.810086      20577.286    
    120000   387.88781      0.06           0.24803449     0.25030313     0.25078896    -2464.4349      797.57287      797.57287      797.57287      5.0735404e+08  1.315823      -50257086      -50257086       1155.0637     -50255931      -2447.9101     -2470.2998     -2475.0946      5.2969964      6.2069664     -10.596537      20832.294    
    121000   386.8569       0.0605         0.24640437     0.24869692     0.24909464    -2448.2143      797.94909      797.94909      797.94909      5.0807234e+08  1.3139627     -50231942      -50231942       1151.9938     -50230790      -2431.822      -2454.4478     -2458.373       5.2351027      6.4921099     -10.099141      20551.324    
    122000   385.6129       0.061          0.24478373     0.24703889     0.24747584    -2432.1028      798.3253       798.3253       798.3253       5.0879131e+08  1.312106      -50206942      -50206942       1148.2894     -50205793      -2415.8276     -2438.0843     -2442.3967      5.4589384      6.1905889     -9.8858014      20794.595    
    123000   384.47384      0.0615         0.24315498     0.24530167     0.24581876    -2415.5783      798.70152      798.70152      798.70152      5.0951095e+08  1.3102527     -50182085      -50182085       1144.8974     -50180940      -2399.7531     -2420.9393     -2426.0425      5.5483369      5.5485015     -10.36437       20637.589    
    124000   383.43502      0.062          0.24140283     0.24353283     0.2441732     -2398.5817      799.07773      799.07773      799.07773      5.1023128e+08  1.308403      -50157374      -50157374       1141.804      -50156233      -2382.4607     -2403.4822     -2409.8021      5.0334231      5.0057641     -11.045827      20800.67     
    125000   382.26693      0.0625         0.23954153     0.24185123     0.24248351    -2381.3678      799.45394      799.45394      799.45394      5.1095229e+08  1.3065567     -50132816      -50132816       1138.3256     -50131678      -2364.0911     -2386.886      -2393.1262      4.3931324      4.8970824     -11.064343      20718.887    
    126000   380.98555      0.063          0.2377106      0.24027335     0.24072747    -2364.3767      799.83016      799.83016      799.83016      5.1167397e+08  1.3047139     -50108408      -50108408       1134.5099     -50107274      -2346.0212     -2371.3136     -2375.7954      3.9872426      4.9503133     -10.398564      20550.98     
    127000   379.63138      0.0635         0.23605984     0.23874195     0.23892382    -2347.9747      800.20637      800.20637      800.20637      5.1239633e+08  1.3028745     -50084144      -50084144       1130.4774     -50083013      -2329.7295     -2356.1999     -2357.9948      4.1051828      5.3951678     -10.401003      20702.757    
    128000   378.28509      0.064          0.23456581     0.23707437     0.23718607    -2331.8571      800.58258      800.58258      800.58258      5.1311938e+08  1.3010386     -50060027      -50060027       1126.4684     -50058900      -2314.9845     -2339.7422     -2340.8446      4.8058789      5.6375375     -10.866207      20657.066    
    129000   376.96673      0.0645         0.23297619     0.23520505     0.23550695    -2314.9542      800.9588       800.9588       800.9588       5.138431e+08   1.2992062     -50036062      -50036062       1122.5426     -50034939      -2299.2962     -2321.2934     -2324.2729      5.4295155      4.948918      -10.058953      20738.91     
    130000   375.76045      0.065          0.23117279     0.23336399     0.23379971    -2297.3484      801.33501      801.33501      801.33501      5.145675e+08   1.2973772     -50012251      -50012251       1118.9505     -50011132      -2281.498      -2303.1235     -2307.4237      5.3675647      3.8989248     -8.2894387      20606.438    
    131000   374.65391      0.0655         0.22929236     0.23162339     0.23209185    -2279.8177      801.71122      801.71122      801.71122      5.1529258e+08  1.2955516     -49988595      -49988595       1115.6554     -49987479      -2262.9396     -2285.9451     -2290.5685      4.8751348      3.5199187     -7.7787718      20724.092    
    132000   373.41142      0.066          0.22758111     0.2299139      0.23041354    -2263.0432      802.08744      802.08744      802.08744      5.1601835e+08  1.2937294     -49965091      -49965091       1111.9555     -49963979      -2246.0509     -2269.0738     -2274.0049      4.1203757      3.9035966     -9.0796032      20718.556    
    133000   372.00103      0.0665         0.22596761     0.22825451     0.22868152    -2246.5783      802.46365      802.46365      802.46365      5.1674479e+08  1.2919107     -49941737      -49941737       1107.7556     -49940629      -2230.1269     -2252.6968     -2256.9112      3.50926        4.2899689     -10.139077      20717.355    
    134000   370.88793      0.067          0.22430002     0.2266691      0.22686936    -2229.9152      802.83987      802.83987      802.83987      5.1747192e+08  1.2900954     -49918535      -49918535       1104.4409     -49917431      -2213.6691     -2237.0501     -2239.0265      3.5557456      4.2215837     -9.6246316      20616.667    
    135000   370.10411      0.0675         0.22262003     0.22511947     0.22510645    -2213.4911      803.21608      803.21608      803.21608      5.1819973e+08  1.2882834     -49895482      -49895482       1102.1069     -49894380      -2197.0889     -2221.7565     -2221.6279      4.0359446      3.8748769     -8.806307       20801.802    
    136000   369.34699      0.068          0.22104516     0.22352196     0.22348224    -2197.7116      803.59229      803.59229      803.59229      5.1892822e+08  1.2864749     -49872573      -49872573       1099.8523     -49871473      -2181.5462     -2205.9902     -2205.5983      4.0383166      3.4513396     -8.5889765      20513.845    
    137000   368.32285      0.0685         0.21953        0.22182464     0.22193407    -2182.0502      803.96851      803.96851      803.96851      5.1965739e+08  1.2846697     -49849809      -49849809       1096.8026     -49848712      -2166.5927     -2189.239      -2190.3189      3.894008       3.1647216     -8.7599697      20887.443    
    138000   367.12109      0.069          0.21801642     0.22017796     0.22039223    -2166.5815      804.34472      804.34472      804.34472      5.2038725e+08  1.282868      -49827185      -49827185       1093.2239     -49826092      -2151.6548     -2172.9875     -2175.1022      4.154242       3.1372898     -8.8136892      20525.372    
    139000   366.05171      0.0695         0.2164698      0.21863887     0.21883395    -2151.304       804.72093      804.72093      804.72093      5.2111779e+08  1.2810695     -49804697      -49804697       1090.0395     -49803607      -2136.3908     -2157.7979     -2159.7232      4.1560382      2.5471169     -8.3141957      20809.143    
    140000   365.14128      0.07           0.21488518     0.21710123     0.21724159    -2135.794       805.09715      805.09715      805.09715      5.2184901e+08  1.2792745     -49782341      -49782341       1087.3284     -49781254      -2120.7518     -2142.6225     -2144.0078      3.3068854      1.7755064     -7.7114059      20333.081    
    141000   364.03998      0.0705         0.21336479     0.21553716     0.21563675    -2120.3675      805.47336      805.47336      805.47336      5.2258092e+08  1.2774828     -49760122      -49760122       1084.0489     -49759038      -2105.7467     -2127.1864     -2128.1693      2.7203038      1.606535      -7.4078372      20838.312    
    142000   362.47445      0.071          0.21186802     0.21404785     0.2140332     -2105.2688      805.84957      805.84957      805.84957      5.2331351e+08  1.2756944     -49738047      -49738047       1079.387      -49736967      -2090.9748     -2112.488      -2112.3435      2.8336425      2.3832603     -7.4544195      20579.53     
    143000   360.77527      0.0715         0.21040836     0.21261227     0.21240313    -2090.3816      806.22579      806.22579      806.22579      5.2404678e+08  1.2739094     -49716109      -49716109       1074.3272     -49715035      -2076.569      -2098.3199     -2096.256       2.8229071      3.2056087     -7.5046187      20798.592    
    144000   359.46486      0.072          0.20897797     0.21113794     0.21084738    -2075.7078      806.602        806.602        806.602        5.2478074e+08  1.2721277     -49694303      -49694303       1070.425      -49693232      -2062.4522     -2083.7694     -2080.9018      2.5918248      2.8149901     -7.3579521      20568.125    
    145000   358.52635      0.0725         0.20752224     0.20961033     0.20941547    -2061.1828      806.97822      806.97822      806.97822      5.2551538e+08  1.2703493     -49672623      -49672623       1067.6303     -49671556      -2048.0853     -2068.6931     -2066.77        2.410327       1.2877652     -7.4444209      20799.283    
    146000   357.51488      0.073          0.20614304     0.20818151     0.20808332    -2047.5627      807.35443      807.35443      807.35443      5.2625071e+08  1.2685743     -49651064      -49651064       1064.6183     -49649999      -2034.4736     -2054.5918     -2053.6227      2.5559583     -0.16535321    -7.3532397      20500.548    
    147000   356.21046      0.0735         0.2049257      0.20694114     0.2068106     -2035.2905      807.73064      807.73064      807.73064      5.2698673e+08  1.2668025     -49629618      -49629618       1060.7339     -49628557      -2022.4594     -2042.3502     -2041.0619      2.3473563     -0.46431813    -6.7881063      20761.164    
    148000   354.94766      0.074          0.2037384      0.20571425     0.20546001    -2022.9054      808.10686      808.10686      808.10686      5.2772343e+08  1.2650341     -49608283      -49608283       1056.9735     -49607226      -2010.7417     -2030.2418     -2027.7326      1.6384106      0.076134688   -6.3456574      20576.922    
    149000   354.11422      0.0745         0.20242332     0.2043771      0.20395395    -2009.2256      808.48307      808.48307      808.48307      5.2846081e+08  1.2632689     -49587071      -49587071       1054.4917     -49586016      -1997.7628     -2017.0452     -2012.8689      1.3478084      0.80552418    -6.4367251      20852.126    
    150000   353.48117      0.075          0.20107409     0.20298926     0.20248729    -1995.3965      808.85928      808.85928      808.85928      5.2919889e+08  1.261507      -49565987      -49565987       1052.6066     -49564934      -1984.447      -2003.3483     -1998.3942      1.7531684      1.1119337     -7.2105632      19770.303    
    151000   352.38149      0.0755         0.19984663     0.20164289     0.20121047    -1982.7288      809.2355       809.2355       809.2355       5.2993765e+08  1.2597484     -49545018      -49545018       1049.3319     -49543969      -1972.3329     -1990.0606     -1985.7929      2.112484       0.9486076     -7.9616973      20766.113    
    152000   350.92228      0.076          0.19866709     0.20035903     0.20007009    -1970.8733      809.61171      809.61171      809.61171      5.306771e+08   1.2579931     -49524147      -49524147       1044.9866     -49523102      -1960.6917     -1977.3899     -1974.5383      1.9874666      0.6142174     -7.8790553      20634.581    
    153000   349.36351      0.0765         0.19749266     0.19915175     0.19894559    -1959.3387      809.98792      809.98792      809.98792      5.3141723e+08  1.256241      -49503369      -49503369       1040.3449     -49502329      -1949.101      -1965.4749     -1963.4403      1.5205047      0.6408567     -7.0052787      20633.716    
    154000   347.92897      0.077          0.19640225     0.19807101     0.19772276    -1948.1734      810.36414      810.36414      810.36414      5.3215805e+08  1.2544922     -49482691      -49482691       1036.0731     -49481655      -1938.3395     -1954.8089     -1951.3719      1.5390044      0.77786758    -6.1985675      20710.891    
    155000   346.81363      0.0775         0.19538281     0.19700949     0.19638054    -1936.9121      810.74035      810.74035      810.74035      5.3289957e+08  1.2527466     -49462121      -49462121       1032.7518     -49461088      -1928.2784     -1944.3325     -1938.1252      1.7790864      0.3263566     -5.7727392      20451.4      
    156000   345.911        0.078          0.19429781     0.19581597     0.19502996    -1924.9732      811.11657      811.11657      811.11657      5.3364177e+08  1.2510043     -49441657      -49441657       1030.0639     -49440627      -1917.5703     -1932.5534     -1924.796       1.5787908     -0.0097695824  -5.7136583      20706.843    
    157000   345.16165      0.0785         0.19306637     0.1944333      0.19379538    -1912.312       811.49278      811.49278      811.49278      5.3438465e+08  1.2492651     -49421293      -49421293       1027.8325     -49420265      -1905.4169     -1918.9075     -1912.6117      1.0315048      0.45545359    -5.7306429      20544.663    
    158000   344.50038      0.079          0.19190846     0.19314525     0.19275319    -1900.8369      811.86899      811.86899      811.86899      5.3512823e+08  1.2475293     -49401027      -49401027       1025.8633     -49400001      -1893.9893     -1906.1954     -1902.326       0.72660183     0.99648466    -5.6958339      20836.756    
    159000   343.54356      0.0795         0.19101812     0.19217444     0.19182305    -1891.6543      812.24521      812.24521      812.24521      5.358725e+08   1.2457966     -49380850      -49380850       1023.0141     -49379827      -1885.2023     -1896.6142     -1893.1464      0.90231769     0.52255746    -6.0831794      20554.315    
    160000   342.37619      0.08           0.19028671     0.19137546     0.19084499    -1883.4021      812.62142      812.62142      812.62142      5.3661746e+08  1.2440671     -49360750      -49360750       1019.5378     -49359730      -1877.9838     -1888.7289     -1883.4936      1.2596297     -0.64201474    -6.7808522      20687.106    
    161000   341.34454      0.0805         0.18944583     0.19049525     0.18982195    -1874.3746      812.99763      812.99763      812.99763      5.373631e+08   1.2423408     -49340729      -49340729       1016.4657     -49339713      -1869.685      -1880.0419     -1873.397       1.3975227     -1.2827921     -6.9324685      20681.717    
    162000   340.33289      0.081          0.18834169     0.18941477     0.18878762    -1863.7851      813.37385      813.37385      813.37385      5.3810944e+08  1.2406177     -49320797      -49320797       1013.4532     -49319783      -1858.7879     -1869.3784     -1863.1889      1.0023622     -0.83271324    -6.0182349      20745.406    
    163000   339.04216      0.0815         0.18710266     0.18818762     0.18763417    -1851.8775      813.75006      813.75006      813.75006      5.3885647e+08  1.2388979     -49300958      -49300958       1009.6097     -49299949      -1846.5597     -1857.2675     -1851.8053      0.64133406    -0.11207725    -4.9184302      20552.13     
    164000   337.78457      0.082          0.18600292     0.18704394     0.18643154    -1840.5408      814.12627      814.12627      814.12627      5.3960419e+08  1.2371811     -49281211      -49281211       1005.8648     -49280205      -1835.7061     -1845.9802     -1839.9362      0.65699163    -0.0096322512  -4.9699073      20710.332    
    165000   336.94058      0.0825         0.1852419      0.18614795     0.18539816    -1831.6901      814.50249      814.50249      814.50249      5.403526e+08   1.2354676     -49261544      -49261544       1003.3515     -49260541      -1828.1954     -1837.1374     -1829.7376      0.79195417    -0.21762672    -5.6631304      20640.298    
    166000   336.38873      0.083          0.18474946     0.18544781     0.1846154     -1825.1918      814.8787       814.8787       814.8787       5.411017e+08   1.2337572     -49241941      -49241941       1001.7082     -49240939      -1823.3354     -1830.2276     -1822.0123      0.5557837     -0.23489318    -5.9256406      20694.801    
    167000   335.8445       0.0835         0.18414089     0.18471388     0.18393286    -1818.5299      815.25491      815.25491      815.25491      5.418515e+08   1.23205       -49222400      -49222400       1000.0876     -49221400      -1817.3293     -1822.9843     -1815.2762     -0.04441073    -0.41735013    -5.4237044      20618.336    
    168000   335.13867      0.084          0.18324392     0.18382893     0.18318359    -1810.2029      815.63113      815.63113      815.63113      5.4260198e+08  1.2303459     -49202929      -49202929       997.98572     -49201931      -1808.4768     -1814.2505     -1807.8815     -0.32979366    -0.64862411    -4.6527655      20718.008    
    169000   334.5098       0.0845         0.18215971     0.1828051      0.18227871    -1800.2912      816.00734      816.00734      816.00734      5.4335316e+08  1.228645      -49183532      -49183532       996.11305     -49182536      -1797.7766     -1804.1461     -1798.951      -0.37558637    -0.53806604    -4.3143023      20503.346    
    170000   333.96636      0.085          0.18117977     0.18182602     0.18135273    -1790.8003      816.38356      816.38356      816.38356      5.4410504e+08  1.2269472     -49164210      -49164210       994.4948      -49163215      -1788.1053     -1794.4833     -1789.8123     -0.3849619     -0.21241517    -4.570842       20808.48     
    171000   333.14885      0.0855         0.18042915     0.18099267     0.18052857    -1782.8782      816.75977      816.75977      816.75977      5.448576e+08   1.2252525     -49144958      -49144958       992.06037     -49143966      -1780.6973     -1786.2588     -1781.6785     -0.38478734    -0.53171558    -5.1130268      20425.22     
    172000   332.32392      0.086          0.17979376     0.18026341     0.17974198    -1775.8011      817.13598      817.13598      817.13598      5.4561086e+08  1.2235609     -49125770      -49125770       989.6039      -49124780      -1774.4264     -1779.0616     -1773.9154     -0.25834645    -1.610082      -5.2998274      20871.969    
    173000   331.73303      0.0865         0.17913712     0.17961653     0.17901786    -1769.1307      817.5122       817.5122       817.5122       5.4636481e+08  1.2218725     -49106638      -49106638       987.84432     -49105650      -1767.946      -1772.6774     -1766.7689     -0.04525027    -2.3049787     -5.1749505      20386.504    
    174000   331.19887      0.087          0.17845374     0.17900428     0.17831972    -1762.5717      817.88841      817.88841      817.88841      5.4711946e+08  1.2201871     -49087555      -49087555       986.25368     -49086569      -1761.2015     -1766.6348     -1759.8788      0.27398956    -2.2460268     -4.9762288      20824.974    
    175000   330.88862      0.0875         0.17774876     0.17826953     0.17753524    -1755.2546      818.26462      818.26462      818.26462      5.478748e+08   1.2185049     -49068529      -49068529       985.32982     -49067544      -1754.2439     -1759.3835     -1752.1365      0.49949516    -1.5494625     -4.7559829      20486.274    
    176000   330.73368      0.088          0.1770474      0.17740891     0.17678769    -1747.6569      818.64084      818.64084      818.64084      5.4863084e+08  1.2168257     -49049568      -49049568       984.86841     -49048583      -1747.322      -1750.8898     -1744.7588      0.15805565    -0.69872492    -4.9380767      20816.424    
    177000   330.26439      0.0885         0.17636642     0.17661363     0.17619002    -1740.8342      819.01705      819.01705      819.01705      5.4938757e+08  1.2151497     -49030667      -49030667       983.47095     -49029684      -1740.6012     -1743.0411     -1738.8603     -0.48620836    -0.65521164    -5.3207377      20504.624    
    178000   329.36626      0.089          0.17570517     0.17595198     0.17565079    -1734.7082      819.39326      819.39326      819.39326      5.50145e+08    1.2134767     -49011819      -49011819       980.79648     -49010838      -1734.0752     -1736.511      -1733.5385     -0.52518699    -1.0825158     -5.076218       20791.832    
    179000   328.36803      0.0895         0.17505469     0.17536287     0.17501737    -1728.5465      819.76948      819.76948      819.76948      5.5090312e+08  1.2118068     -48993013      -48993013       977.82394     -48992035      -1727.6554     -1730.697      -1727.2872     -0.020881541   -1.4067178     -4.4434652      20605.634    
    180000   327.78266      0.09           0.17441668     0.17474909     0.17424423    -1721.885       820.14569      820.14569      820.14569      5.5166194e+08  1.2101399     -48974253      -48974253       976.08079     -48973277      -1721.3588     -1724.6394     -1719.6568      0.146633      -1.6323432     -3.8894917      20747.192    
    181000   327.78327      0.0905         0.17379899     0.17414299     0.17348721    -1715.3687      820.52191      820.52191      820.52191      5.5242146e+08  1.2084761     -48955548      -48955548       976.08259     -48954572      -1715.2627     -1718.6577     -1712.1857     -0.37294742    -2.1494872     -4.0609806      20730.216    
    182000   327.74381      0.091          0.17325851     0.17359586     0.17290596    -1709.8786      820.89812      820.89812      820.89812      5.5318167e+08  1.2068153     -48936895      -48936895       975.9651      -48935919      -1709.9286     -1713.2579     -1706.4492     -0.83223854    -2.1132909     -4.5964599      20612.788    
    183000   327.3991       0.0915         0.17275073     0.17306613     0.17246083    -1705.001       821.27433      821.27433      821.27433      5.5394258e+08  1.2051576     -48918276      -48918276       974.9386      -48917301      -1704.9171     -1708.0299     -1702.056      -0.47539605    -1.4641324     -4.7037922      20853.877    
    184000   327.0796       0.092          0.17214729     0.1724356      0.17202588    -1699.5107      821.65055      821.65055      821.65055      5.5470419e+08  1.2035029     -48899698      -48899698       973.98719     -48898724      -1698.9616     -1701.8071     -1697.7634      0.56717433    -0.93452714    -4.4470774      20661.82     
    185000   326.78678      0.0925         0.17143544     0.17173225     0.17146728    -1693.0174      822.02676      822.02676      822.02676      5.5546649e+08  1.2018513     -48881175      -48881175       973.11523     -48880202      -1691.9363     -1694.8655     -1692.2505      1.224098      -0.99535999    -4.4559019      20766.808    
    186000   326.24555      0.093          0.17081766     0.17106007     0.17078492    -1686.529       822.40297      822.40297      822.40297      5.562295e+08   1.2002027     -48862704      -48862704       971.50355     -48861732      -1685.8392     -1688.2317     -1685.5161      1.1405982     -1.4617261     -4.6296964      20521.151    
    187000   325.77337      0.0935         0.17037519     0.17044117     0.17011504    -1680.8336      822.77919      822.77919      822.77919      5.569932e+08   1.198557      -48844268      -48844268       970.09746     -48843298      -1681.4724     -1682.1236     -1678.9049      0.74114961    -1.8063535     -4.3097333      20738.837    
    188000   325.64014      0.094          0.16994764     0.16992069     0.16956058    -1675.8908      823.1554       823.1554       823.1554       5.577576e+08   1.1969144     -48825869      -48825869       969.70073     -48824899      -1677.2528     -1676.9868     -1673.4328      0.27520371    -1.8521012     -3.8024814      20501.481    
    189000   325.68678      0.0945         0.1693862      0.16945737     0.16905087    -1670.8428      823.53161      823.53161      823.53161      5.585227e+08   1.1952748     -48807514      -48807514       969.83962     -48806544      -1671.7118     -1672.4142     -1668.4023     -0.18224543    -1.7603875     -3.7642036      20692.344    
    190000   325.6184       0.095          0.16877137     0.16902141     0.16850467    -1665.5891      823.90783      823.90783      823.90783      5.592885e+08   1.1936382     -48789202      -48789202       969.636       -48788233      -1665.6439     -1668.1116     -1663.0118     -0.58301578    -1.6536806     -3.9869847      20300.039    
    191000   325.1539       0.0955         0.16821903     0.16855408     0.16793756    -1660.369       824.28404      824.28404      824.28404      5.60055e+08    1.1920046     -48770929      -48770929       968.25279     -48769960      -1660.1927     -1663.4995     -1657.4148     -0.8039804     -1.69062       -4.1008638      20413.252    
    192000   324.53612      0.096          0.16772239     0.16791362     0.16738299    -1654.8038      824.66026      824.66026      824.66026      5.6082219e+08  1.1903739     -48752695      -48752695       966.41313     -48751729      -1655.2913     -1657.1785     -1651.9416     -0.44012793    -2.1826063     -4.2204007      20299.387    
    193000   324.14106      0.0965         0.16719784     0.16719571     0.16686318    -1649.0064      825.03647      825.03647      825.03647      5.6159009e+08  1.1887463     -48734507      -48734507       965.23672     -48733541      -1650.1144     -1650.0933     -1646.8115      0.18893016    -2.5941427     -4.5883708      20556.048    
    194000   323.89434      0.097          0.16668914     0.16664638     0.16637184    -1643.9094      825.41268      825.41268      825.41268      5.6235869e+08  1.1871215     -48716358      -48716358       964.50202     -48715394      -1645.0939     -1644.6719     -1641.9624      0.37396359    -2.365431      -4.6387438      20348.275    
    195000   323.78141      0.0975         0.16624518     0.16629169     0.16588055    -1639.6659      825.7889       825.7889       825.7889       5.6312799e+08  1.1854998     -48698244      -48698244       964.16574     -48697280      -1640.7124     -1641.1714     -1637.1138      0.23852594    -1.878206      -3.9822822      20531.082    
    196000   323.80099      0.098          0.16580394     0.16596637     0.16543303    -1635.6718      826.16511      826.16511      826.16511      5.63898e+08    1.183881      -48680158      -48680158       964.22404     -48679194      -1636.3577     -1637.9607     -1632.6971      0.3429166     -1.5749627     -3.3859719      20342.696    
    197000   323.77328      0.0985         0.16528607     0.16548775     0.16499093    -1630.9392      826.54132      826.54132      826.54132      5.646687e+08   1.1822651     -48662100      -48662100       964.14155     -48661136      -1631.2467     -1633.2371     -1628.3339      0.60374734    -1.695619      -3.6907537      20533.231    
    198000   323.89338      0.099          0.16477182     0.16495545     0.16446138    -1625.7543      826.91754      826.91754      826.91754      5.654401e+08   1.1806522     -48644083      -48644083       964.49916     -48643118      -1626.1715     -1627.9838     -1623.1076      0.69480363    -1.8817596     -4.4000541      20325.989    
    199000   323.92509      0.0995         0.16432715     0.16447164     0.16401396    -1621.2279      827.29375      827.29375      827.29375      5.6621221e+08  1.1790423     -48626110      -48626110       964.5936      -48625145      -1621.7829     -1623.2089     -1618.6919      0.54056613    -1.8082683     -5.101052       20643.985    
    200000   323.61349      0.1            0.16387781     0.16400483     0.16370378    -1617.1936      827.66996      827.66996      827.66996      5.6698502e+08  1.1774352     -48608168      -48608168       963.66572     -48607204      -1617.3482     -1618.6019     -1615.6307      0.59016927    -1.5355221     -5.3570252      19956.831    
    201000   323.38133      0.1005         0.16339774     0.16352386     0.16331649    -1612.7579      828.04618      828.04618      828.04618      5.6775853e+08  1.1758311     -48590254      -48590254       962.97438     -48589291      -1612.6103     -1613.855      -1611.8084      0.82273012    -1.4321048     -4.4567148      20750.196    
    202000   323.44098      0.101          0.1630069      0.16310365     0.16283565    -1608.508       828.42239      828.42239      828.42239      5.6853275e+08  1.1742298     -48572367      -48572367       963.15201     -48571404      -1608.753      -1609.7079     -1607.0629      0.57950514    -1.9168743     -3.2285383      20617.945    
    203000   323.22668      0.1015         0.16263673     0.16273367     0.16232071    -1604.379       828.79861      828.79861      828.79861      5.6930767e+08  1.1726315     -48554509      -48554509       962.51387     -48553547      -1605.0998     -1606.0565     -1601.9808     -0.047599491   -2.4096537     -3.1397569      20775.257    
    204000   322.89353      0.102          0.16216898     0.16228849     0.16179955    -1599.6612      829.17482      829.17482      829.17482      5.7008329e+08  1.1710361     -48536683      -48536683       961.52179     -48535721      -1600.4834     -1601.6628     -1596.8374      0.020793766   -2.0374601     -4.178987       20654.097    
    205000   322.80746      0.1025         0.16166137     0.16177739     0.16133639    -1594.7863      829.55103      829.55103      829.55103      5.7085962e+08  1.1694436     -48518894      -48518894       961.26549     -48517933      -1595.4736     -1596.6187     -1592.2664      0.67824861    -1.5612566     -4.6825765      20750.895    
    206000   323.04467      0.103          0.16116933     0.16124796     0.16095298    -1590.1646      829.92725      829.92725      829.92725      5.7163665e+08  1.167854      -48501147      -48501147       961.97186     -48500185      -1590.6176     -1591.3936     -1588.4824      1.0886713     -1.8849189     -4.2155764      20568.432    
    207000   323.34064      0.1035         0.16075359     0.16076629     0.1606019     -1586.0573      830.30346      830.30346      830.30346      5.7241439e+08  1.1662672     -48483435      -48483435       962.85321     -48482472      -1586.5145     -1586.6399     -1585.0176      0.86798165    -2.1792182     -3.7203127      20787.252    
    208000   323.14023      0.104          0.16038915     0.16039907     0.1602268     -1582.4164      830.67967      830.67967      830.67967      5.7319283e+08  1.1646833     -48465745      -48465745       962.25643     -48464783      -1582.9178     -1583.0157     -1581.3156      0.58180436    -2.0246513     -3.8626454      20513.342    
    209000   322.52519      0.1045         0.16001719     0.16002971     0.1597712     -1578.4788      831.05589      831.05589      831.05589      5.7397198e+08  1.1631023     -48448081      -48448081       960.42494     -48447120      -1579.2468     -1579.3704     -1576.8192      0.70983495    -2.2543093     -4.156945       20702.505    
    210000   322.05576      0.105          0.15954382     0.15956208     0.15919893    -1573.5006      831.4321       831.4321       831.4321       5.7475183e+08  1.1615241     -48430448      -48430448       959.02705     -48429489      -1574.5751     -1574.7553     -1571.1713      0.89122659    -2.6596283     -3.7157495      20700.245    
    211000   321.96483      0.1055         0.15902967     0.15909141     0.15864066    -1568.4242      831.80831      831.80831      831.80831      5.7553239e+08  1.1599488     -48412852      -48412852       958.75629     -48411893      -1569.5008     -1570.1101     -1565.6616      0.66504658    -2.5613916     -3.1506676      20800.791    
    212000   321.98088      0.106          0.15859745     0.1587166      0.15821438    -1564.3669      832.18453      832.18453      832.18453      5.7631366e+08  1.1583764     -48395287      -48395287       958.80409     -48394328      -1565.2352     -1566.411      -1561.4546      0.42780072    -1.8022419     -3.3468316      20640.734    
    213000   322.08788      0.1065         0.15826536     0.1584117      0.15791836    -1561.2976      832.56074      832.56074      832.56074      5.7709563e+08  1.1568068     -48377748      -48377748       959.12272     -48376789      -1561.9577     -1563.402      -1558.5331      0.29107703    -1.1544543     -3.6019525      20731.198    
    214000   322.39786      0.107          0.15797971     0.15809288     0.15767114    -1558.4957      832.93696      832.93696      832.93696      5.7787831e+08  1.15524       -48360233      -48360233       960.04578     -48359273      -1559.1386     -1560.2555     -1556.0932      0.15532144    -1.4548045     -3.4482837      20735.584    
    215000   322.59524      0.1075         0.15771127     0.15770414     0.15733874    -1555.2402      833.31317      833.31317      833.31317      5.786617e+08   1.153676      -48342742      -48342742       960.63355     -48341782      -1556.4892     -1556.4189     -1552.8126      0.19459907    -2.5325504     -3.2833123      20659.248    
    216000   322.536        0.108          0.15732736     0.15719672     0.1568514     -1550.7048      833.68938      833.68938      833.68938      5.7944579e+08  1.1521149     -48325275      -48325275       960.45714     -48324315      -1552.7003     -1551.411      -1548.003       0.46055576    -2.9028278     -3.3786311      20774.927    
    217000   322.48941      0.1085         0.15677234     0.15668113     0.1562904     -1545.3372      834.0656       834.0656       834.0656       5.8023059e+08  1.1505566     -48307842      -48307842       960.3184      -48306881      -1547.2227     -1546.3225     -1542.4664      0.94282406    -2.2356561     -3.9929816      20574.593    
[...]
   3041000   320.74107      1.5205         0.014751139    0.014730087    0.014641191   -145.15147      1896.4929      1896.4929      1896.4929      6.8210877e+09  0.097871212   -15720402      -15720402       955.11213     -15719447      -145.58243     -145.37465     -144.49732      0.21187982    -0.0050549567  -0.25044641     20361.69     
   3042000   320.72189      1.521          0.014736008    0.014718726    0.014631052   -145.03096      1896.8691      1896.8691      1896.8691      6.8251479e+09  0.09781299    -15711943      -15711943       955.05503     -15710988      -145.43309     -145.26253     -144.39726      0.21272713    -0.0037805045  -0.22952352     20340.629    
   3043000   320.70494      1.5215         0.014721919    0.014705301    0.014620026   -144.90417      1897.2453      1897.2453      1897.2453      6.8292097e+09  0.097754814   -15703487      -15703487       955.00454     -15702532      -145.29404     -145.13003     -144.28844      0.22012359    -0.01028121    -0.21206754     20372.165    
   3044000   320.71202      1.522          0.014709696    0.014692227    0.014607643   -144.78022      1897.6215      1897.6215      1897.6215      6.8332731e+09  0.097696684   -15695036      -15695036       955.02564     -15694081      -145.17341     -145.00101     -144.16623      0.23616296    -0.017048581   -0.20455679     20252.348    
   3045000   320.73046      1.5225         0.014701201    0.014681277    0.014595738   -144.67708      1897.9977      1897.9977      1897.9977      6.8373381e+09  0.097638601   -15686588      -15686588       955.08053     -15685633      -145.08958     -144.89294     -144.04874      0.25314431    -0.013023587   -0.21193645     20295.297    
   3046000   320.75304      1.523          0.01469615     0.014671996    0.014585017   -144.59466      1898.3739      1898.3739      1898.3739      6.8414047e+09  0.097580563   -15678142      -15678142       955.14779     -15677187      -145.03972     -144.80134     -143.94293      0.24870376    -0.0007079365  -0.21986999     20495.528    
   3047000   320.79249      1.5235         0.014692566    0.014664988    0.014575658   -144.52903      1898.7501      1898.7501      1898.7501      6.8454729e+09  0.097522571   -15669698      -15669698       955.26526     -15668743      -145.00435     -144.73218     -143.85056      0.22564014     0.0053558408  -0.21400477     20133.614    
   3048000   320.84619      1.524          0.014688082    0.014659338    0.014568036   -144.47062      1899.1264      1899.1264      1899.1264      6.8495428e+09  0.097464626   -15661253      -15661253       955.42517     -15660298      -144.9601      -144.67642     -143.77533      0.20419891    -0.0076943146  -0.1991315      20532.627    
   3049000   320.91938      1.5245         0.014679907    0.014652611    0.014561145   -144.39892      1899.5026      1899.5026      1899.5026      6.8536142e+09  0.097406726   -15652809      -15652809       955.64312     -15651854      -144.87942     -144.61003     -143.70732      0.19364717    -0.026024625   -0.18755309     20221.898    
   3050000   321.00256      1.525          0.01466891     0.014643421    0.014553369   -144.30693      1899.8788      1899.8788      1899.8788      6.8576873e+09  0.097348872   -15644367      -15644367       955.89081     -15643411      -144.77089     -144.51933     -143.63058      0.19881651    -0.026418335   -0.19679389     19910.402    
   3051000   321.06021      1.5255         0.014655939    0.014633344    0.014543706   -144.19932      1900.255       1900.255       1900.255       6.861762e+09   0.097291064   -15635927      -15635927       956.06248     -15634971      -144.64287     -144.41988     -143.53521      0.21694674    -0.0080176598  -0.2215523      20226.844    
   3052000   321.0581       1.526          0.014641793    0.014623219    0.014532814   -144.08365      1900.6312      1900.6312      1900.6312      6.8658383e+09  0.097233302   -15627491      -15627491       956.0562      -15626535      -144.50326     -144.31995     -143.42773      0.23160658     0.011660507   -0.24542185     20507.46     
   3053000   320.99443      1.5265         0.014627791    0.014612708    0.014520991   -143.96411      1901.0074      1901.0074      1901.0074      6.8699162e+09  0.097175585   -15619058      -15619058       955.86661     -15618102      -144.36507     -144.21622     -143.31104      0.23179144     0.011551769   -0.26336251     20294.973    
   3054000   320.90905      1.527          0.014614611    0.014600204    0.014508029   -143.83697      1901.3836      1901.3836      1901.3836      6.8739957e+09  0.097117914   -15610629      -15610629       955.61234     -15609673      -144.235       -144.09281     -143.18311      0.21787295    -0.012058826   -0.27794146     20444.566    
   3055000   320.85676      1.5275         0.014603916    0.014587203    0.01449692    -143.72247      1901.7599      1901.7599      1901.7599      6.8780768e+09  0.097060289   -15602204      -15602204       955.45665     -15601249      -144.12944     -143.9645      -143.07348      0.20517011    -0.03623558    -0.28056886     20263.912    
   3056000   320.85758      1.528          0.0145971      0.014577723    0.014488436   -143.64095      1902.1361      1902.1361      1902.1361      6.8821596e+09  0.097002709   -15593782      -15593782       955.45907     -15592826      -144.06218     -143.87094     -142.98975      0.19943322    -0.036599759   -0.26244735     20550.341    
   3057000   320.89626      1.5285         0.014591708    0.014570212    0.014480378   -143.572        1902.5123      1902.5123      1902.5123      6.886244e+09   0.096945175   -15585360      -15585360       955.57428     -15584404      -144.00896     -143.79681     -142.91022      0.20153364    -0.017650531   -0.23239688     20209.006    
   3058000   320.94436      1.529          0.014582979    0.014561341    0.014470739   -143.48239      1902.8885      1902.8885      1902.8885      6.8903299e+09  0.096887686   -15576939      -15576939       955.71749     -15575984      -143.92281     -143.70926     -142.81509      0.20391872    -0.0064287618  -0.21146378     20546.749    
   3059000   320.98347      1.5295         0.014568974    0.014551074    0.014459156   -143.36443      1903.2647      1903.2647      1903.2647      6.8944175e+09  0.096830243   -15568522      -15568522       955.83396     -15567566      -143.78459     -143.60794     -142.70077      0.20106397    -0.017811658   -0.20785505     20372.6      
   3060000   320.99345      1.53           0.014555029    0.014541843    0.014448147   -143.25198      1903.6409      1903.6409      1903.6409      6.8985068e+09  0.096772845   -15560109      -15560109       955.86368     -15559153      -143.64697     -143.51683     -142.59213      0.19463809    -0.037783451   -0.21743311     20422.258    
   3061000   320.9772       1.5305         0.014544341    0.014532827    0.014438772   -143.15631      1904.0171      1904.0171      1904.0171      6.9025976e+09  0.096715492   -15551698      -15551698       955.81529     -15550742      -143.54149     -143.42785     -142.4996       0.1884344     -0.044925556   -0.23073367     20343.02     
   3062000   320.96935      1.531          0.014535901    0.0145223      0.014430869   -143.06792      1904.3933      1904.3933      1904.3933      6.90669e+09    0.096658185   -15543289      -15543289       955.79191     -15542333      -143.45819     -143.32396     -142.4216       0.18287496    -0.03594105    -0.23954976     20608.739    
   3063000   320.9747       1.5315         0.014528071    0.014510985    0.014422024   -142.97584      1904.7696      1904.7696      1904.7696      6.9107841e+09  0.096600923   -15534882      -15534882       955.80785     -15533927      -143.38092     -143.21229     -142.33431      0.17987448    -0.019178646   -0.23509275     20327.692    
   3064000   320.98403      1.532          0.014518514    0.014499941    0.014410585   -142.87043      1905.1458      1905.1458      1905.1458      6.9148798e+09  0.096543706   -15526478      -15526478       955.83562     -15525522      -143.2866      -143.10329     -142.22142      0.18521287    -0.010906366   -0.2274122      20393.789    
   3065000   320.99601      1.5325         0.01450593     0.014488232    0.014397384   -142.74709      1905.522       1905.522       1905.522       6.9189771e+09  0.096486535   -15518077      -15518077       955.87129     -15517121      -143.16239     -142.98773     -142.09113      0.19285427    -0.012002467   -0.23745298     20268.893    
   3066000   321.01072      1.533          0.014493247    0.014476       0.014385204   -142.62505      1905.8982      1905.8982      1905.8982      6.923076e+09   0.096429408   -15509681      -15509681       955.91512     -15508725      -143.03722     -142.86701     -141.97092      0.19374932    -0.0089332235  -0.26423882     20482.299    
   3067000   321.0222       1.5335         0.014482739    0.014464627    0.014375512   -142.52119      1906.2744      1906.2744      1906.2744      6.9271765e+09  0.096372327   -15501288      -15501288       955.94931     -15500332      -142.93352     -142.75477     -141.87527      0.18398127    -0.00047770785 -0.2904579      20330.394    
   3068000   321.0235       1.534          0.014473859    0.014454848    0.014367822   -142.4345       1906.6506      1906.6506      1906.6506      6.9312787e+09  0.096315291   -15492897      -15492897       955.95318     -15491941      -142.84588     -142.65825     -141.79938      0.16539588     0.0082961861  -0.29988461     20475.381    
   3069000   321.00647      1.5345         0.014466517    0.014447909    0.014359943   -142.3616       1907.0268      1907.0268      1907.0268      6.9353825e+09  0.096258299   -15484508      -15484508       955.90246     -15483552      -142.77342     -142.58977     -141.72162      0.15060303     0.010805406   -0.28174777     20181.607    
   3070000   320.96294      1.535          0.01445889     0.014440909    0.014350224   -142.28151      1907.4031      1907.4031      1907.4031      6.9394879e+09  0.096201353   -15476119      -15476119       955.77283     -15475164      -142.69815     -142.52069     -141.6257       0.14894647     0.002741968   -0.24262597     20305.448    
   3071000   320.90089      1.5355         0.014448852    0.014430614    0.014339121   -142.1781       1907.7793      1907.7793      1907.7793      6.9435949e+09  0.096144452   -15467733      -15467733       955.58804     -15466777      -142.59909     -142.41909     -141.51612      0.1624667     -0.0079267032  -0.20823134     20159.576    
   3072000   320.84318      1.536          0.014437913    0.014418179    0.014326999   -142.06132      1908.1555      1908.1555      1908.1555      6.9477035e+09  0.096087595   -15459349      -15459349       955.4162      -15458394      -142.49112     -142.29636     -141.39649      0.18587374    -0.011166562   -0.20513715     20383.81     
   3073000   320.81288      1.5365         0.014427517    0.014406333    0.014314559   -141.94723      1908.5317      1908.5317      1908.5317      6.9518138e+09  0.096030783   -15450970      -15450970       955.32598     -15450015      -142.38852     -142.17945     -141.27371      0.20191757    -0.0069823163  -0.22833678     20209.163    
   3074000   320.81456      1.537          0.014418525    0.014397024    0.01430365    -141.85114      1908.9079      1908.9079      1908.9079      6.9559257e+09  0.095974016   -15442594      -15442594       955.33098     -15441638      -142.29978     -142.08758     -141.16605      0.20253952    -0.0067743603  -0.25474464     20386.202    
   3075000   320.84472      1.5375         0.01441032     0.01438796     0.014294426   -141.76398      1909.2841      1909.2841      1909.2841      6.9600392e+09  0.095917294   -15434219      -15434219       955.42079     -15433264      -142.2188      -141.99812     -141.07501      0.19674713    -0.019309788   -0.26828563     20267.925    
   3076000   320.90414      1.538          0.014401947    0.014377043    0.014286846   -141.67559      1909.6603      1909.6603      1909.6603      6.9641543e+09  0.095860617   -15425847      -15425847       955.59774     -15424891      -142.13616     -141.89038     -141.00021      0.19159596    -0.037434606   -0.27134375     20402.076    
   3077000   320.97916      1.5385         0.014393793    0.014365808    0.014280913   -141.59228      1910.0365      1910.0365      1910.0365      6.968271e+09   0.095803984   -15417476      -15417476       955.82114     -15416520      -142.05569     -141.7795      -140.94166      0.19772908    -0.048934119   -0.27325359     20219.859    
   3078000   321.0316       1.539          0.014386058    0.014355917    0.014273841   -141.51103      1910.4128      1910.4128      1910.4128      6.9723894e+09  0.095747395   -15409107      -15409107       955.97727     -15408151      -141.97935     -141.68189     -140.87186      0.21329969    -0.045650883   -0.27583664     20502.664    
   3079000   321.04544      1.5395         0.01437627     0.014345263    0.014263108   -141.40847      1910.789       1910.789       1910.789       6.9765094e+09  0.095690852   -15400740      -15400740       956.01851     -15399784      -141.88275     -141.57674     -140.76593      0.2224244     -0.028710593   -0.27574383     20204.594    
   3080000   321.04027      1.54           0.014362958    0.014332703    0.014250271   -141.28113      1911.1652      1911.1652      1911.1652      6.980631e+09   0.095634352   -15392377      -15392377       956.00311     -15391421      -141.75137     -141.45278     -140.63924      0.21552093    -0.0077362981  -0.27695427     20487.242    
   3081000   321.00198      1.5405         0.014348498    0.014320533    0.014239891   -141.15938      1911.5414      1911.5414      1911.5414      6.9847542e+09  0.095577898   -15384018      -15384018       955.88908     -15383062      -141.60867     -141.33268     -140.5368       0.18892396     0.0058868013  -0.28117216     20088.971    
   3082000   320.91678      1.541          0.014335095    0.014309679    0.014231989   -141.05358      1911.9176      1911.9176      1911.9176      6.9888791e+09  0.095521487   -15375663      -15375663       955.63536     -15374707      -141.47639     -141.22555     -140.45882      0.1598197      0.0092434488  -0.2833534      20424.171    
   3083000   320.82539      1.5415         0.014323814    0.014299921    0.014223057   -140.95499      1912.2938      1912.2938      1912.2938      6.9930055e+09  0.095465121   -15367310      -15367310       955.36322     -15366354      -141.36506     -141.12925     -140.37066      0.15195256     0.00018357664 -0.28822043     20114.941    
   3084000   320.78157      1.542          0.01431487     0.014291831    0.014212748   -140.86503      1912.67        1912.67        1912.67        6.9971336e+09  0.0954088     -15358959      -15358959       955.23274     -15358004      -141.27678     -141.0494      -140.26892      0.16963948    -0.0228153     -0.29967236     20453.277    
   3085000   320.80917      1.5425         0.014307451    0.014283889    0.0142033     -140.78342      1913.0463      1913.0463      1913.0463      7.0012634e+09  0.095352522   -15350610      -15350610       955.31493     -15349655      -141.20356     -140.97103     -140.17567      0.19394721    -0.042574748   -0.30629161     20207.735    
   3086000   320.88672      1.543          0.014299632    0.014275535    0.014195706   -140.70523      1913.4225      1913.4225      1913.4225      7.0053947e+09  0.095296289   -15342263      -15342263       955.54586     -15341308      -141.12639     -140.88858     -140.10073      0.20759571    -0.050509359   -0.29207248     20358.694    
   3087000   320.97437      1.5435         0.014290672    0.0142675      0.014187836   -140.62343      1913.7987      1913.7987      1913.7987      7.0095277e+09  0.095240101   -15333918      -15333918       955.80686     -15332962      -141.03797     -140.80927     -140.02306      0.2116396     -0.051402186   -0.26853498     20264.758    
   3088000   321.04285      1.544          0.014282521    0.014259217    0.014178576   -140.53891      1914.1749      1914.1749      1914.1749      7.0136623e+09  0.095183956   -15325574      -15325574       956.01077     -15324618      -140.95752     -140.72753     -139.93167      0.2141945     -0.050890058   -0.24810114     20437.848    
   3089000   321.07263      1.5445         0.014274208    0.014249754    0.014168001   -140.44564      1914.5511      1914.5511      1914.5511      7.0177985e+09  0.095127855   -15317232      -15317232       956.09948     -15316276      -140.87548     -140.63414     -139.8273       0.22458849    -0.050244304   -0.23539756     20073.612    
   3090000   321.06128      1.545          0.014265005    0.014239971    0.014157146   -140.34747      1914.9273      1914.9273      1914.9273      7.0219364e+09  0.095071799   -15308893      -15308893       956.06566     -15307937      -140.78465     -140.53759     -139.72017      0.23136656    -0.047719857   -0.23892773     20424.171    
   3091000   321.01904      1.5455         0.014253562    0.014230119    0.014144985   -140.23741      1915.3035      1915.3035      1915.3035      7.0260759e+09  0.095015786   -15300556      -15300556       955.93989     -15299600      -140.67172     -140.44036     -139.60015      0.22585062    -0.033793927   -0.25664092     20278.373    
   3092000   320.98004      1.546          0.014239889    0.014218356    0.014131216   -140.10843      1915.6798      1915.6798      1915.6798      7.030217e+09   0.094959818   -15292224      -15292224       955.82373     -15291268      -140.53678     -140.32427     -139.46426      0.21099133    -0.016487717   -0.27415506     20275.49     
   3093000   320.97044      1.5465         0.014226304    0.014205309    0.01411923    -139.98139      1916.056       1916.056       1916.056       7.0343597e+09  0.094903893   -15283896      -15283896       955.79517     -15282940      -140.40271     -140.1955      -139.34596      0.19575436    -0.0073303155  -0.27636988     20407.401    
   3094000   320.99017      1.547          0.014215282    0.014194241    0.014108805   -139.87442      1916.4322      1916.4322      1916.4322      7.0385041e+09  0.094848013   -15275572      -15275572       955.85392     -15274616      -140.29393     -140.08627     -139.24307      0.19154034    -0.010589444   -0.26993104     20264.608    
   3095000   321.01795      1.5475         0.01420724     0.014187245    0.014099155   -139.79321      1916.8084      1916.8084      1916.8084      7.04265e+09    0.094792176   -15267250      -15267250       955.93665     -15266294      -140.21456     -140.01722     -139.14784      0.19590571    -0.022115036   -0.2658807      20321.441    
   3096000   321.04147      1.548          0.014199474    0.014182554    0.01409141    -139.72675      1917.1846      1917.1846      1917.1846      7.0467977e+09  0.094736383   -15258930      -15258930       956.00667     -15257974      -140.13791     -139.97093     -139.07141      0.19900227    -0.031426257   -0.26463141     20330.199    
   3097000   321.05733      1.5485         0.014191471    0.014175364    0.014085949   -139.6588       1917.5608      1917.5608      1917.5608      7.0509469e+09  0.094680634   -15250610      -15250610       956.05392     -15249654      -140.05892     -139.89996     -139.01751      0.20161932    -0.03748084    -0.25744537     20328.895    
   3098000   321.05725      1.549          0.01418305     0.014165003    0.0140796     -139.57613      1917.937       1917.937       1917.937       7.0550978e+09  0.094624929   -15242291      -15242291       956.05368     -15241335      -139.