LAMMPS (23 Jun 2022 - Update 1)
OMP_NUM_THREADS environment is not set. Defaulting to 1 thread. (src/comm.cpp:98)
  using 1 OpenMP thread(s) per MPI task
###

# Read restart info
read_restart ${read_res}
read_restart ./trial9/9010/equpmf70.res
Reading restart file ...
  restart file = 23 Jun 2022, LAMMPS = 23 Jun 2022
  restoring atom style atomic from restart
  orthogonal box = (1728.5926 1728.5926 1728.5926) to (2271.4074 2271.4074 2271.4074)
  1 by 2 by 2 MPI processor grid
  restoring pair style table from restart
  1000 atoms
  read_restart CPU = 0.025 seconds

# Settings
pair_style table/pgn spline 10941
pair_coeff 1 1 N20e.txt DE_GNP 308 72.9   # 1.35 * r
pair_coeff 2 2 N100e.txt DE_GNP 473.9 111.78
WARNING: 20 of 10941 force values in table DE_GNP are inconsistent with -dE/dr.
WARNING:  Should only be flagged at inflection points (src/pair_table_pgn.cpp:478)
pair_coeff 1 2 mixed_potentiale.txt DE_GNP 391.2 92.95
WARNING: 1564 of 10941 force values in table DE_GNP are inconsistent with -dE/dr.
WARNING:  Should only be flagged at inflection points (src/pair_table_pgn.cpp:478)

# Neighbor list
neighbor 2.0 bin
neigh_modify delay 0 every 1 check no once yes

# Temperature
variable T equal ${Temp}
variable T equal 300

# Deformation
reset_timestep 0
variable tmp equal "lx"
variable L0 equal ${tmp}
variable L0 equal 542.8148291357
variable strain equal "(lx - v_L0)/v_L0"
variable stp equal "step"
variable tmpe equal "temp"
variable p1 equal "v_strain"
variable p2 equal "-pxx*1.01325/10000"
variable p3 equal "-pyy*1.01325/10000"
variable p4 equal "-pzz*1.01325/10000"
variable p5 equal "lx"
variable p6 equal "ly"
variable p7 equal "lz"
variable p8 equal "press"
variable p9 equal "epair"
variable p10 equal "etotal"

# Thermo
thermo_style custom step temp v_p1 v_p2 v_p3 v_p4 press lx ly lz vol density epair pe ke etotal pxx pyy pzz pxy pxz pyz spcpu
thermo ${ts_save}
thermo 1000

# Dump
# dump 1 all custom 2000 ./${N20}${N100}/tensile/trajectory/trajectory_${usic}_${trial}_*.tensile.custom id type x y z ix iy iz
# dump_modify 1 sort id
dump 2 all cfg 50000 ./trial${trial}/${N20}${N100}/tensile/trajectory/dumpten.tens_${usic}_${trial}_*.cfg mass type xs ys zs fx fy fz
dump 2 all cfg 50000 ./trial9/${N20}${N100}/tensile/trajectory/dumpten.tens_${usic}_${trial}_*.cfg mass type xs ys zs fx fy fz
dump 2 all cfg 50000 ./trial9/90${N100}/tensile/trajectory/dumpten.tens_${usic}_${trial}_*.cfg mass type xs ys zs fx fy fz
dump 2 all cfg 50000 ./trial9/9010/tensile/trajectory/dumpten.tens_${usic}_${trial}_*.cfg mass type xs ys zs fx fy fz
dump 2 all cfg 50000 ./trial9/9010/tensile/trajectory/dumpten.tens_1_${trial}_*.cfg mass type xs ys zs fx fy fz
dump 2 all cfg 50000 ./trial9/9010/tensile/trajectory/dumpten.tens_1_9_*.cfg mass type xs ys zs fx fy fz
dump_modify 2 element N20 N100

fix 1 all nvt temp ${T} ${T} 100
fix 1 all nvt temp 300 ${T} 100
fix 1 all nvt temp 300 300 100
fix 2 all deform 1 x erate ${strain_rate} y erate ${strain_rate} z erate ${strain_rate} units box
fix 2 all deform 1 x erate 5e-6 y erate ${strain_rate} z erate ${strain_rate} units box
fix 2 all deform 1 x erate 5e-6 y erate 5e-6 z erate ${strain_rate} units box
fix 2 all deform 1 x erate 5e-6 y erate 5e-6 z erate 5e-6 units box
fix             def1 all print ${ts_save} "${p1} ${p2} ${p3} ${p4}" file ./tensile/${trial}/tensile${N20}${N100}_${usic}_${trial}.txt screen no
fix             def1 all print 1000 "${p1} ${p2} ${p3} ${p4}" file ./tensile/${trial}/tensile${N20}${N100}_${usic}_${trial}.txt screen no
fix             def1 all print 1000 "${p1} ${p2} ${p3} ${p4}" file ./tensile/9/tensile${N20}${N100}_${usic}_${trial}.txt screen no
fix             def1 all print 1000 "${p1} ${p2} ${p3} ${p4}" file ./tensile/9/tensile90${N100}_${usic}_${trial}.txt screen no
fix             def1 all print 1000 "${p1} ${p2} ${p3} ${p4}" file ./tensile/9/tensile9010_${usic}_${trial}.txt screen no
fix             def1 all print 1000 "${p1} ${p2} ${p3} ${p4}" file ./tensile/9/tensile9010_1_${trial}.txt screen no
fix             def1 all print 1000 "${p1} ${p2} ${p3} ${p4}" file ./tensile/9/tensile9010_1_9.txt screen no

timestep       		${ts}
timestep       		0.1
run				${steps_tensile}
run				6000000
Generated 0 of 1 mixed pair_coeff terms from geometric mixing rule
Unused restart file global fix info:
  fix style: npt, fix ID: 5
Neighbor list info ...
  update every 1 steps, delay 0 steps, check no
  max neighbors/atom: 2000, page size: 100000
  master list distance cutoff = 113.78
  ghost atom cutoff = 113.78
  binsize = 56.89, bins = 10 10 10
  1 neighbor lists, perpetual/occasional/extra = 1 0 0
  (1) pair table/pgn, perpetual
      attributes: half, newton on
      pair build: half/bin/atomonly/newton
      stencil: half/bin/3d
      bin: standard
Per MPI rank memory allocation (min/avg/max) = 3.86 | 3.86 | 3.86 Mbytes
   Step          Temp           v_p1           v_p2           v_p3           v_p4          Press            Lx             Ly             Lz           Volume        Density         E_pair         PotEng         KinEng         TotEng          Pxx            Pyy            Pzz            Pxy            Pxz            Pyz           S/CPU     
         0   297.13596     -6.2831834e-16  0.0080521589   0.011248631    0.0079704478  -89.715395      542.81483      542.81483      542.81483      1.5993927e+08  2.5111794     -7951494.4     -7951494.4      884.82016     -7950609.5     -79.468629     -111.01535     -78.662203     -6.1620518      45.043348     -24.062922      0            
      1000   330.61806      0.0005         0.018855452    0.02167853     0.018408451   -193.90553      543.08624      543.08624      543.08624      1.601793e+08   2.5074164     -7951091.7     -7951091.7      984.52412     -7950107.2     -186.08884     -213.95046     -181.67729     -5.8487388      41.574071     -27.508667      17677.557    
      2000   371.7595       0.001          0.027439229    0.030028759    0.027094936   -278.19039      543.35764      543.35764      543.35764      1.6041957e+08  2.503661      -7950487.8     -7950487.8      1107.0363     -7949380.8     -270.80414     -296.36081     -267.40623     -5.1107404      39.307014     -29.689992      17596.891    
      3000   409.02574      0.0015         0.033322647    0.036221541    0.033403628   -338.67198      543.62905      543.62905      543.62905      1.6066008e+08  2.499913      -7949735.8     -7949735.8      1218.0088     -7948517.8     -328.86895     -357.47881     -329.66818     -5.4587269      39.688216     -26.831941      17837.433    
      4000   432.7437       0.002          0.038830576    0.042088229    0.039066894   -394.72226      543.90046      543.90046      543.90046      1.6090083e+08  2.4961724     -7948844.7     -7948844.7      1288.6368     -7947556.1     -383.22799     -415.37852     -385.56026     -6.2839607      40.060862     -22.452683      17719.782    
      5000   441.5048       0.0025         0.045207742    0.048585996    0.045563747   -458.45048      544.17187      544.17187      544.17187      1.6114182e+08  2.4924394     -7947765       -7947765        1314.7259     -7946450.3     -446.16572     -479.5065      -449.67922     -6.1292587      39.608753     -20.660584      17849.989    
      6000   439.31012      0.003          0.052467168    0.055497674    0.05294572    -529.35459      544.44327      544.44327      544.44327      1.6138305e+08  2.4887138     -7946443.2     -7946443.2      1308.1905     -7945135       -517.81069     -547.71945     -522.53363     -4.4092546      38.564734     -19.497724      17810.919    
      7000   430.89096      0.0035         0.060501678    0.062589703    0.060772303   -604.86449      544.71468      544.71468      544.71468      1.6162452e+08  2.4849956     -7944863.6     -7944863.6      1283.1197     -7943580.5     -597.10513     -617.71234     -599.77599     -1.0189189      36.807659     -18.706707      17733.377    
      8000   419.93418      0.004          0.068304025    0.07011351     0.068229383   -679.8155       544.98609      544.98609      544.98609      1.6186623e+08  2.4812848     -7943012.3     -7943012.3      1250.4923     -7941761.8     -674.10832     -691.96654     -673.37166      0.70636448     34.871764     -19.830057      17955.055    
      9000   408.9815       0.0045         0.075337164    0.077734146    0.075050874   -750.46363      545.2575       545.2575       545.2575       1.6210818e+08  2.4775814     -7940886.6     -7940886.6      1217.8771     -7939668.7     -743.52        -767.17637     -740.69453     -0.14853567     32.256898     -19.298417      17725.069    
     10000   399.18486      0.005          0.081840363    0.084512813    0.081623953   -815.78133      545.5289       545.5289       545.5289       1.6235038e+08  2.4738853     -7938503.3     -7938503.3      1188.7044     -7937314.6     -807.70159     -834.07662     -805.56579     -1.2068033      28.577783     -17.53583       18032.282    
     11000   391.04329      0.0055         0.087909483    0.090364594    0.088124698   -876.38383      545.80031      545.80031      545.80031      1.6259281e+08  2.4701966     -7935882.8     -7935882.8      1164.4601     -7934718.3     -867.59914     -891.8292      -869.72315     -1.5071829      24.800733     -16.723284      16413.147    
     12000   384.47081      0.006          0.093804677    0.09601295     0.094414164   -935.04989      546.07172      546.07172      546.07172      1.6283549e+08  2.4665153     -7933048.4     -7933048.4      1144.8884     -7931903.5     -925.78018     -947.57414     -931.79535     -0.53414425     23.033055     -16.27748       17803.055    
     13000   379.15534      0.0065         0.099950172    0.10180399     0.10032933    -993.77742      546.34313      546.34313      546.34313      1.630784e+08   2.4628412     -7930003.1     -7930003.1      1129.0599     -7928874       -986.4315      -1004.7273     -990.17347      0.10333074     24.121326     -15.012948      17943.657    
     14000   374.62089      0.007          0.10642344     0.10800029     0.10644702    -1055.5827      546.61453      546.61453      546.61453      1.6332156e+08  2.4591744     -7926728.4     -7926728.4      1115.557      -7925612.8     -1050.3177     -1065.88       -1050.5504     -0.93256543     25.72354      -13.837946      17473.624    
     15000   370.14347      0.0075         0.11280412     0.11449579     0.11282195    -1118.9139      546.88594      546.88594      546.88594      1.6356496e+08  2.455515      -7923214.6     -7923214.6      1102.2241     -7922112.3     -1113.2901     -1129.9856     -1113.4661     -0.88955946     27.103781     -14.037674      17605.045    
     16000   366.06736      0.008          0.11850877     0.12077584     0.1187468     -1177.8318      547.15735      547.15735      547.15735      1.638086e+08   2.4518627     -7919474.3     -7919474.3      1090.0861     -7918384.2     -1169.5906     -1191.9649     -1171.9398      1.543211       28.692397     -14.712085      17742.616    
     17000   363.3268       0.0085         0.12343693     0.12648422     0.12400072    -1230.1073      547.42876      547.42876      547.42876      1.6405249e+08  2.4482177     -7915530.6     -7915530.6      1081.9252     -7914448.6     -1218.2278     -1248.3022     -1223.792       4.0980988      28.5452       -13.462803      17992.272    
     18000   362.33531      0.009          0.12801374     0.13158187     0.12911032    -1278.7431      547.70016      547.70016      547.70016      1.6429661e+08  2.44458       -7911400.2     -7911400.2      1078.9727     -7910321.2     -1263.3974     -1298.6121     -1274.2198      4.6240945      25.29441      -12.046399      17748.556    
     19000   362.3793       0.0095         0.13332438     0.13632416     0.1343099     -1328.9199      547.97157      547.97157      547.97157      1.6454098e+08  2.4409494     -7907084.2     -7907084.2      1079.1037     -7906005.1     -1315.8093     -1345.4148     -1325.5357      4.6058137      19.883118     -12.365705      17821.171    
     20000   362.49323      0.01           0.13900381     0.14078379     0.13925773    -1378.5519      548.24298      548.24298      548.24298      1.6478559e+08  2.437326      -7902593.2     -7902593.2      1079.4429     -7901513.7     -1371.8609     -1389.428      -1374.3669      4.2469996      14.861922     -12.353203      17886.87     
     21000   362.62765      0.0105         0.14390504     0.14482102     0.14413411    -1423.9993      548.51438      548.51438      548.51438      1.6503044e+08  2.4337098     -7897936.6     -7897936.6      1079.8432     -7896856.7     -1420.2323     -1429.2724     -1422.4931      2.6403923      14.25701      -9.9657468      17868.689    
     22000   363.04988      0.011          0.14814202     0.14902262     0.14902892    -1467.8627      548.78579      548.78579      548.78579      1.6527554e+08  2.4301008     -7893113.8     -7893113.8      1081.1006     -7892032.7     -1462.0481     -1470.7389     -1470.8011      1.4176331      17.036369     -7.3361513      17916.129    
     23000   364.17747      0.0115         0.1523672      0.15389334     0.1538258     -1513.5664      549.0572       549.0572       549.0572       1.6552087e+08  2.4264988     -7888127.8     -7888127.8      1084.4583     -7887043.4     -1503.7474     -1518.8092     -1518.1426      1.9729948      17.880415     -7.1883259      17770.892    
     24000   365.53394      0.012          0.15719836     0.15940989     0.15852494    -1563.0667      549.32861      549.32861      549.32861      1.6576645e+08  2.422904      -7882973.7     -7882973.7      1088.4977     -7881885.2     -1551.4271     -1573.2533     -1564.5195      3.8748394      15.486264     -7.4248727      17900.4      
     25000   367.23516      0.0125         0.16240599     0.16470045     0.16294317    -1612.1379      549.60001      549.60001      549.60001      1.6601228e+08  2.4193163     -7877643.6     -7877643.6      1093.5636     -7876550.1     -1602.8225     -1625.467      -1608.1241      6.2518407      13.127532     -5.495847       17822.467    
     26000   369.46616      0.013          0.167291       0.16923837     0.16733185    -1657.5746      549.87142      549.87142      549.87142      1.6625834e+08  2.4157357     -7872147.6     -7872147.6      1100.2071     -7871047.4     -1651.0338     -1670.2529     -1651.437       8.5947463      11.622213     -4.5622871      17898.806    
     27000   371.55511      0.0135         0.17161514     0.1733742      0.17170873    -1699.8045      550.14283      550.14283      550.14283      1.6650465e+08  2.4121621     -7866493.8     -7866493.8      1106.4277     -7865387.4     -1693.7098     -1711.0704     -1694.6334      9.5666232      9.6616374     -5.0829023      17769.705    
     28000   373.04488      0.014          0.17503894     0.17722647     0.17560307    -1736.5523      550.41424      550.41424      550.41424      1.667512e+08   2.4085956     -7860698.1     -7860698.1      1110.8639     -7859587.2     -1727.5001     -1749.0893     -1733.0676      8.0083757      10.202812     -5.4203077      17678.883    
     29000   374.57416      0.0145         0.17794057     0.18086555     0.17881268    -1768.6284      550.68564      550.68564      550.68564      1.66998e+08    2.4050361     -7854779.5     -7854779.5      1115.4179     -7853664       -1756.1369     -1785.0042     -1764.744       6.091418       12.380644     -5.7336362      18013.634    
     30000   376.73574      0.015          0.18126109     0.1842739      0.18181382    -1800.6376      550.95705      550.95705      550.95705      1.6724504e+08  2.4014836     -7848748.5     -7848748.5      1121.8547     -7847626.6     -1788.9079     -1818.642      -1794.3629      6.0409788      11.653648     -4.1066239      17750.873    
     31000   379.11741      0.0155         0.18534061     0.1875676      0.18547138    -1836.926       551.22846      551.22846      551.22846      1.6749232e+08  2.3979381     -7842594       -7842594        1128.9469     -7841465       -1829.1696     -1851.1483     -1830.4602      6.5739775      8.5024035     -1.5668454      17938.437    
     32000   381.00791      0.016          0.18974074     0.19104284     0.18965103    -1876.584       551.49987      551.49987      551.49987      1.6773984e+08  2.3943996     -7836303.6     -7836303.6      1134.5765     -7835169       -1872.5956     -1885.4462     -1871.7102      5.830585       5.6048121     -1.1663836      17558.95     
     33000   382.75834      0.0165         0.19369807     0.19471949     0.1935964     -1914.6771      551.77127      551.77127      551.77127      1.6798761e+08  2.390868      -7829872.6     -7829872.6      1139.789      -7828732.8     -1911.6513     -1921.732      -1910.6479      4.8711519      5.5058643     -2.5263703      17780.611    
     34000   385.36472      0.017          0.19719794     0.19831047     0.19703797    -1949.326       552.04268      552.04268      552.04268      1.6823563e+08  2.3873434     -7823313       -7823313        1147.5503     -7822165.4     -1946.1924     -1957.1721     -1944.6136      6.9106462      8.752766      -2.7169566      17768.073    
     35000   388.67454      0.0175         0.20034407     0.20169283     0.20040154    -1981.8684      552.31409      552.31409      552.31409      1.6848388e+08  2.3838257     -7816645       -7816645        1157.4064     -7815487.6     -1977.2423     -1990.5534     -1977.8094      10.562065      11.918942     -1.4128431      17893.15     
     36000   391.36889      0.018          0.20317552     0.20500061     0.20388108    -2013.5117      552.5855       552.5855       552.5855       1.6873238e+08  2.3803149     -7809868.8     -7809868.8      1165.4297     -7808703.4     -2005.1864     -2023.1987     -2012.1498      12.565991      12.166404     -0.84784095     17861.765    
     37000   393.15695      0.0185         0.20562488     0.20803422     0.20698398    -2041.757       552.8569       552.8569       552.8569       1.6898113e+08  2.376811      -7802979.1     -7802979.1      1170.7542     -7801808.3     -2029.3598     -2053.1381     -2042.773       11.32892       9.4566255     -1.4966516      17750.892    
     38000   394.55602      0.019          0.20809613     0.2108201      0.2096614     -2067.8596      553.12831      553.12831      553.12831      1.6923012e+08  2.373314      -7795980.3     -7795980.3      1174.9204     -7794805.4     -2053.7491     -2080.6326     -2069.1971      7.934241       6.1581016      1.1985937      17970.479    
     39000   395.69815      0.0195         0.21092939     0.21338699     0.21196404    -2093.1999      553.39972      553.39972      553.39972      1.6947935e+08  2.3698238     -7788884.4     -7788884.4      1178.3215     -7787706.1     -2081.7113     -2105.9659     -2091.9225      5.9136484      4.1394809      5.1475064      17779.609    
     40000   396.92551      0.02           0.21374517     0.21569209     0.21424832    -2117.5609      553.67113      553.67113      553.67113      1.6972883e+08  2.3663405     -7781700       -7781700        1181.9764     -7780518       -2109.5008     -2128.7154     -2114.4665      7.4516878      3.6537392      5.8254526      17876.932    
     41000   398.66432      0.0205         0.21680896     0.21839375     0.21685678    -2145.1089      553.94253      553.94253      553.94253      1.6997856e+08  2.362864      -7774423.1     -7774423.1      1187.1543     -7773236       -2139.7381     -2155.3787     -2140.21        11.106606      3.9629112      3.3291687      17854.48     
     42000   400.45565      0.021          0.22007601     0.22151591     0.21966631    -2175.3705      554.21394      554.21394      554.21394      1.7022853e+08  2.3593943     -7767046.1     -7767046.1      1192.4885     -7765853.6     -2171.9813     -2186.1921     -2167.938       12.960922      5.0453936      0.7488943      17943.387    
     43000   402.38563      0.0215         0.22296818     0.22432958     0.22255955    -2203.6592      554.48535      554.48535      554.48535      1.7047874e+08  2.3559314     -7759561.3     -7759561.3      1198.2357     -7758363.1     -2200.5248     -2213.9608     -2196.492       10.824033      6.8324498      1.0398563      17832.86     
     44000   404.26294      0.022          0.22503517     0.22669122     0.22549664    -2227.8905      554.75676      554.75676      554.75676      1.707292e+08   2.3524752     -7751981.4     -7751981.4      1203.826      -7750777.6     -2220.9245     -2237.2684     -2225.4788      9.5509447      6.8857473      4.6797211      17761.186    
     45000   406.16005      0.0225         0.22649704     0.22857601     0.2277167     -2246.2037      555.02816      555.02816      555.02816      1.709799e+08   2.3490259     -7744330.6     -7744330.6      1209.4753     -7743121.2     -2235.352      -2255.8699     -2247.3891      9.894474       3.7253657      7.6600659      17995.148    
     46000   407.95038      0.023          0.22837362     0.23066405     0.22958632    -2265.3968      555.29957      555.29957      555.29957      1.7123085e+08  2.3455832     -7736608.8     -7736608.8      1214.8066     -7735394       -2253.8723     -2276.4772     -2265.8408      9.4567623      0.020954158    7.7433727      17748.42     
     47000   409.07876      0.0235         0.2308149      0.23305689     0.23182262    -2288.6567      555.57098      555.57098      555.57098      1.7148204e+08  2.3421473     -7728800.6     -7728800.6      1218.1667     -7727582.4     -2277.966      -2300.0927     -2287.9113      10.004682     -0.15364309     6.648017       17930.671    
     48000   409.94685      0.024          0.23341489     0.23514006     0.23392315    -2310.9733      555.84239      555.84239      555.84239      1.7173348e+08  2.3387181     -7720904       -7720904        1220.7517     -7719683.3     -2303.6258     -2320.652      -2308.642       11.813755      1.4032635      5.429788       17845.455    
     49000   410.88972      0.0245         0.23564611     0.23697486     0.23570489    -2330.2109      556.11379      556.11379      556.11379      1.7198517e+08  2.3352956     -7712928.7     -7712928.7      1223.5594     -7711705.1     -2325.6463     -2338.76       -2326.2264      13.488483     -0.067249952    5.1947991      17893.602    
     50000   411.99948      0.025          0.23702374     0.23875052     0.2372422     -2345.6418      556.3852       556.3852       556.3852       1.722371e+08   2.3318798     -7704892.1     -7704892.1      1226.8641     -7703665.2     -2339.2424     -2356.2845     -2341.3984      11.892001     -1.2522584      7.4056491      16914.587    
     51000   413.6368       0.0255         0.23824509     0.2402491      0.23869144    -2359.3573      556.65661      556.65661      556.65661      1.7248928e+08  2.3284706     -7696810.3     -7696810.3      1231.7398     -7695578.6     -2351.2962     -2371.0743     -2355.7014      9.7415787      0.3642521      9.5713008      17930.007    
     52000   415.09319      0.026          0.24028053     0.24173459     0.24067219    -2377.4564      556.92801      556.92801      556.92801      1.727417e+08   2.325068      -7688674.5     -7688674.5      1236.0766     -7687438.5     -2371.3845     -2385.7349     -2375.2499      8.6812358      2.2557874      9.5005234      17708.503    
     53000   415.93316      0.0265         0.24236001     0.24351247     0.24285517    -2397.3276      557.19942      557.19942      557.19942      1.7299437e+08  2.3216721     -7680456.3     -7680456.3      1238.5779     -7679217.8     -2391.9073     -2403.2813     -2396.7941      8.0198162      4.3641981      7.897392       17419.041    
     54000   416.56368      0.027          0.243836       0.24547524     0.24465557    -2414.563       557.47083      557.47083      557.47083      1.7324729e+08  2.3182828     -7672150.5     -7672150.5      1240.4555     -7670910       -2406.4742     -2422.6522     -2414.5627      7.6499704      3.3302772      6.299787       17902.671    
     55000   417.75519      0.0275         0.24487857     0.24736646     0.24592849    -2428.4021      557.74224      557.74224      557.74224      1.7350045e+08  2.3149001     -7663792.4     -7663792.4      1244.0036     -7662548.4     -2416.7636     -2441.3172     -2427.1255      8.7200297      1.4259935      4.9269475      17733.584    
     56000   419.38233      0.028          0.24628915     0.24899603     0.24724607    -2442.7379      558.01364      558.01364      558.01364      1.7375386e+08  2.311524      -7655393.8     -7655393.8      1248.849      -7654144.9     -2430.6849     -2457.3998     -2440.129       11.534475      0.7608466      4.8531741      17948.918    
     57000   420.37237      0.0285         0.24817078     0.25004981     0.24865403    -2457.0265      558.28505      558.28505      558.28505      1.7400751e+08  2.3081544     -7646939.7     -7646939.7      1251.7971     -7645687.9     -2449.2552     -2467.7998     -2454.0244      13.570652     -0.36667398     9.1556743      17778.037    
     58000   421.07888      0.029          0.24956324     0.25075354     0.24955799    -2466.8962      558.55646      558.55646      558.55646      1.7426141e+08  2.3047914     -7638439.4     -7638439.4      1253.901      -7637185.5     -2462.9977     -2474.745      -2462.9458      14.38163      -0.99773776     13.781957      17909.754    
     59000   421.70741      0.0295         0.25026055     0.25151638     0.25056992    -2475.0287      558.82787      558.82787      558.82787      1.7451556e+08  2.3014349     -7629904.5     -7629904.5      1255.7726     -7628648.8     -2469.8796     -2482.2737     -2472.9328      14.005636     -1.5508039      13.58749       17709.482    
     60000   422.02907      0.03           0.25080035     0.25230224     0.25195681    -2483.9523      559.09927      559.09927      559.09927      1.7476996e+08  2.2980849     -7621327       -7621327        1256.7305     -7620070.3     -2475.207      -2490.0295     -2486.6204      12.484982     -3.269315       10.401442      17796.3      
     61000   422.39564      0.0305         0.2518194      0.25325108     0.25331818    -2494.9047      559.37068      559.37068      559.37068      1.750246e+08   2.2947414     -7612697       -7612697        1257.8221     -7611439.1     -2485.2643     -2499.3938     -2500.056       9.0116965     -3.3805021      6.6385689      16816.373    
     62000   423.14952      0.031          0.25333972     0.25459336     0.25425371    -2507.3996      559.64209      559.64209      559.64209      1.7527949e+08  2.2914045     -7604011.2     -7604011.2      1260.067      -7602751.1     -2500.2686     -2512.6411     -2509.289       7.1746052     -0.16789933     5.5458376      17746.538    
     63000   424.31885      0.0315         0.25454192     0.25572339     0.25470004    -2516.5403      559.9135       559.9135       559.9135       1.7553463e+08  2.2880739     -7595287.5     -7595287.5      1263.5491     -7594024       -2512.1335     -2523.7936     -2513.6939      7.9560279      2.3887141      7.4088368      17840.986    
     64000   425.24229      0.032          0.25506588     0.25649487     0.2551353     -2522.2339      560.1849       560.1849       560.1849       1.7579001e+08  2.2847498     -7586553.5     -7586553.5      1266.2989     -7585287.2     -2517.3045     -2531.4075     -2517.9896      8.5558325      1.6747081      8.6100379      17562.053    
     65000   425.23541      0.0325         0.25516096     0.25711965     0.25574998    -2526.6242      560.45631      560.45631      560.45631      1.7604565e+08  2.2814322     -7577803       -7577803        1266.2784     -7576536.7     -2518.2429     -2537.5736     -2524.0561      8.8432854     -1.1371394      7.7828836      17943.121    
     66000   424.63631      0.033          0.2552954      0.25779355     0.25646879    -2531.6482      560.72772      560.72772      560.72772      1.7630153e+08  2.278121      -7569015.4     -7569015.4      1264.4944     -7567750.9     -2519.5697     -2544.2246     -2531.1502      9.4680389     -1.292549       5.866035       17721.165    
     67000   424.4672       0.0335         0.25593245     0.25838038     0.2569706     -2537.3252      560.99913      560.99913      560.99913      1.7655766e+08  2.2748162     -7560186.9     -7560186.9      1263.9909     -7558922.9     -2525.8569     -2550.0161     -2536.1026      9.6930964      0.87944845     6.1755228      17771.286    
     68000   425.20332      0.034          0.25697444     0.25888854     0.25757061    -2544.3987      561.27053      561.27053      561.27053      1.7681403e+08  2.2715177     -7551324       -7551324        1266.1829     -7550057.8     -2536.1405     -2555.0312     -2542.0243      9.8570338      1.9896936      8.699837       17634.764    
     69000   426.20827      0.0345         0.25792794     0.25937188     0.25839769    -2551.8464      561.54194      561.54194      561.54194      1.7707066e+08  2.2682257     -7542438.2     -7542438.2      1269.1755     -7541169.1     -2545.5508     -2559.8015     -2550.187       9.977246      -0.54065507     11.388876      17690.488    
     70000   426.97137      0.035          0.25833233     0.25963593     0.25910025    -2556.3566      561.81335      561.81335      561.81335      1.7732753e+08  2.26494       -7533541.6     -7533541.6      1271.4478     -7532270.2     -2549.5419     -2562.4074     -2557.1206      8.5005217     -4.1341628      11.593562      17805.906    
     71000   427.48749      0.0355         0.25830067     0.25977512     0.25951563    -2558.0769      562.08476      562.08476      562.08476      1.7758465e+08  2.2616606     -7524626.5     -7524626.5      1272.9848     -7523353.5     -2549.2294     -2563.7811     -2561.2202      7.3369575     -5.3604317      9.8268186      17796.975    
     72000   428.06524      0.036          0.2580902      0.25991688     0.25918686    -2556.7693      562.35616      562.35616      562.35616      1.7784202e+08  2.2583876     -7515696.3     -7515696.3      1274.7052     -7514421.6     -2547.1523     -2565.1801     -2557.9754      6.8234202     -3.8883751      8.7569006      17824.379    
     73000   428.45736      0.0365         0.25806337     0.26012311     0.25872267    -2555.8324      562.62757      562.62757      562.62757      1.7809964e+08  2.2551209     -7506763.9     -7506763.9      1275.8728     -7505488       -2546.8875     -2567.2155     -2553.3943      8.1850987     -0.85629245     8.8620819      17753.177    
     74000   428.04233      0.037          0.2580964      0.26021415     0.25894701    -2556.9786      562.89898      562.89898      562.89898      1.783575e+08   2.2518605     -7497825.9     -7497825.9      1274.637      -7496551.3     -2547.2134     -2568.114      -2555.6083      10.671783      2.7078324      8.7423395      17830.85     
     75000   427.43154      0.0375         0.25811164     0.26009344     0.25942006    -2558.1878      563.17039      563.17039      563.17039      1.7861562e+08  2.2486063     -7488868.6     -7488868.6      1272.8181     -7487595.8     -2547.3638     -2566.9227     -2560.277       11.413402      3.8596609      8.2637856      17689.572    
     76000   427.35745      0.038          0.25813338     0.25989285     0.25977755    -2558.7755      563.44179      563.44179      563.44179      1.7887398e+08  2.2453585     -7479898.5     -7479898.5      1272.5975     -7478625.9     -2547.5784     -2564.943      -2563.8051      10.844855      2.3526271      9.1813305      17786.525    
     77000   427.77656      0.0385         0.25794998     0.25973563     0.25987092    -2557.9621      563.7132       563.7132       563.7132       1.7913259e+08  2.2421169     -7470929.3     -7470929.3      1273.8455     -7469655.5     -2545.7683     -2563.3914     -2564.7266      10.758769      0.00040055223  9.6873094      17821.845    
     78000   427.78136      0.039          0.25818821     0.26004939     0.25967413    -2559.1306      563.98461      563.98461      563.98461      1.7939146e+08  2.2388815     -7461957.4     -7461957.4      1273.8598     -7460683.6     -2548.1195     -2566.488      -2562.7844      9.5690262     -2.5664502      6.6124312      17772.373    
     79000   427.12404      0.0395         0.25851043     0.26028343     0.25937913    -2559.9901      564.25601      564.25601      564.25601      1.7965057e+08  2.2356523     -7452976.3     -7452976.3      1271.9025     -7451704.4     -2551.2996     -2568.7977     -2559.873       7.1863651     -4.5657122      4.3469311      17817.085    
     80000   426.91848      0.04           0.25820694     0.26002565     0.25909111    -2557.1962      564.52742      564.52742      564.52742      1.7990993e+08  2.2324294     -7443984.8     -7443984.8      1271.2903     -7442713.5     -2548.3044     -2566.2537     -2557.0305      5.0991627     -2.925624       6.1324991      17653.338    
     81000   427.6079       0.0405         0.25731884     0.2595953      0.25878858    -2551.8635      564.79883      564.79883      564.79883      1.8016954e+08  2.2292126     -7434995.2     -7434995.2      1273.3433     -7433721.8     -2539.5395     -2562.0064     -2554.0447      4.0463738     -0.50551711     8.657334       17842.412    
     82000   428.46892      0.041          0.25672889     0.25898997     0.25859158    -2547.2833      565.07024      565.07024      565.07024      1.804294e+08   2.2260021     -7426011.7     -7426011.7      1275.9073     -7424735.8     -2533.7171     -2556.0323     -2552.1004      4.5052478     -1.5496281      7.6132916      17743.5      
     83000   428.60135      0.0415         0.25689413     0.25826457     0.25837418    -2544.7253      565.34164      565.34164      565.34164      1.8068951e+08  2.2227976     -7417035.9     -7417035.9      1276.3016     -7415759.6     -2535.3479     -2548.8731     -2549.9549      6.9683893     -2.5804674      5.4648473      17948.299    
     84000   427.91979      0.042          0.25666446     0.2575728      0.2578309     -2539.9068      565.61305      565.61305      565.61305      1.8094987e+08  2.2195994     -7408081.7     -7408081.7      1274.2721     -7406807.4     -2533.0813     -2542.0459     -2544.5932      9.6540463     -1.5845606      6.5001064      17675.485    
     85000   427.03065      0.0425         0.25549419     0.25692751     0.25679609    -2530.5298      565.88446      565.88446      565.88446      1.8121048e+08  2.2164072     -7399155.6     -7399155.6      1271.6244     -7397884       -2521.5316     -2535.6773     -2534.3804      10.557873     -0.41747938     8.3842358      17772.979    
     86000   426.46119      0.043          0.25417292     0.25621013     0.25572159    -2520.2883      566.15587      566.15587      566.15587      1.8147134e+08  2.2132212     -7390252.6     -7390252.6      1269.9286     -7388982.7     -2508.4917     -2528.5974     -2523.7759      10.440397     -0.34363039     8.2304008      17760.585    
     87000   425.96023      0.0435         0.25348249     0.25560645     0.25523636    -2514.4347      566.42727      566.42727      566.42727      1.8173245e+08  2.2100413     -7381359.9     -7381359.9      1268.4368     -7380091.5     -2501.6777     -2522.6395     -2518.987       9.101712      -0.7396724      7.1382565      17497.616    
     88000   425.26767      0.044          0.2533863      0.25522874     0.25488712    -2511.7268      566.69868      566.69868      566.69868      1.8199381e+08  2.2068675     -7372465.9     -7372465.9      1266.3745     -7371199.5     -2500.7284     -2518.9118     -2515.5403      6.34116       -0.42111126     6.272552       17865.197    
     89000   425.12203      0.0445         0.25332508     0.25476725     0.25438265    -2508.3476      566.97009      566.97009      566.97009      1.8225542e+08  2.2036997     -7363570.8     -7363570.8      1265.9408     -7362304.9     -2500.1241     -2514.3572     -2510.5616      4.22403       -0.42067502     6.7922797      17776.164    
     90000   425.76546      0.045          0.25267341     0.25405149     0.25405376    -2502.7672      567.2415       567.2415       567.2415       1.8251728e+08  2.200538      -7354696.3     -7354696.3      1267.8568     -7353428.4     -2493.6927     -2507.2932     -2507.3157      4.8073203      0.6728697      8.7156097      17931.259    
     91000   426.64871      0.0455         0.25165616     0.25313216     0.25364052    -2495.0369      567.5129       567.5129       567.5129       1.8277939e+08  2.1973824     -7345855       -7345855        1270.487      -7344584.5     -2483.6532     -2498.2202     -2503.2373      5.8637772      0.89133285     8.5131616      17836.983    
     92000   426.44742      0.046          0.25093132     0.25230073     0.25287429    -2487.3965      567.78431      567.78431      567.78431      1.8304175e+08  2.1942328     -7337033.1     -7337033.1      1269.8876     -7335763.2     -2476.4996     -2490.0146     -2495.6752      6.3118573     -1.4216958      5.4695023      17791.875    
     93000   424.63393      0.0465         0.25030444     0.25152503     0.25143155    -2478.0361      568.05572      568.05572      568.05572      1.8330437e+08  2.1910892     -7328226.9     -7328226.9      1264.4873     -7326962.4     -2470.3128     -2482.359      -2481.4365      6.4991768     -3.5203799      2.4956292      17923.912    
     94000   422.753        0.047          0.24888213     0.25037407     0.24964302    -2463.6869      568.32713      568.32713      568.32713      1.8356723e+08  2.1879516     -7319448.7     -7319448.7      1258.8862     -7318189.8     -2456.2757     -2470.9999     -2463.7851      6.61097       -3.5594186      1.653533       17793.358    
     95000   421.76174      0.0475         0.24711097     0.24897353     0.24826291    -2448.7126      568.59853      568.59853      568.59853      1.8383035e+08  2.18482       -7310710.3     -7310710.3      1255.9344     -7309454.4     -2438.7957     -2457.1777     -2450.1644      7.3861893     -3.1034174      2.5698105      17913.986    
     96000   421.10991      0.048          0.24589692     0.24767894     0.2477211     -2438.6774      568.86994      568.86994      568.86994      1.8409371e+08  2.1816943     -7302008.2     -7302008.2      1253.9934     -7300754.2     -2426.8139     -2444.4011     -2444.8171      7.2119854     -3.3613639      3.6496992      17764.688    
     97000   420.40792      0.0485         0.24517353     0.24643727     0.24773505    -2432.2587      569.14135      569.14135      569.14135      1.8435733e+08  2.1785746     -7293332.5     -7293332.5      1251.903      -7292080.6     -2419.6746     -2432.1468     -2444.9548      5.9469162     -3.020064       4.8709744      17965.454    
     98000   420.07444      0.049          0.24447462     0.24544597     0.24705901    -2424.4744      569.41276      569.41276      569.41276      1.846212e+08   2.1754609     -7284676.2     -7284676.2      1250.91       -7283425.2     -2412.7769     -2422.3634     -2438.2828      4.4703251     -2.4938918      6.477728       17826.375    
     99000   420.2736       0.0495         0.2434949      0.24506156     0.24531402    -2414.2462      569.68416      569.68416      569.68416      1.8488532e+08  2.1723531     -7276050.7     -7276050.7      1251.503      -7274799.2     -2403.1078     -2418.5696     -2421.0611      4.4283013     -3.2138476      6.2076568      17969.583    
    100000   420.41189      0.05           0.24244047     0.2446968      0.24367011    -2404.1694      569.95557      569.95557      569.95557      1.851497e+08   2.1692512     -7267458.3     -7267458.3      1251.9148     -7266206.4     -2392.7014     -2414.9697     -2404.837       5.9202323     -4.7737078      2.1074389      17010.51     
    101000   419.80568      0.0505         0.24123933     0.24365066     0.24290554    -2394.2612      570.22698      570.22698      570.22698      1.8541432e+08  2.1661552     -7258896.8     -7258896.8      1250.1096     -7257646.7     -2380.8471     -2404.6451     -2397.2913      8.6978316     -5.60445       -1.9965428      17791.999    
    102000   418.85717      0.051          0.2398294      0.24198925     0.24233217    -2382.271       570.49839      570.49839      570.49839      1.856792e+08   2.1630652     -7250363.7     -7250363.7      1247.2851     -7249116.4     -2366.9322     -2388.2482     -2391.6326      10.8744       -5.0441696     -1.0110652      17963.176    
    103000   417.75288      0.0515         0.23854195     0.24039569     0.24155111    -2370.2237      570.76979      570.76979      570.76979      1.8594433e+08  2.1599809     -7241856.7     -7241856.7      1243.9968     -7240612.7     -2354.226      -2372.521      -2383.9241      9.2695567     -2.8628764      4.57899        17667.411    
    104000   416.34962      0.052          0.23735629     0.23893345     0.24051972    -2358.1197      571.0412       571.0412       571.0412       1.8620971e+08  2.1569026     -7233382.6     -7233382.6      1239.8181     -7232142.8     -2342.5244     -2358.0898     -2373.745       4.6620326      0.19707963     7.1777621      18012.977    
    105000   415.54326      0.0525         0.23580958     0.23743642     0.23888077    -2342.7149      571.31261      571.31261      571.31261      1.8647535e+08  2.1538301     -7224961       -7224961        1237.4169     -7223723.6     -2327.2596     -2343.3152     -2357.5699      1.9091428      1.3519647      5.6560828      17861.424    
    106000   415.47086      0.053          0.23435548     0.23616271     0.23721274    -2328.2537      571.58402      571.58402      571.58402      1.8674123e+08  2.1507634     -7216589.5     -7216589.5      1237.2013     -7215352.3     -2312.9088     -2330.7448     -2341.1077      2.3094685     -1.3681106      3.3987255      17706.606    
    107000   415.01414      0.0535         0.23314443     0.23499201     0.23597851    -2316.3581      571.85542      571.85542      571.85542      1.8700737e+08  2.1477025     -7208254.1     -7208254.1      1235.8412     -7207018.3     -2300.9566     -2319.1908     -2328.9269      3.2350056     -4.8375826      3.4122846      17821.021    
    108000   414.0055       0.054          0.23195978     0.2337216      0.23439495    -2303.0721      572.12683      572.12683      572.12683      1.8727377e+08  2.1446475     -7199954       -7199954        1232.8377     -7198721.2     -2289.265      -2306.6528     -2313.2983      3.0770338     -7.1063852      4.1454766      18006.013    
    109000   412.34165      0.0545         0.23059482     0.23237443     0.23255032    -2288.0815      572.39824      572.39824      572.39824      1.8754041e+08  2.1415982     -7191697.8     -7191697.8      1227.883      -7190469.9     -2275.7939     -2293.3573     -2295.0932      2.1624949     -8.3391854      3.022113       17880.665    
    110000   410.55949      0.055          0.22871115     0.23075323     0.23099595    -2271.4379      572.66964      572.66964      572.66964      1.8780731e+08  2.1385547     -7183488.3     -7183488.3      1222.5761     -7182265.8     -2257.2035     -2277.3573     -2279.7527      3.3530112     -7.5737849      2.7042592      17804.139    
    111000   409.35759      0.0555         0.22714987     0.22924753     0.23015009    -2258.5656      572.94105      572.94105      572.94105      1.8807446e+08  2.135517      -7175329.7     -7175329.7      1218.997      -7174110.7     -2241.7949     -2262.4972     -2271.4048      4.9851725     -5.7172022      3.2361802      18026.715    
    112000   408.30374      0.056          0.22616483     0.22800862     0.22956159    -2249.3134      573.21246      573.21246      573.21246      1.8834186e+08  2.132485      -7167209.9     -7167209.9      1215.8588     -7165994       -2232.0733     -2250.2701     -2265.5967      6.5969318     -3.4948129      2.7200006      17909.283    
    113000   407.43001      0.0565         0.22513901     0.22667898     0.2285808     -2238.338       573.48387      573.48387      573.48387      1.8860952e+08  2.1294588     -7159114.9     -7159114.9      1213.257      -7157901.7     -2221.9493     -2237.1476     -2255.9171      7.3664715     -2.7323677      0.70013266     18024.174    
    114000   406.87358      0.057          0.22392911     0.22516702     0.22701321    -2224.2268      573.75527      573.75527      573.75527      1.8887743e+08  2.1264383     -7151050.3     -7151050.3      1211.6        -7149838.7     -2210.0085     -2222.2257     -2240.4462      5.1578234     -5.5132677     -1.7732346      17838.988    
    115000   406.23276      0.0575         0.22264912     0.22372238     0.2255424     -2210.4249      574.02668      574.02668      574.02668      1.891456e+08   2.1234235     -7143025.1     -7143025.1      1209.6918     -7141815.4     -2197.376      -2207.9682     -2225.9304      2.3256089     -9.2919833     -1.2081421      17367.172    
    116000   404.99947      0.058          0.22111942     0.22236527     0.2240683     -2196.0786      574.29809      574.29809      574.29809      1.8941402e+08  2.1204144     -7135049.8     -7135049.8      1206.0193     -7133843.7     -2182.279      -2194.5746     -2211.3822      1.1642445     -10.005719      0.19614165     17904.779    
    117000   403.3693       0.0585         0.21934444     0.22097023     0.22217984    -2179.4375      574.5695       574.5695       574.5695       1.8968269e+08  2.117411      -7127125.4     -7127125.4      1201.1649     -7125924.2     -2164.7613     -2180.8066     -2192.7445      2.6555468     -7.7592641      1.0827326      17896.88     
    118000   401.81152      0.059          0.21774813     0.21948079     0.22025244    -2162.9455      574.8409       574.8409       574.8409       1.8995162e+08  2.1144132     -7119256.8     -7119256.8      1196.5261     -7118060.3     -2149.007      -2166.107      -2173.7225      4.3775771     -3.9539409      2.0311325      16781.276    
    119000   400.65185      0.0595         0.21619672     0.21802673     0.2188112     -2148.317       575.11231      575.11231      575.11231      1.902208e+08   2.1114211     -7111436.6     -7111436.6      1193.0728     -7110243.5     -2133.6958     -2151.7565     -2159.4986      4.6513749     -2.5195132      2.3127242      17811.127    
    120000   399.72503      0.06           0.21464524     0.21664524     0.21800603    -2136.0194      575.38372      575.38372      575.38372      1.9049023e+08  2.1084347     -7103655.2     -7103655.2      1190.3129     -7102464.9     -2118.3838     -2138.1223     -2151.5522      4.2319051     -6.0273575      0.070203767    18009.904    
    121000   398.90228      0.0605         0.21335068     0.21534303     0.21730899    -2125.1837      575.65513      575.65513      575.65513      1.9075992e+08  2.1054539     -7095905.2     -7095905.2      1187.8629     -7094717.3     -2105.6075     -2125.2705     -2144.673       4.6334133     -10.10268      -3.1689467      17619.856    
    122000   398.09477      0.061          0.21230519     0.21414534     0.21631539    -2114.5355      575.92653      575.92653      575.92653      1.9102986e+08  2.1024787     -7088190.9     -7088190.9      1185.4583     -7087005.4     -2095.2893     -2113.4502     -2134.8669      5.1647345     -11.638573     -4.0128722      18004.376    
    123000   396.66297      0.0615         0.21120173     0.21284152     0.2148298     -2101.7289      576.19794      576.19794      576.19794      1.9130006e+08  2.0995091     -7080515.8     -7080515.8      1181.1946     -7079334.6     -2084.399      -2100.5825     -2120.2053      4.790884      -11.871723     -1.6206107      17883.984    
    124000   394.80802      0.062          0.20969512     0.21129428     0.21270835    -2084.7035      576.46935      576.46935      576.46935      1.9157051e+08  2.096545      -7072880.5     -7072880.5      1175.6709     -7071704.8     -2069.5299     -2085.3125     -2099.2682      4.6558353     -10.619623      1.3532333      18011.069    
    125000   393.33093      0.0625         0.20800231     0.20965493     0.21025077    -2065.6568      576.74076      576.74076      576.74076      1.9184122e+08  2.0935866     -7065304.1     -7065304.1      1171.2723     -7064132.9     -2052.8232     -2069.1333     -2075.0138      5.2410654     -7.8472745      0.84415453     17869.985    
    126000   392.2856       0.063          0.20649519     0.20799185     0.20824783    -2048.6384      577.01216      577.01216      577.01216      1.9211218e+08  2.0906337     -7057785.1     -7057785.1      1168.1595     -7056617       -2037.949      -2052.7199     -2055.2463      4.0550082     -5.8654569     -2.0029694      17844.04     
    127000   390.90641      0.0635         0.20533195     0.20661265     0.20732128    -2037.2263      577.28357      577.28357      577.28357      1.923834e+08   2.0876864     -7050304.7     -7050304.7      1164.0525     -7049140.7     -2026.4688     -2039.1084     -2046.1019      2.1807028     -7.870945      -4.5915539      18028.65     
    128000   388.98217      0.064          0.20388942     0.20523392     0.20670419    -2025.9151      577.55498      577.55498      577.55498      1.9265487e+08  2.0847446     -7042862.8     -7042862.8      1158.3225     -7041704.5     -2012.2322     -2025.5013     -2040.0117      2.4110373     -11.371796     -5.7715867      17829.788    
    129000   387.30625      0.0645         0.20206586     0.20372813     0.20587335    -2012.2291      577.82639      577.82639      577.82639      1.929266e+08   2.0818084     -7035461.5     -7035461.5      1153.3319     -7034308.1     -1994.235      -2010.6403     -2031.812       5.8194277     -11.938568     -5.387825       17982.426    
    130000   386.18384      0.065          0.20018196     0.20222205     0.20477707    -1997.4705      578.09779      578.09779      578.09779      1.9319858e+08  2.0788776     -7028105.2     -7028105.2      1149.9895     -7026955.2     -1975.6424     -1995.7765     -2020.9926      8.8083148     -10.107312     -2.3929569      17889.427    
    131000   385.57421      0.0655         0.19857209     0.20083432     0.20313739    -1982.215       578.3692       578.3692       578.3692       1.9347082e+08  2.0759524     -7020793.7     -7020793.7      1148.1742     -7019645.6     -1959.7542     -1982.0806     -2004.8101      7.0005171     -8.7676679      2.2484988      17992.797    
    132000   385.13031      0.066          0.19751238     0.19950766     0.20119621    -1967.9785      578.64061      578.64061      578.64061      1.9374331e+08  2.0730326     -7013531.2     -7013531.2      1146.8523     -7012384.4     -1949.2956     -1968.9875     -1985.6522      2.2686902     -6.2742059      4.8211375      17885.033    
    133000   384.36645      0.0665         0.19689546     0.19826072     0.19963593    -1956.7139      578.91202      578.91202      578.91202      1.9401606e+08  2.0701183     -7006310.1     -7006310.1      1144.5777     -7005165.5     -1943.2071     -1956.6812     -1970.2535     -0.9184467     -4.1178845      2.863036       17969.257    
    134000   383.3091       0.067          0.19643901     0.19708367     0.19852793    -1947.6951      579.18342      579.18342      579.18342      1.9428907e+08  2.0672095     -6999118.9     -6999118.9      1141.429      -6997977.5     -1938.7023     -1945.0646     -1959.3183     -0.35897043    -6.3506146     -0.96809394     17809.369    
    135000   382.18781      0.0675         0.19581464     0.1960608      0.19754081    -1939.0287      579.45483      579.45483      579.45483      1.9456233e+08  2.0643061     -6991951.3     -6991951.3      1138.09       -6990813.2     -1932.5402     -1934.9697     -1949.5762      1.9726129     -11.010162     -3.7651951      17826.626    
    136000   380.69986      0.068          0.19432759     0.19503355     0.1964451     -1927.1527      579.72624      579.72624      579.72624      1.9483585e+08  2.0614082     -6984811.4     -6984811.4      1133.6592     -6983677.8     -1917.8642     -1924.8314     -1938.7624      4.8690461     -13.647448     -5.5266753      17939.441    
    137000   378.90802      0.0685         0.19201218     0.19360468     0.1951685     -1910.6353      579.99764      579.99764      579.99764      1.9510962e+08  2.0585156     -6977714.8     -6977714.8      1128.3234     -6976586.5     -1895.0129     -1910.7296     -1926.1633      7.4517749     -12.876367     -5.7138794      17791.617    
    138000   377.1848       0.069          0.19001854     0.19182391     0.19375526    -1893.5693      580.26905      580.26905      580.26905      1.9538365e+08  2.0556285     -6970679.4     -6970679.4      1123.1919     -6969556.2     -1875.3372     -1893.1548     -1912.2158      7.9256273     -9.8825559     -3.9582913      17540.574    
    139000   375.35751      0.0695         0.18879205     0.19006983     0.19250011    -1879.6348      580.54046      580.54046      580.54046      1.9565794e+08  2.0527468     -6963692       -6963692        1117.7506     -6962574.3     -1863.2327     -1875.8434     -1899.8284      5.5100092     -8.0583151     -2.4831704      17630.998    
    140000   373.69847      0.07           0.18775872     0.18887159     0.19134092    -1868.4801      580.81187      580.81187      580.81187      1.9593248e+08  2.0498705     -6956737.8     -6956737.8      1112.8102     -6955625       -1853.0345     -1864.0177     -1888.388       1.7394024     -8.1142399     -2.5693064      17864.411    
    141000   372.521        0.0705         0.18672347     0.18821022     0.19006708    -1858.708       581.08327      581.08327      581.08327      1.9620728e+08  2.0469995     -6949810.8     -6949810.8      1109.3039     -6948701.5     -1842.8174     -1857.4904     -1875.8162      0.50248827    -7.8428129     -4.1010523      17791.49     
    142000   371.74947      0.071          0.1857565      0.18738433     0.18876993    -1848.5427      581.35468      581.35468      581.35468      1.9648234e+08  2.0441339     -6942910       -6942910        1107.0064     -6941803       -1833.2741     -1849.3395     -1863.0143      1.325882      -5.9784844     -5.642256       17765.935    
    143000   371.19761      0.0715         0.18479255     0.18615538     0.18771545    -1837.8596      581.62609      581.62609      581.62609      1.9675765e+08  2.0412736     -6936042.7     -6936042.7      1105.3631     -6934937.3     -1823.7607     -1837.2108     -1852.6075      2.1802958     -3.8848051     -5.9194811      17918.172    
    144000   370.58139      0.072          0.18369225     0.18471957     0.18672978    -1826.2739      581.8975       581.8975       581.8975       1.9703323e+08  2.0384187     -6929219.1     -6929219.1      1103.5281     -6928115.5     -1812.9015     -1823.0405     -1842.8797      3.0648316     -4.5060373     -4.6570769      17792.432    
    145000   369.31888      0.0725         0.18253708     0.18352201     0.18563525    -1814.9333      582.1689       582.1689       582.1689       1.9730905e+08  2.0355691     -6922429.6     -6922429.6      1099.7686     -6921329.8     -1801.5009     -1811.2214     -1832.0775      3.5952707     -6.6495482     -4.081418       17907.964    
    146000   367.31055      0.073          0.18134988     0.18233638     0.18441996    -1803.1292      582.44031      582.44031      582.44031      1.9758514e+08  2.0327248     -6915668.7     -6915668.7      1093.7881     -6914574.9     -1789.7842     -1799.5201     -1820.0834      3.8666079     -8.3465056     -2.9298661      17804.3      
    147000   365.39277      0.0735         0.18018967     0.18090624     0.1829911     -1789.9071      582.71172      582.71172      582.71172      1.9786148e+08  2.0298858     -6908940.7     -6908940.7      1088.0773     -6907852.6     -1778.3337     -1785.4057     -1805.9818      3.119508      -7.5440262     -1.3651361      17843.419    
    148000   364.04223      0.074          0.17918701     0.17974122     0.18167103    -1778.4333      582.98313      582.98313      582.98313      1.9813808e+08  2.0270521     -6902250.6     -6902250.6      1084.0556     -6901166.6     -1768.4383     -1773.908      -1792.9537      1.0349331     -5.1408676     -0.79989566     17591.376    
    149000   362.94843      0.0745         0.1783316      0.17930405     0.18076799    -1771.2103      583.25453      583.25453      583.25453      1.9841494e+08  2.0242236     -6895593.8     -6895593.8      1080.7985     -6894513       -1759.9961     -1769.5934     -1784.0413     -0.066840433   -5.2258889     -2.4282936      17811.208    
    150000   361.92188      0.075          0.17747793     0.17887528     0.18025514    -1765.3042      583.52594      583.52594      583.52594      1.9869206e+08  2.0214004     -6888953.4     -6888953.4      1077.7415     -6887875.6     -1751.571      -1765.3618     -1778.9799      0.98880592    -8.2396669     -5.0115409      16288.744    
    151000   361.44309      0.0755         0.17658801     0.17816018     0.17953719    -1757.6623      583.79735      583.79735      583.79735      1.9896943e+08  2.0185825     -6882324.3     -6882324.3      1076.3158     -6881248       -1742.7882     -1758.3043     -1771.8943      2.3731676     -10.37335      -7.1720164      17700.409    
    152000   361.2811       0.076          0.17572849     0.1771374      0.17847547    -1747.9771      584.06876      584.06876      584.06876      1.9924706e+08  2.0157698     -6875721.4     -6875721.4      1075.8334     -6874645.6     -1734.3053     -1748.2102     -1761.4159      3.387618      -8.734755      -7.6873207      17863.531    
    153000   360.3021       0.0765         0.17499162     0.17584546     0.17725685    -1737.2939      584.34016      584.34016      584.34016      1.9952495e+08  2.0129623     -6869154.4     -6869154.4      1072.9181     -6868081.5     -1727.033      -1735.4597     -1749.3891      3.9475218     -5.8920049     -6.4453082      17674.329    
    154000   358.7812       0.077          0.1739762      0.17418054     0.17587169    -1723.9195      584.61157      584.61157      584.61157      1.998031e+08   2.0101601     -6862625       -6862625        1068.3891     -6861556.6     -1717.0116     -1719.0283     -1735.7186      4.3296871     -3.7584248     -6.4578944      17820.494    
    155000   357.42785      0.0775         0.17258563     0.17257948     0.17455063    -1709.7319      584.88298      584.88298      584.88298      2.0008151e+08  2.007363      -6856137.1     -6856137.1      1064.3591     -6855072.7     -1703.2877     -1703.227      -1722.6808      4.9251131     -1.917323      -6.7283404      17692.869    
    156000   356.11932      0.078          0.17124541     0.17149063     0.17363211    -1698.7192      585.15439      585.15439      585.15439      2.0036017e+08  2.0045711     -6849687.2     -6849687.2      1060.4625     -6848626.8     -1690.0608     -1692.481      -1713.6157      3.773763      -1.6432415     -5.637671       17786.659    
    157000   354.86055      0.0785         0.17026608     0.17069918     0.17304522    -1690.963       585.42579      585.42579      585.42579      2.0063909e+08  2.0017844     -6843262.7     -6843262.7      1056.7141     -6842206       -1680.3955     -1684.6699     -1707.8235      1.3199473     -3.0864764     -2.3985498      17540.472    
    158000   354.05323      0.079          0.1695657      0.17008377     0.17261738    -1685.2269      585.6972       585.6972       585.6972       2.0091828e+08  1.9990029     -6836859.8     -6836859.8      1054.3101     -6835805.5     -1673.4834     -1678.5963     -1703.601       1.0528773     -5.4437952     -0.40569271     17625.718    
    159000   353.83168      0.0795         0.16898844     0.16969769     0.17196515    -1679.9121      585.96861      585.96861      585.96861      2.0119772e+08  1.9962265     -6830474.6     -6830474.6      1053.6503     -6829420.9     -1667.7863     -1674.786      -1697.164       2.1929161     -6.9446347     -1.5114654      17831.18     
    160000   353.56742      0.08           0.16840222     0.16957547     0.17132308    -1675.4693      586.24002      586.24002      586.24002      2.0147742e+08  1.9934552     -6824097.1     -6824097.1      1052.8634     -6823044.2     -1662.0007     -1673.5798     -1690.8274      2.9230375     -5.1066119     -5.256282       17663.794    
    161000   352.97113      0.0805         0.16765066     0.1689816      0.17063116    -1668.7669      586.51142      586.51142      586.51142      2.0175738e+08  1.9906891     -6817728.2     -6817728.2      1051.0878     -6816677.1     -1654.5834     -1667.7187     -1683.9986      2.3885393     -2.2502427     -7.3716103      17769.584    
    162000   352.18419      0.081          0.16686558     0.16780825     0.16965857    -1659.1246      586.78283      586.78283      586.78283      2.020376e+08   1.9879281     -6811384.1     -6811384.1      1048.7444     -6810335.3     -1646.8353     -1656.1386     -1674.3999      1.4748085     -2.0637736     -6.2771918      17682.666    
    163000   351.31719      0.0815         0.16622937     0.16661582     0.1683683     -1648.8642      587.05424      587.05424      587.05424      2.0231807e+08  1.9851722     -6805078.7     -6805078.7      1046.1626     -6804032.6     -1640.5564     -1644.3702     -1661.6659      1.1566437     -4.0250571     -3.0839901      17826.82     
    164000   350.44665      0.082          0.16567913     0.1659195      0.16701912    -1640.3249      587.32565      587.32565      587.32565      2.0259881e+08  1.9824214     -6798807.6     -6798807.6      1043.5703     -6797764       -1635.1259     -1637.4982     -1648.3505      1.9935881     -5.1941074     -1.123966       17664.917    
    165000   349.18128      0.0825         0.16496639     0.16554497     0.16632035    -1634.4493      587.59705      587.59705      587.59705      2.0287981e+08  1.9796756     -6792547.5     -6792547.5      1039.8022     -6791507.7     -1628.0917     -1633.8018     -1641.4543      4.1624733     -5.9888301     -2.8157989      17754.567    
    166000   347.45639      0.083          0.16386203     0.16489298     0.1661658     -1628.1629      587.86846      587.86846      587.86846      2.0316106e+08  1.9769349     -6786289.4     -6786289.4      1034.6658     -6785254.8     -1617.1925     -1627.3671     -1639.929       5.3055174     -6.3381607     -3.9807045      17676.324    
    167000   345.99629      0.0835         0.16244389     0.16378068     0.16572708    -1618.3951      588.13987      588.13987      588.13987      2.0344258e+08  1.9741993     -6780053.4     -6780053.4      1030.3179     -6779023       -1603.1965     -1616.3896     -1635.5991      2.9763528     -4.8289349     -3.6850078      17643.26     
    168000   345.31519      0.084          0.16139458     0.16246419     0.164812      -1607.6018      588.41127      588.41127      588.41127      2.0372436e+08  1.9714688     -6773855.2     -6773855.2      1028.2897     -6772826.9     -1592.8406     -1603.3969     -1626.568      -0.36649092    -2.7681774     -4.9437839      17774.537    
    169000   345.04178      0.0845         0.16091827     0.16151826     0.16391482    -1599.9716      588.68268      588.68268      588.68268      2.0400639e+08  1.9687432     -6767686.2     -6767686.2      1027.4755     -6766658.8     -1588.1399     -1594.0613     -1617.7135     -0.98588947    -1.2400784     -7.4248224      17654.255    
    170000   344.60713      0.085          0.16075562     0.16118193     0.16320821    -1596.0054      588.95409      588.95409      588.95409      2.0428869e+08  1.9660227     -6761526.7     -6761526.7      1026.1812     -6760500.5     -1586.5346     -1590.742      -1610.7398      1.718325      -0.38222393    -7.2923056      17700.482    
    171000   344.22273      0.0855         0.16041242     0.16104292     0.16237778    -1591.6872      589.2255       589.2255       589.2255       2.0457125e+08  1.9633072     -6755379       -6755379        1025.0365     -6754353.9     -1583.1475     -1589.37       -1602.5441      3.6146354     -1.8460698     -4.7959593      17415.508    
    172000   344.07586      0.086          0.15979195     0.16053357     0.16138806    -1584.7145      589.4969       589.4969       589.4969       2.0485407e+08  1.9605967     -6749260.5     -6749260.5      1024.5992     -6748235.9     -1577.0239     -1584.3432     -1592.7763      3.8047197     -4.3066811     -2.0079487      17737.279    
    173000   344.03551      0.0865         0.15898997     0.15979035     0.1605971     -1577.0291      589.76831      589.76831      589.76831      2.0513714e+08  1.9578912     -6743168.9     -6743168.9      1024.479      -6742144.5     -1569.109      -1577.0081     -1584.9701      4.2486735     -5.0050321     -0.23920474     17559.544    
    174000   343.60225      0.087          0.15856692     0.15937115     0.16044312    -1573.7518      590.03972      590.03972      590.03972      2.0542048e+08  1.9551907     -6737075.3     -6737075.3      1023.1888     -6736052.1     -1564.9338     -1572.871      -1583.4505      3.8923133     -5.2367899     -0.39499968     17361.412    
    175000   342.8852       0.0875         0.15830334     0.15895689     0.16030672    -1571.0731      590.31113      590.31113      590.31113      2.0570408e+08  1.9524951     -6730973.8     -6730973.8      1021.0536     -6729952.7     -1562.3325     -1568.7826     -1582.1044      2.0865953     -5.188031      -1.0295328      17782.475    
    176000   342.85339      0.088          0.15758246     0.15805546     0.15953092    -1563.184       590.58253      590.58253      590.58253      2.0598794e+08  1.9498045     -6724897.2     -6724897.2      1020.9589     -6723876.2     -1555.218      -1559.8861     -1574.4478      0.84424366    -3.6579595     -2.6396286      17581.748    
    177000   343.03372      0.0885         0.15649167     0.15698441     0.15840504    -1552.3682      590.85394      590.85394      590.85394      2.0627206e+08  1.9471188     -6718868.6     -6718868.6      1021.4958     -6717847.1     -1544.4527     -1549.3157     -1563.3362      0.91074873    -2.0823204     -4.1460064      17790.399    
    178000   342.41897      0.089          0.15543875     0.1561935      0.1574847     -1543.2748      591.12535      591.12535      591.12535      2.0655644e+08  1.944438      -6712871.6     -6712871.6      1019.6652     -6711851.9     -1534.0612     -1541.51       -1554.2531      1.9811861     -2.0137554     -3.6143241      17550.434    
    179000   341.07943      0.0895         0.15471608     0.15586545     0.15701554    -1538.2747      591.39676      591.39676      591.39676      2.0684109e+08  1.9417622     -6706884.6     -6706884.6      1015.6763     -6705868.9     -1526.929      -1538.2724     -1549.6229      4.6731271     -2.1069464     -3.07297        17775.82     
    180000   339.87675      0.09           0.15430158     0.15565904     0.15650639    -1534.5572      591.66816      591.66816      591.66816      2.0712599e+08  1.9390913     -6700898.2     -6700898.2      1012.0949     -6699886.1     -1522.8382     -1536.2353     -1544.598       6.8357762     -1.1570948     -2.7183975      17551.131    
    181000   339.0291       0.0905         0.15415807     0.15527469     0.15605501    -1531.3357      591.93957      591.93957      591.93957      2.0741116e+08  1.9364253     -6694917.7     -6694917.7      1009.5708     -6693908.1     -1521.4219     -1532.442      -1540.1432      4.8779105     -1.0413427     -2.3216202      17582.172    
    182000   338.22581      0.091          0.1538389      0.15446552     0.15593216    -1527.2196      592.21098      592.21098      592.21098      2.0769659e+08  1.9337641     -6688945.4     -6688945.4      1007.1787     -6687938.2     -1518.2719     -1524.4562     -1538.9307      0.46154588    -2.574421      -2.0854508      17739.662    
    183000   337.9208       0.0915         0.1529695      0.15332476     0.15552739    -1519.2751      592.48239      592.48239      592.48239      2.0798228e+08  1.9311078     -6682991.4     -6682991.4      1006.2704     -6681985.2     -1509.6916     -1513.1977     -1534.936      -1.4487713     -3.4814145     -3.6754893      17554.26     
    184000   338.55144      0.092          0.15199924     0.15257988     0.15469948    -1510.9091      592.75379      592.75379      592.75379      2.0826823e+08  1.9284564     -6677068.7     -6677068.7      1008.1484     -6676060.6     -1500.1158     -1505.8463     -1526.7651      0.65842678    -0.90115211    -6.2692091      17777.229    
    185000   339.40956      0.0925         0.15158796     0.15250095     0.15387465    -1506.583       593.0252       593.0252       593.0252       2.0855444e+08  1.9258099     -6671175.4     -6671175.4      1010.7037     -6670164.7     -1496.0569     -1505.0674     -1518.6247      4.4311633      2.2144921     -6.7855792      17553.286    
    186000   339.39077      0.093          0.15145419     0.15280642     0.15328522    -1505.2087      593.29661      593.29661      593.29661      2.0884092e+08  1.9231682     -6665285.3     -6665285.3      1010.6478     -6664274.6     -1494.7366     -1508.0821     -1512.8075      6.7409496      1.373292      -3.9711507      17737.076    
    187000   338.49057      0.0935         0.1509812      0.15299242     0.15295244    -1503.1699      593.56802      593.56802      593.56802      2.0912766e+08  1.9205313     -6659383.8     -6659383.8      1007.9671     -6658375.9     -1490.0686     -1509.9178     -1509.5232      6.832348      -2.1542311     -0.16173602     17618.382    
    188000   337.45523      0.094          0.15021742     0.15254755     0.15240608    -1497.3963      593.83942      593.83942      593.83942      2.0941466e+08  1.9178992     -6653484       -6653484        1004.8841     -6652479.1     -1482.5306     -1505.5273     -1504.131       5.1716634     -4.4795686      1.9527084      17590.543    
    189000   336.95299      0.0945         0.1496         0.15118034     0.15149119    -1487.8577      594.11083      594.11083      594.11083      2.0970192e+08  1.915272      -6647612.1     -6647612.1      1003.3885     -6646608.7     -1476.4372     -1492.034      -1495.1018      1.9103743     -2.7011827      1.6972966      17676.161    
    190000   336.46636      0.095          0.14932488     0.14946629     0.15072768    -1478.802       594.38224      594.38224      594.38224      2.0998945e+08  1.9126495     -6641776.1     -6641776.1      1001.9394     -6640774.2     -1473.722      -1475.1176     -1487.5665     -1.2921785     -0.39399175     0.76394209     17587.276    
    191000   335.14036      0.0955         0.14905148     0.14812496     0.15018355    -1471.6999      594.65365      594.65365      594.65365      2.1027723e+08  1.9100318     -6635964.7     -6635964.7      997.99077     -6634966.7     -1471.0237     -1461.8797     -1482.1964     -2.1355327     -0.88738778    -1.6887832      17760.067    
    192000   334.07134      0.096          0.14826253     0.14752367     0.14938048    -1464.4845      594.92505      594.92505      594.92505      2.1056529e+08  1.9074189     -6630174.7     -6630174.7      994.8074      -6629179.9     -1463.2374     -1455.9454     -1474.2707     -0.025997186   -1.881758      -4.1362293      17420.34     
    193000   334.35652      0.0965         0.1470608      0.14781948     0.14865073    -1459.1036      595.19646      595.19646      595.19646      2.108536e+08   1.9048108     -6624406.2     -6624406.2      995.65661     -6623410.5     -1451.3773     -1458.8648     -1467.0686      3.100136      -3.3433723     -5.0774285      17680.736    
    194000   335.05223      0.097          0.1464078      0.14845496     0.14860098    -1458.8823      595.46787      595.46787      595.46787      2.1114218e+08  1.9022074     -6618637.8     -6618637.8      997.72833     -6617640.1     -1444.9327     -1465.1365     -1466.5777      5.921725      -5.3584584     -4.442984       17613.84     
    195000   335.29024      0.0975         0.14667506     0.14870036     0.14890985    -1461.5849      595.73927      595.73927      595.73927      2.1143102e+08  1.8996088     -6612850.9     -6612850.9      998.43708     -6611852.4     -1447.5703     -1467.5585     -1469.626       7.8826551     -4.2472545     -2.4529633      17732.168    
    196000   335.53676      0.098          0.14699152     0.14813824     0.14906916    -1461.3008      596.01068      596.01068      596.01068      2.1172012e+08  1.8970148     -6607061.4     -6607061.4      999.17116     -6606062.2     -1450.6935     -1462.0107     -1471.1982      7.9427003     -0.26315972    -0.30496935     17610.495    
    197000   335.78611      0.0985         0.14674632     0.14716961     0.14857993    -1455.6982      596.28209      596.28209      596.28209      2.1200949e+08  1.8944256     -6601286.2     -6601286.2      999.9137      -6600286.3     -1448.2736     -1452.4512     -1466.3699      5.6918016      2.0691293      0.53800187     17631.651    
    198000   335.54125      0.099          0.14594968     0.14625476     0.14737615    -1446.1077      596.5535       596.5535       596.5535       2.1229912e+08  1.8918412     -6595535.6     -6595535.6      999.18454     -6594536.4     -1440.4113     -1443.4222     -1454.4896      2.5585906      2.2296115      0.37082206     17705.895    
    199000   334.88457      0.0995         0.14490836     0.14542787     0.14604729    -1435.5902      596.8249       596.8249       596.8249       2.1258901e+08  1.8892614     -6589815       -6589815        997.22906     -6588817.7     -1430.1344     -1435.2615     -1441.3747      0.43075744     1.5741151     -0.13614179     17612.157    
    200000   334.15587      0.1            0.14395307     0.14476548     0.14509973    -1427.1512      597.09631      597.09631      597.09631      2.1287917e+08  1.8866863     -6584128.7     -6584128.7      995.05911     -6583133.6     -1420.7064     -1428.7242     -1432.0229      0.2807198      0.26621678    -0.61559492     17355.149    
    201000   333.61216      0.1005         0.14330834     0.14422624     0.14479361    -1422.2492      597.36772      597.36772      597.36772      2.1316959e+08  1.8841159     -6578466.3     -6578466.3      993.44005     -6577472.9     -1414.3434     -1423.4023     -1429.0018      2.5800222     -1.0725811     -1.1786143      17542.559    
    202000   333.05617      0.101          0.14289235     0.14386515     0.14500795    -1420.3979      597.63913      597.63913      597.63913      2.1346028e+08  1.8815501     -6572805.9     -6572805.9      991.78441     -6571814.1     -1410.2378     -1419.8387     -1431.1172      4.982743      -2.9123277     -1.9739567      17711.952    
    203000   333.05363      0.1015         0.14272793     0.14371258     0.14510107    -1419.6614      597.91053      597.91053      597.91053      2.1375123e+08  1.878989      -6567137.5     -6567137.5      991.77685     -6566145.8     -1408.6152     -1418.3329     -1432.0362      5.777279      -3.2924616     -1.4607895      17573.571    
    204000   333.81126      0.102          0.14257997     0.14354971     0.14478749    -1417.6073      598.18194      598.18194      598.18194      2.1404244e+08  1.8764326     -6561475.9     -6561475.9      994.03294     -6560481.9     -1407.1549     -1416.7255     -1428.9414      5.329782      -1.3864585      0.77621196     17601.245    
    205000   334.03995      0.1025         0.14230686     0.14323513     0.14428894    -1414.0338      598.45335      598.45335      598.45335      2.1433392e+08  1.8738808     -6555825.8     -6555825.8      994.71393     -6554831.1     -1404.4595     -1413.6208     -1424.0211      5.2339634      0.61406685     2.0947145      17725.141    
    206000   333.14144      0.103          0.14191327     0.14263636     0.1435322     -1408.2797      598.72476      598.72476      598.72476      2.1462566e+08  1.8713336     -6550183.2     -6550183.2      992.03831     -6549191.1     -1400.5751     -1407.7115     -1416.5527      5.6442122      2.1071904      1.6091142      17576.107    
    207000   331.89411      0.1035         0.14155947     0.14203439     0.14265374    -1402.2456      598.99616      598.99616      598.99616      2.1491767e+08  1.868791      -6544550.7     -6544550.7      988.324       -6543562.4     -1397.0834     -1401.7705     -1407.883       4.8588261      3.0633113      0.76259108     17722.705    
    208000   330.88414      0.104          0.14101846     0.14173163     0.14197069    -1397.2227      599.26757      599.26757      599.26757      2.1520994e+08  1.866253      -6538931       -6538931        985.31647     -6537945.7     -1391.744      -1398.7824     -1401.1418      3.2142563      4.2790198      0.77632367     17559.916    
    209000   330.64576      0.1045         0.14025622     0.1416088      0.14145504    -1392.6147      599.53898      599.53898      599.53898      2.1550248e+08  1.8637197     -6533325.3     -6533325.3      984.6066      -6532340.7     -1384.2213     -1397.5702     -1396.0527      3.2364419      4.1107261      1.2847175      17703.664    
    210000   331.26546      0.105          0.13975087     0.14114435     0.14101813    -1387.987       599.81039      599.81039      599.81039      2.1579528e+08  1.8611909     -6527741.6     -6527741.6      986.45197     -6526755.1     -1379.2339     -1392.9864     -1391.7407      4.5014184      1.6583761      1.3416721      17424.084    
    211000   331.96855      0.1055         0.1396456      0.14030959     0.14073836    -1383.9742      600.08179      600.08179      600.08179      2.1608835e+08  1.8586667     -6522172.8     -6522172.8      988.54566     -6521184.3     -1378.1949     -1384.748      -1388.9796      5.0546082     -2.1841698     -0.2539789      17563.56     
    212000   332.0001       0.106          0.139431       0.13964187     0.14051646    -1380.3416      600.3532       600.3532       600.3532       2.1638168e+08  1.856147      -6516610.7     -6516610.7      988.63962     -6515622       -1376.077      -1378.1581     -1386.7897      3.5800573     -3.3533074     -2.4242298      17676.58     
    213000   331.80856      0.1065         0.13883411     0.13921287     0.14017858    -1375.8551      600.62461      600.62461      600.62461      2.1667528e+08  1.8536319     -6511057.1     -6511057.1      988.06923     -6510069       -1370.1861     -1373.9242     -1383.455       2.9584104     -1.8452646     -2.2419678      17555.707    
    214000   331.74185      0.107          0.13828487     0.13889398     0.13976594    -1371.6417      600.89602      600.89602      600.89602      2.1696914e+08  1.8511213     -6505520.9     -6505520.9      987.87057     -6504533       -1364.7656     -1370.777      -1379.3826      4.0076566     -1.267528      -0.42567919     17706.641    
    215000   331.43696      0.1075         0.13778296     0.13869846     0.13925614    -1367.6703      601.16742      601.16742      601.16742      2.1726327e+08  1.8486153     -6499996.1     -6499996.1      986.96266     -6499009.1     -1359.8121     -1368.8474     -1374.3513      5.3544326     -1.3206321      1.5317477      17537.702    
    216000   331.05249      0.108          0.13730562     0.13842989     0.13856924    -1362.9567      601.43883      601.43883      601.43883      2.1755767e+08  1.8461138     -6494480.9     -6494480.9      985.81778     -6493495.1     -1355.1011     -1366.1968     -1367.5721      5.2344649     -0.62953441     3.6771188      17724.468    
    217000   330.95549      0.1085         0.13697387     0.13791485     0.13817258    -1358.866       601.71024      601.71024      601.71024      2.1785233e+08  1.8436168     -6488978.7     -6488978.7      985.52892     -6487993.2     -1351.827      -1361.1138     -1363.6574      3.6531795     -0.065996375    4.6680767      17545.485    
[...]
   2969000   319.65827      1.4845         0.0035190546   0.0036050867   0.003180852   -33.900792      1348.6234      1348.6234      1348.6234      2.4528563e+09  0.16374225    -1374215.9     -1374215.9      951.88774     -1373264       -34.730368     -35.57944      -31.392569      1.2891412      1.3589204      2.3666617      16551.598    
   2970000   319.61089      1.485          0.0035095395   0.0036028746   0.003180691   -33.861683      1348.8949      1348.8949      1348.8949      2.4543375e+09  0.16364343    -1373609.5     -1373609.5      951.74667     -1372657.7     -34.636462     -35.557607     -31.390979      1.2774445      1.3646971      2.3709673      16651.038    
   2971000   319.68696      1.4855         0.0034980095   0.0035985975   0.0031778118  -33.80021       1349.1663      1349.1663      1349.1663      2.4558193e+09  0.16354469    -1373004       -1373004        951.97319     -1372052.1     -34.52267      -35.515396     -31.362564      1.2861356      1.3785248      2.386281       16565.088    
   2972000   319.83655      1.486          0.0034870932   0.0035916238   0.003171493   -33.720569      1349.4377      1349.4377      1349.4377      2.4573017e+09  0.16344603    -1372400.2     -1372400.2      952.41862     -1371447.8     -34.414935     -35.446571     -31.300202      1.2957168      1.3951005      2.4029369      16615.477    
   2973000   319.97723      1.4865         0.003481237    0.0035837867   0.0031648723  -33.653741      1349.7091      1349.7091      1349.7091      2.4587847e+09  0.16334745    -1371798.1     -1371798.1      952.83756     -1370845.3     -34.357137     -35.369225     -31.234861      1.288879       1.4162304      2.4090509      16754.296    
   2974000   320.05919      1.487          0.0034823653   0.0035786739   0.0031599568  -33.624463      1349.9805      1349.9805      1349.9805      2.4602683e+09  0.16324895    -1371197.1     -1371197.1      953.0816      -1370244       -34.368273     -35.318766     -31.186349      1.2742246      1.4328092      2.3930997      16634.941    
   2975000   320.08526      1.4875         0.003488478    0.0035773501   0.0031568975  -33.630152      1350.2519      1350.2519      1350.2519      2.4617525e+09  0.16315053    -1370596       -1370596        953.15926     -1369642.8     -34.428601     -35.3057       -31.156156      1.2606507      1.4242476      2.3612102      15824.949    
   2976000   320.08528      1.488          0.0034949589   0.0035775205   0.0031540532  -33.642677      1350.5233      1350.5233      1350.5233      2.4632372e+09  0.16305218    -1369994.1     -1369994.1      953.15931     -1369041       -34.492562     -35.307383     -31.128085      1.2461288      1.4048537      2.3268383      16479.664    
   2977000   320.07066      1.4885         0.0034970843   0.0035766476   0.0031490904  -33.63047       1350.7947      1350.7947      1350.7947      2.4647226e+09  0.16295392    -1369391.7     -1369391.7      953.11578     -1368438.6     -34.513539     -35.298767     -31.079106      1.2309179      1.4052848      2.3100026      16377.081    
   2978000   320.04477      1.489          0.0034932539   0.00357505     0.0031414451  -33.587463      1351.0661      1351.0661      1351.0661      2.4662086e+09  0.16285574    -1368789.6     -1368789.6      953.03868     -1367836.6     -34.475736     -35.283001     -31.003653      1.2081119      1.4361705      2.3295265      16512.932    
   2979000   320.02073      1.4895         0.0034871173   0.0035739873   0.0031319695  -33.532607      1351.3375      1351.3375      1351.3375      2.4676951e+09  0.16275763    -1368188.7     -1368188.7      952.96708     -1367235.7     -34.415172     -35.272513     -30.910136      1.1711169      1.4767719      2.3787362      16392.502    
   2980000   320.00129      1.49           0.0034825819   0.0035729064   0.0031238884  -33.487546      1351.6089      1351.6089      1351.6089      2.4691823e+09  0.1626596     -1367588.7     -1367588.7      952.9092      -1366635.7     -34.370411     -35.261845     -30.830382      1.1390591      1.5073219      2.4364145      16604.375    
   2981000   319.98066      1.4905         0.003478406    0.0035693559   0.0031197999  -33.448678      1351.8803      1351.8803      1351.8803      2.47067e+09    0.16256165    -1366989.1     -1366989.1      952.84776     -1366036.2     -34.329198     -35.226804     -30.790031      1.140691       1.5099669      2.483212       16389.108    
   2982000   319.95314      1.491          0.0034741886   0.0035626148   0.003119486   -33.411595      1352.1517      1352.1517      1352.1517      2.4721584e+09  0.16246378    -1366389.8     -1366389.8      952.76582     -1365437       -34.287576     -35.160274     -30.786933      1.1685873      1.4769054      2.5133277      16518.751    
   2983000   319.91897      1.4915         0.0034704809   0.0035550799   0.0031217604  -33.382091      1352.4231      1352.4231      1352.4231      2.4736473e+09  0.16236599    -1365790.7     -1365790.7      952.66406     -1364838       -34.250984     -35.08591      -30.809379      1.1980254      1.4235116      2.5324337      16691.266    
   2984000   319.89789      1.492          0.0034682263   0.0035497607   0.0031238563  -33.364071      1352.6946      1352.6946      1352.6946      2.4751369e+09  0.16226828    -1365191.9     -1365191.9      952.60128     -1364239.3     -34.228732     -35.033415     -30.830065      1.2088005      1.392095       2.5342132      16575.43     
   2985000   319.91201      1.4925         0.0034677489   0.0035490925   0.0031258219  -33.366768      1352.966       1352.966       1352.966       2.476627e+09   0.16217065    -1364593.3     -1364593.3      952.64333     -1363640.7     -34.22402      -35.026819     -30.849463      1.2005254      1.3976652      2.5186541      16696.957    
   2986000   319.95733      1.493          0.0034661474   0.0035506497   0.0031259297  -33.366977      1353.2374      1353.2374      1353.2374      2.4781178e+09  0.16207309    -1363994.5     -1363994.5      952.77831     -1363041.8     -34.208215     -35.042188     -30.850528      1.1938173      1.4208549      2.4920535      16606.752    
   2987000   319.99957      1.4935         0.0034617019   0.0035516936   0.0031227803  -33.345426      1353.5088      1353.5088      1353.5088      2.4796091e+09  0.16197561    -1363395.5     -1363395.5      952.90409     -1362442.6     -34.164342     -35.05249      -30.819445      1.1998954      1.4334011      2.4558687      16658.793    
   2988000   319.97592      1.494          0.0034567642   0.003552098    0.0031186408  -33.316895      1353.7802      1353.7802      1353.7802      2.4811011e+09  0.16187821    -1362796.5     -1362796.5      952.83364     -1361843.6     -34.11561      -35.056482     -30.778592      1.2172013      1.420487       2.4213059      16867.344    
   2989000   319.86825      1.4945         0.0034541623   0.0035509034   0.0031175898  -33.300948      1354.0516      1354.0516      1354.0516      2.4825936e+09  0.16178089    -1362197.4     -1362197.4      952.51303     -1361244.9     -34.089931     -35.044692     -30.768219      1.234247       1.4022141      2.3980303      16815.511    
   2990000   319.76675      1.495          0.0034527073   0.0035468072   0.0031186991  -33.286335      1354.323       1354.323       1354.323       2.4840868e+09  0.16168365    -1361598.2     -1361598.2      952.21078     -1360646       -34.075572     -35.004265     -30.779167      1.2424939      1.4006162      2.3764479      17038.675    
   2991000   319.80771      1.4955         0.0034495554   0.0035413614   0.0031176616  -33.254637      1354.5944      1354.5944      1354.5944      2.4855805e+09  0.16158648    -1360999.5     -1360999.5      952.33276     -1360047.1     -34.044465     -34.950519     -30.768928      1.245399       1.414534       2.3591039      16935.633    
   2992000   319.99598      1.496          0.0034429278   0.0035362116   0.0031102449  -33.191494      1354.8658      1354.8658      1354.8658      2.4870748e+09  0.16148939    -1360401.9     -1360401.9      952.89339     -1359449       -33.979056     -34.899695     -30.695731      1.2483592      1.4194829      2.3475338      16851.19     
   2993000   320.17316      1.4965         0.0034337235   0.003530586    0.0030970886  -33.099426      1355.1372      1355.1372      1355.1372      2.4885698e+09  0.16139238    -1359806.1     -1359806.1      953.421       -1358852.6     -33.888217     -34.844174     -30.565888      1.2462746      1.403703       2.3417749      16940.955    
   2994000   320.14899      1.497          0.0034265654   0.0035246916   0.0030852659  -33.017593      1355.4086      1355.4086      1355.4086      2.4900653e+09  0.16129545    -1359211.8     -1359211.8      953.34903     -1358258.4     -33.817572     -34.786001     -30.449207      1.2418939      1.3813396      2.341744       16781.55     
   2995000   319.93489      1.4975         0.0034240003   0.0035196275   0.0030808509  -32.977971      1355.68        1355.68        1355.68        2.4915614e+09  0.1611986     -1358618.2     -1358618.2      952.71147     -1357665.5     -33.792256     -34.736023     -30.405634      1.2424284      1.3678879      2.3507016      16982.507    
   2996000   319.7292       1.498          0.003424354    0.0035155386   0.0030831407  -32.973216      1355.9514      1355.9514      1355.9514      2.4930582e+09  0.16110182    -1358024.4     -1358024.4      952.09896     -1357072.3     -33.795746     -34.695668     -30.428232      1.2443346      1.3760327      2.3671396      16681.844    
   2997000   319.69992      1.4985         0.0034232668   0.003514305    0.003086904   -32.977961      1356.2229      1356.2229      1356.2229      2.4945555e+09  0.16100512    -1357430       -1357430        952.01177     -1356478       -33.785016     -34.683494     -30.465374      1.2398559      1.3981001      2.3723539      16909.459    
   2998000   319.80927      1.499          0.0034185724   0.003516229    0.0030879564  -32.972309      1356.4943      1356.4943      1356.4943      2.4960534e+09  0.1609085     -1356835.4     -1356835.4      952.33739     -1355883       -33.738687     -34.702482     -30.47576       1.2309604      1.4219385      2.3549723      16800.608    
   2999000   319.90961      1.4995         0.0034130817   0.0035182064   0.0030849171  -32.950753      1356.7657      1356.7657      1356.7657      2.497552e+09   0.16081195    -1356241.1     -1356241.1      952.63619     -1355288.4     -33.684497     -34.721997     -30.445764      1.2209526      1.447048       2.3175861      16857.16     
   3000000   319.92845      1.5            0.0034090282   0.003516444    0.0030803497  -32.916595      1357.0371      1357.0371      1357.0371      2.4990511e+09  0.16071548    -1355647.3     -1355647.3      952.69228     -1354694.7     -33.644493     -34.704604     -30.400688      1.2166008      1.4589408      2.2769666      16673.369    
   3001000   319.92791      1.5005         0.0034074499   0.0035113863   0.0030778199  -32.886442      1357.3085      1357.3085      1357.3085      2.5005508e+09  0.16061909    -1355054.2     -1355054.2      952.69069     -1354101.5     -33.628916     -34.654689     -30.375721      1.234465       1.4487913      2.2534742      16838.922    
   3002000   319.99141      1.501          0.0034084416   0.0035050416   0.0030772918  -32.867094      1357.5799      1357.5799      1357.5799      2.5020512e+09  0.16052278    -1354461.5     -1354461.5      952.87977     -1353508.6     -33.638703     -34.592071     -30.370508      1.2726943      1.4275028      2.2611262      16903.349    
   3003000   320.10196      1.5015         0.0034115967   0.0034991869   0.0030756963  -32.852964      1357.8513      1357.8513      1357.8513      2.5035521e+09  0.16042654    -1353869       -1353869        953.20899     -1352915.8     -33.669842     -34.534289     -30.354762      1.312831       1.411587       2.2912897      16906.789    
   3004000   320.17397      1.502          0.0034158861   0.0034943683   0.0030718413  -32.838542      1358.1227      1358.1227      1358.1227      2.5050536e+09  0.16033038    -1353276.4     -1353276.4      953.4234      -1352323       -33.712175     -34.486733     -30.316717      1.3280948      1.3919701      2.3121322      16835.833    
   3005000   320.14248      1.5025         0.003419689    0.0034924463   0.0030669963  -32.82879       1358.3941      1358.3941      1358.3941      2.5065558e+09  0.1602343     -1352683.8     -1352683.8      953.32963     -1351730.4     -33.749706     -34.467765     -30.2689        1.3084884      1.3600348      2.3106791      16935.295    
   3006000   320.02601      1.503          0.0034210631   0.0034938855   0.0030627537  -32.824088      1358.6655      1358.6655      1358.6655      2.5080585e+09  0.16013829    -1352090.9     -1352090.9      952.98281     -1351137.9     -33.763267     -34.481969     -30.227029      1.2712256      1.3377514      2.289463       16753.545    
   3007000   319.88484      1.5035         0.0034182246   0.0034981362   0.0030615087  -32.824639      1358.9369      1358.9369      1358.9369      2.5095618e+09  0.16004237    -1351497.6     -1351497.6      952.56244     -1350545       -33.735254     -34.52392      -30.214742      1.228373       1.3366657      2.2618681      16838.205    
   3008000   319.77247      1.504          0.0034119166   0.0035032491   0.0030624682  -32.823863      1359.2083      1359.2083      1359.2083      2.5110658e+09  0.15994651    -1350903.5     -1350903.5      952.22781     -1349951.3     -33.672999     -34.57438      -30.224211      1.1812683      1.3520688      2.2573613      16666.683    
   3009000   319.72061      1.5045         0.0034043908   0.0035057481   0.0030630761  -32.809326      1359.4797      1359.4797      1359.4797      2.5125703e+09  0.15985074    -1350309.1     -1350309.1      952.07339     -1349357       -33.598725     -34.599044     -30.230211      1.1421843      1.3776729      2.2897161      16605.203    
   3010000   319.73072      1.505          0.0033973356   0.0035044439   0.0030643814  -32.78612       1359.7511      1359.7511      1359.7511      2.5140754e+09  0.15975504    -1349714.8     -1349714.8      952.10348     -1348762.6     -33.529095     -34.586172     -30.243093      1.1251016      1.4039962      2.3467493      16708.74     
   3011000   319.76586      1.5055         0.0033921692   0.00349971     0.0030675247  -32.763891      1360.0226      1360.0226      1360.0226      2.5155812e+09  0.15965941    -1349120.8     -1349120.8      952.20813     -1348168.5     -33.478107     -34.539452     -30.274115      1.1327183      1.4252024      2.3979981      16528.266    
   3012000   319.76946      1.506          0.0033903575   0.0034945692   0.003069748   -32.748334      1360.294       1360.294       1360.294       2.5170875e+09  0.15956387    -1348527       -1348527        952.21883     -1347574.7     -33.460227     -34.488716     -30.296058      1.1566907      1.4563844      2.4233726      16661.172    
   3013000   319.72067      1.5065         0.0033907938   0.0034906635   0.0030675197  -32.72959       1360.5654      1360.5654      1360.5654      2.5185944e+09  0.15946839    -1347933.1     -1347933.1      952.07355     -1346981.1     -33.464533     -34.45017      -30.274066      1.1909402      1.5040226      2.4137437      16592.018    
   3014000   319.65664      1.507          0.0033906238   0.0034862826   0.0030598935  -32.68953       1360.8368      1360.8368      1360.8368      2.520102e+09   0.159373      -1347339.3     -1347339.3      951.88289     -1346387.4     -33.462856     -34.406935     -30.198801      1.2202214      1.5440772      2.37538        16423.746    
   3015000   319.64508      1.5075         0.0033869888   0.0034799933   0.0030481281  -32.618177      1361.1082      1361.1082      1361.1082      2.5216101e+09  0.15927768    -1346746.3     -1346746.3      951.84846     -1345794.5     -33.426981     -34.344863     -30.082686      1.2390991      1.5608901      2.3352942      16755.919    
   3016000   319.70523      1.508          0.0033792096   0.0034721405   0.0030357548  -32.526046      1361.3796      1361.3796      1361.3796      2.5231188e+09  0.15918244    -1346155.1     -1346155.1      952.02758     -1345203.1     -33.350206     -34.267362     -29.960571      1.2636299      1.5456232      2.3136807      16376.878    
   3017000   319.79026      1.5085         0.0033710417   0.0034630844   0.0030274752  -32.442146      1361.651       1361.651       1361.651       2.5246282e+09  0.15908727    -1345565.7     -1345565.7      952.28078     -1344613.4     -33.269595     -34.177985     -29.878857      1.3050604      1.5133781      2.3044444      16582.51     
   3018000   319.83481      1.509          0.0033632615   0.0034536647   0.0030236451  -32.372962      1361.9224      1361.9224      1361.9224      2.5261381e+09  0.15899218    -1344977.9     -1344977.9      952.41344     -1344025.5     -33.19281      -34.08502      -29.841057      1.3518913      1.4925274      2.2978542      16528.784    
   3019000   319.81391      1.5095         0.0033543093   0.0034462578   0.0030214831  -32.312033      1362.1938      1362.1938      1362.1938      2.5276487e+09  0.15889716    -1344391.2     -1344391.2      952.35122     -1343438.8     -33.104459     -34.01192      -29.819719      1.3784617      1.4871863      2.2853747      16592.011    
   3020000   319.74451      1.51           0.0033445049   0.0034423605   0.0030186007  -32.257476      1362.4652      1362.4652      1362.4652      2.5291598e+09  0.15880223    -1343805.2     -1343805.2      952.14454     -1342853       -33.007697     -33.973457     -29.791273      1.365976       1.4743799      2.2664864      16734.811    
   3021000   319.65259      1.5105         0.0033353245   0.0034399486   0.0030129001  -32.200586      1362.7366      1362.7366      1362.7366      2.5306716e+09  0.15870736    -1343219.8     -1343219.8      951.87082     -1342267.9     -32.917093     -33.949653     -29.735012      1.318021       1.4411319      2.2412766      16627.778    
   3022000   319.54447      1.511          0.0033291443   0.0034369382   0.0030039069  -32.140766      1363.008       1363.008       1363.008       2.5321839e+09  0.15861257    -1342635       -1342635        951.54885     -1341683.4     -32.8561       -33.919943     -29.646257      1.2599353      1.3956391      2.2274596      16756.978    
   3023000   319.40927      1.5115         0.0033276781   0.0034330581   0.0029938802  -32.090193      1363.2794      1363.2794      1363.2794      2.5336969e+09  0.15851786    -1342050.6     -1342050.6      951.14626     -1341099.5     -32.841629     -33.881649     -29.547301      1.2185274      1.3545185      2.2509991      16745.313    
   3024000   319.24472      1.512          0.0033294179   0.0034284691   0.0029851854  -32.052216      1363.5509      1363.5509      1363.5509      2.5352104e+09  0.15842322    -1341466.6     -1341466.6      950.65625     -1340515.9     -32.858799     -33.836359     -29.461489      1.2105451      1.3341098      2.3020519      16732.738    
   3025000   319.08759      1.5125         0.0033316061   0.0034243115   0.0029799359  -32.028468      1363.8223      1363.8223      1363.8223      2.5367246e+09  0.15832866    -1340882.6     -1340882.6      950.18837     -1339932.4     -32.880396     -33.795327     -29.409681      1.2235083      1.3467888      2.3461323      16808.676    
   3026000   318.99716      1.513          0.003332944    0.0034214898   0.0029780995  -32.017545      1364.0937      1364.0937      1364.0937      2.5382394e+09  0.15823417    -1340298.6     -1340298.6      949.91907     -1339348.7     -32.893599     -33.767479     -29.391557      1.2367073  