ITEM: TIMESTEP
0
ITEM: NUMBER OF ATOMS
1000
ITEM: BOX BOUNDS pp pp pp
-1.0000000000000000e+02 5.1000000000000000e+03
-1.0000000000000000e+02 5.1000000000000000e+03
-1.0000000000000000e+02 5.1000000000000000e+03
ITEM: ATOMS type x y z ix iy iz
1 22.971 372.141 441.84 0 0 0
1 190.119 635.837 94.571 0 0 0
1 699.809 504.952 422.762 0 0 0
1 164.457 407.641 492.197 0 0 0
1 358.578 647.506 754.807 0 0 0
1 86.725 854.391 837.235 0 0 0
1 831.404 69.05 443.607 0 0 0
1 895.507 504.697 138.483 0 0 0
1 844.097 612.072 694.682 0 0 0
1 755.2 855.665 164.628 0 0 0
1 881.503 361.186 849.06 0 0 0
1 603.436 659.13 679.872 0 0 0
1 111.734 952.088 277.341 0 0 0
1 635.807 585.939 37.28 0 0 0
1 33.137 924.597 407.032 0 0 0
1 547.631 222.901 934.664 0 0 0
1 291.699 178.687 2.015 0 0 0
1 278.499 509.709 476.91 0 0 0
1 621.894 393.515 467.063 0 0 0
1 973.481 699.397 290.709 0 0 0
1 305.48 768.578 791.703 0 0 0
1 251.635 670.907 841.109 0 0 0
1 862.872 827.954 928.526 0 0 0
1 182.215 488.24 120.644 0 0 0
1 564.496 313.486 226.601 0 0 0
1 661.007 974.984 843.317 0 0 0
1 847.794 733.19 693.112 0 0 0
1 260.761 423.856 980.029 0 0 0
1 183.169 562.584 586.124 0 0 0
1 67.728 34.014 193.882 0 0 0
1 776.091 719.465 991.956 0 0 0
1 727.975 673.787 464.133 0 0 0
1 656.646 812.245 444.901 0 0 0
1 803.896 699.458 5.095 0 0 0
1 833.104 484.385 357.666 0 0 0
1 28.927 702.671 883.317 0 0 0
1 761.379 620.668 236.186 0 0 0
1 135.193 473.243 691.724 0 0 0
1 187.116 345.068 593.395 0 0 0
1 666.024 915.002 372.383 0 0 0
1 133.099 613.252 264.613 0 0 0
1 506.705 642.246 837.693 0 0 0
1 305.557 969.742 723.961 0 0 0
1 554.741 533.099 180.201 0 0 0
1 648.239 541.824 786.129 0 0 0
1 61.075 724.393 193.48 0 0 0
1 679.648 91.319 622.665 0 0 0
1 500.175 550.066 316.321 0 0 0
1 883.78 986.178 877.77 0 0 0
1 357.099 707.146 338.707 0 0 0
1 2.086 464.561 528.152 0 0 0
1 48.672 248.663 787.907 0 0 0
1 377.902 207.357 446.505 0 0 0
1 894.979 855.347 17.523 0 0 0
1 865.238 592.082 291.34 0 0 0
1 410.02 145.002 615.818 0 0 0
1 615.445 854.573 226.5 0 0 0
1 691.888 429.871 304.112 0 0 0
1 69.34 89.024 966.809 0 0 0
1 209.312 418.218 374.987 0 0 0
1 667.53 463.695 694.464 0 0 0
1 7.889 852.892 250.957 0 0 0
1 614.832 709.031 875.178 0 0 0
1 4349.05 294.433 270.581 0 0 0
1 4127.52 669.059 25.644 0 0 0
1 4639.24 311.691 441.689 0 0 0
1 4331.38 804.05 731.588 0 0 0
1 4717.59 884.733 798.117 0 0 0
1 4344.33 851.496 95.939 0 0 0
1 4055.31 909.842 776.92 0 0 0
1 4052.09 55.503 804.04 0 0 0
1 4701.59 89.642 681.687 0 0 0
1 4696.97 246.503 177.743 0 0 0
1 3969.93 283.439 700.333 0 0 0
1 4433.23 665.13 306.201 0 0 0
1 4954.14 84.255 362.008 0 0 0
1 4902.06 934.562 199.334 0 0 0
1 4367.68 241.492 536.878 0 0 0
1 4308.82 638.382 24.017 0 0 0
1 4140.07 131.326 527.882 0 0 0
1 4847.56 68.673 151.331 0 0 0
1 4961.73 416.424 586.778 0 0 0
1 4781.65 360.052 56.801 0 0 0
1 4892.41 902.253 28.206 0 0 0
1 4749.5 524.882 822.95 0 0 0
1 4570.98 783.286 832.864 0 0 0
1 4452.12 811.884 541.783 0 0 0
1 3794.55 614.14 915.447 0 0 0
1 4353.36 57.336 56.051 0 0 0
1 4080.82 411.238 430.866 0 0 0
1 4995.99 815.634 939.681 0 0 0
1 4206.56 263.82 500.054 0 0 0
1 3854.72 270.199 476.565 0 0 0
1 3854.53 96.353 80.904 0 0 0
1 3858.06 301.151 80.756 0 0 0
1 4084.25 857.354 591.09 0 0 0
1 4836.19 194.821 492.454 0 0 0
1 4077.95 205.346 179.395 0 0 0
1 4135.93 677.208 568.066 0 0 0
1 3833.95 735.346 901.58 0 0 0
1 5000 526.382 712.149 0 0 0
1 4944.24 501.284 917.137 0 0 0
1 3952.94 891.306 937.339 0 0 0
1 4231.59 313.179 864.106 0 0 0
1 4621.68 832.705 648.15 0 0 0
1 4050.78 226.919 541.368 0 0 0
1 3805.01 951.746 978.315 0 0 0
1 3862.17 942.176 332.106 0 0 0
1 4005.94 746.014 158.161 0 0 0
1 3970.65 362.154 394.26 0 0 0
1 4567.99 413.972 578.214 0 0 0
1 3775.5 165.63 531.627 0 0 0
1 4621.49 990.003 957.8 0 0 0
1 4451.82 973.164 540.072 0 0 0
1 3951.51 46.709 447.172 0 0 0
1 4991.31 59.299 154.892 0 0 0
1 4275.48 494.772 361.699 0 0 0
1 4188.23 421.96 937.838 0 0 0
1 4715.2 501.76 121.378 0 0 0
1 4259.09 456.487 636.724 0 0 0
1 4921.42 470.201 117.977 0 0 0
1 3832.02 98.212 615.92 0 0 0
1 3746.25 288.362 591.949 0 0 0
1 4616.71 968.444 233.297 0 0 0
1 3872.92 912.418 116.418 0 0 0
1 303.377 3936.49 902.957 0 0 0
1 973.879 4150.93 399.974 0 0 0
1 856.039 4300.11 377.818 0 0 0
1 27.395 4455.88 644.324 0 0 0
1 377.495 3903.05 472.46 0 0 0
1 971.126 4946.23 917.151 0 0 0
1 741.303 4076.8 843.007 0 0 0
1 821.816 3967.72 915.46 0 0 0
1 483.672 4623.93 230.26 0 0 0
1 48.867 4869.49 237.616 0 0 0
1 511.976 3912.39 99.958 0 0 0
1 37.856 4656.23 626.739 0 0 0
1 535.434 4322.29 782.621 0 0 0
1 186.901 4025.3 616.734 0 0 0
1 829.651 4475.26 51.332 0 0 0
1 867.708 4135.32 218.115 0 0 0
1 854.094 4938.71 356.07 0 0 0
1 493.312 4396.66 207.152 0 0 0
1 26.928 4621.83 138.082 0 0 0
1 738.468 4376.08 749.658 0 0 0
1 181.266 4393.13 760.354 0 0 0
1 125.634 4588.63 577.383 0 0 0
1 884.653 4171.07 564.017 0 0 0
1 552.3 4183.2 327.949 0 0 0
1 366.779 4803.6 925.75 0 0 0
1 176.098 3919.15 84.803 0 0 0
1 501.561 4243.75 136.01 0 0 0
1 412.874 4258.93 858.086 0 0 0
1 231.215 3859.83 413.699 0 0 0
1 0 4492.08 508.501 0 0 0
1 521.112 3890.1 599.619 0 0 0
1 535.889 4280.27 431.453 0 0 0
1 709.871 4601.75 711.541 0 0 0
1 704.969 4737.57 380.438 0 0 0
1 807.213 4634.9 938.594 0 0 0
1 241.147 4307.25 309.265 0 0 0
1 191.834 4831.19 42.266 0 0 0
1 234.248 4541.15 754.126 0 0 0
1 853.728 3818.6 266.263 0 0 0
1 769.523 4965.29 621.021 0 0 0
1 168.044 4058.82 45.998 0 0 0
1 173.573 4961.51 410.263 0 0 0
1 667.349 4814.38 568.62 0 0 0
1 283.318 3990.11 412.031 0 0 0
1 779.304 4791.79 266.606 0 0 0
1 958.731 4098.47 145.527 0 0 0
1 403.27 4329.69 969.201 0 0 0
1 199.853 3856.94 539.176 0 0 0
1 287.838 4754.78 33.179 0 0 0
1 830.245 3884.2 565.951 0 0 0
1 598.881 4482.83 420.923 0 0 0
1 95.014 4815.43 860.324 0 0 0
1 130.091 4771.3 235.058 0 0 0
1 970.502 4751.56 341.24 0 0 0
1 410.331 4459.83 428.865 0 0 0
1 701.52 4417.14 206.921 0 0 0
1 840.231 3876.65 380.151 0 0 0
1 796.982 4345.14 273.685 0 0 0
1 900.438 3878.32 945.656 0 0 0
1 378.061 4104.97 535.647 0 0 0
1 73.336 4056.39 137.481 0 0 0
1 433.96 3910.07 323.685 0 0 0
1 189.595 3844.68 938.932 0 0 0
1 150.248 769.026 3789.84 0 0 0
1 556.739 262.179 4992.86 0 0 0
1 761.158 493.01 4853.11 0 0 0
1 656.468 430.953 4120.94 0 0 0
1 572.329 418.731 4818.39 0 0 0
1 274.231 782.898 4379.89 0 0 0
1 954.475 309.847 4768.87 0 0 0
1 5.369 698.499 4409.27 0 0 0
1 906.498 103.262 4789.78 0 0 0
1 471.348 735.803 4808.89 0 0 0
1 968.64 535.181 4434.3 0 0 0
1 947.023 890.219 4029.18 0 0 0
1 760.843 865.779 4384.64 0 0 0
1 255.904 619.341 3902.59 0 0 0
1 255.624 760.384 4114.65 0 0 0
1 806.731 239.216 4973.42 0 0 0
1 818.551 638.162 4219.6 0 0 0
1 133.825 134.729 4308.68 0 0 0
1 37.792 199.776 4118.53 0 0 0
1 0 722.694 3761.64 0 0 0
1 505.465 883.847 3869.43 0 0 0
1 293.713 705.775 3736.31 0 0 0
1 120.929 745.716 4852.41 0 0 0
1 125.335 526.638 3842.19 0 0 0
1 942.039 640.221 4580.95 0 0 0
1 529.015 113.075 4340.57 0 0 0
1 529.342 852.639 4061.18 0 0 0
1 532.047 865.789 4814.26 0 0 0
1 251.194 126.344 4727.36 0 0 0
1 560.177 685.996 4413.62 0 0 0
1 634.905 808.101 4997.84 0 0 0
1 321.892 392.202 3821.62 0 0 0
1 577.224 331.144 3965.53 0 0 0
1 286.565 262.675 3888.59 0 0 0
1 280.706 201.601 4850.75 0 0 0
1 954.124 306.63 4524.13 0 0 0
1 329.852 101.165 4918.69 0 0 0
1 619.625 740.144 4175.4 0 0 0
1 514.912 150.442 4165.55 0 0 0
1 348.9 724.66 4790.25 0 0 0
1 309.445 318.921 4868.35 0 0 0
1 946.675 529.726 3783.38 0 0 0
1 375.873 548.002 4834.19 0 0 0
1 918.758 97.601 4169.33 0 0 0
1 423.869 504.724 4017.1 0 0 0
1 655.68 770.261 3916.59 0 0 0
1 901.201 166.241 4645.1 0 0 0
1 585.089 714.669 3806.35 0 0 0
1 313.55 809.258 4254.09 0 0 0
1 820.311 135.284 4897.4 0 0 0
1 674.325 215.959 4357.6 0 0 0
1 318.895 604.139 4504.33 0 0 0
1 290.879 62.241 3851.32 0 0 0
1 209.311 386.848 3969.48 0 0 0
1 207.744 758.536 3940.03 0 0 0
1 571.728 526.697 4535.48 0 0 0
1 352.207 688.526 4394.81 0 0 0
1 88.85 320.266 4402.96 0 0 0
1 379.705 47.315 4651.72 0 0 0
1 138.587 735.295 4225.45 0 0 0
1 488.97 129.783 4902.75 0 0 0
1 645.429 612.355 4463.07 0 0 0
1 4075.49 4002.58 203.259 0 0 0
1 3856.83 4336 195.999 0 0 0
1 4839.84 4744.3 661.002 0 0 0
1 3887.18 4209.44 879.968 0 0 0
1 4518.1 4384.99 394.809 0 0 0
1 4168.07 4636.13 240.109 0 0 0
1 4204.96 4214.16 586.237 0 0 0
1 4594.52 4820.27 655.038 0 0 0
1 4376.46 3967.81 280.829 0 0 0
1 4944.52 4065.29 213.052 0 0 0
1 4733.47 4731.33 188.071 0 0 0
1 4938.79 4671.58 932.773 0 0 0
1 4077.64 4604.43 902.904 0 0 0
1 4476.71 4083.51 946.958 0 0 0
1 4305.84 4179.79 527.59 0 0 0
1 4134.01 4187.04 893.542 0 0 0
1 4049.11 4471.91 914.519 0 0 0
1 4219.81 3946.87 880.546 0 0 0
1 4330.02 4897.34 376.047 0 0 0
1 4687.95 3733.51 155.295 0 0 0
1 4440.24 4544.86 461.571 0 0 0
1 4314.72 4550.13 345.41 0 0 0
1 3901.8 3790.72 58.54 0 0 0
1 4486.26 3700.35 121.746 0 0 0
1 4866.47 3910.59 576.895 0 0 0
1 4665.44 3915.29 376.961 0 0 0
1 4831.34 3894.81 222.262 0 0 0
1 4780.49 3806.09 620.029 0 0 0
1 4113.23 4007.41 23.135 0 0 0
1 4391.73 4781.66 739.568 0 0 0
1 4998.17 4389.62 272.21 0 0 0
1 4735.29 4763.73 38.03 0 0 0
1 4515.29 4273.65 32.906 0 0 0
1 4231.3 4642.32 532.013 0 0 0
1 4995.67 4848.64 729.239 0 0 0
1 4059.27 4859.03 724.372 0 0 0
1 4815.99 4277.5 507.278 0 0 0
1 4108.47 3875.03 915.341 0 0 0
1 4054.68 4648.53 554.991 0 0 0
1 4446.97 4623.9 737.967 0 0 0
1 4189.89 3993.54 146.759 0 0 0
1 4658.42 3962.8 32.346 0 0 0
1 3837.21 4961.86 365.218 0 0 0
1 3849.17 4909.33 499.043 0 0 0
1 4365.41 4384.4 767.814 0 0 0
1 3870.74 4904.27 80.521 0 0 0
1 4194.93 4564.84 703.455 0 0 0
1 4289.05 4635 243.87 0 0 0
1 4229.36 4426.16 435.695 0 0 0
1 4726.24 4970.09 802.162 0 0 0
1 4866.35 4017.94 35.869 0 0 0
1 4544.68 4553.66 631.195 0 0 0
1 4270.93 4855.94 692.325 0 0 0
1 4091.63 4622.02 332.839 0 0 0
1 4173.74 4201.82 370.212 0 0 0
1 3929.3 4238.18 105.801 0 0 0
1 4060.14 4743.3 777.909 0 0 0
1 4574.47 3797.38 643.672 0 0 0
1 4521.27 4222.65 259.11 0 0 0
1 4786.67 4342.96 687.557 0 0 0
1 3908.53 4055.45 831.352 0 0 0
1 4164.34 4494.29 831.225 0 0 0
1 4105.64 3858.37 468.395 0 0 0
1 4515.86 651.217 4597.35 0 0 0
1 3910.13 796.574 4846.89 0 0 0
1 4017.32 776.213 4072.88 0 0 0
1 4245.24 255.213 4132.57 0 0 0
1 4835.54 127.962 4471.08 0 0 0
1 4705.31 674.174 4650.79 0 0 0
1 4575.81 505.265 3806.44 0 0 0
1 3681.41 520.846 4963.55 0 0 0
1 4520 63.419 3868.95 0 0 0
1 4411.74 511.513 4578.57 0 0 0
1 3935.83 382.599 3794.1 0 0 0
1 4297.86 408.782 3629.49 0 0 0
1 4916.19 217.85 4908.52 0 0 0
1 4412.71 716.435 4466.82 0 0 0
1 3850.51 606.787 4087.16 0 0 0
1 3688.39 786.668 4882.89 0 0 0
1 4255.99 302.483 3913.44 0 0 0
1 4851.27 77.225 4933.88 0 0 0
1 4557.59 773.044 4616.83 0 0 0
1 3927.09 435.557 4967.89 0 0 0
1 4577.87 868.354 4695.44 0 0 0
1 4548.24 366.494 4586.31 0 0 0
1 3826.71 725.233 4897.89 0 0 0
1 3977.81 213.771 4312.04 0 0 0
1 4408.07 401.565 4853.22 0 0 0
1 4134.05 712.227 4219.8 0 0 0
1 3907.13 632.618 3671.44 0 0 0
1 4334.39 465.01 4488.54 0 0 0
1 3630.76 227.534 4655.74 0 0 0
1 4767.75 227.828 4461.67 0 0 0
1 4015.9 120.92 4127.88 0 0 0
1 4134.07 845.099 4518.5 0 0 0
1 4227.77 716.268 4682.39 0 0 0
1 4410.03 903.916 4198.86 0 0 0
1 4604.55 898.833 3937.22 0 0 0
1 4091.74 170.101 3803.67 0 0 0
1 4980.56 640.182 4767.25 0 0 0
1 4284.29 412.724 3801.37 0 0 0
1 3964.44 46.414 3878.31 0 0 0
1 3723.36 429.018 4723.34 0 0 0
1 4382.45 95.708 3898.71 0 0 0
1 4512.7 525.173 4741.06 0 0 0
1 4167.73 379.34 4940.02 0 0 0
1 4454.59 183.663 4503.95 0 0 0
1 4969.61 412.208 4536.6 0 0 0
1 4165.99 767.532 4841.23 0 0 0
1 4776.62 172.12 3975.19 0 0 0
1 3683.38 642.028 4807.96 0 0 0
1 4777.02 613.896 3728.67 0 0 0
1 4688.44 410.721 4098.41 0 0 0
1 4292.15 675.236 3890.06 0 0 0
1 3689.78 869.805 4497.8 0 0 0
1 3643.43 175.817 4130.55 0 0 0
1 3902.06 905.87 4906.68 0 0 0
1 4807.07 617.331 4818.74 0 0 0
1 4816.81 297.242 3961.27 0 0 0
1 4619.21 335.634 4299.34 0 0 0
1 3920.08 983.764 4303.5 0 0 0
1 4927.27 339.708 4632.41 0 0 0
1 4070.93 314.34 4016.13 0 0 0
1 3910.72 31.185 4439.47 0 0 0
1 4097.9 525.352 4182.26 0 0 0
1 161.423 3147.57 2568.19 0 0 0
1 51.038 2674.3 2500.05 0 0 0
1 411.058 3264.51 2500.27 0 0 0
1 462.803 2751.83 2503.41 0 0 0
1 762.012 2670.38 2710.95 0 0 0
1 633.51 2501.86 2500.45 0 0 0
1 928.424 2500.97 3346.92 0 0 0
1 0.288 2595.4 2587.24 0 0 0
1 415.409 3101.41 3066.8 0 0 0
1 2.186 3002.37 2501.85 0 0 0
1 357.936 2559.82 2577.28 0 0 0
1 245.774 2641.08 2500.86 0 0 0
1 796.718 3593.9 2500.05 0 0 0
1 394.597 2960.13 2500.02 0 0 0
1 1658.63 2502.62 2621.78 0 0 0
1 0.012 4999.97 4999.98 0 0 0
1 0.304 2503.44 2503.12 0 0 0
1 1079.21 2500 2592.98 0 0 0
1 1439.19 2500 2593.5 0 0 0
1 714.752 2500 2821.25 0 0 0
1 2156.47 2500.03 2721.78 0 0 0
1 147.205 2500.01 3279.4 0 0 0
1 2499.69 4998.91 4998.8 0 0 0
1 835.608 2500.31 2755.66 0 0 0
1 291.337 2501.17 2673.96 0 0 0
1 93.545 3579.63 2526.4 0 0 0
1 421.624 2627.99 2500 0 0 0
1 2499.98 2500.06 4189.4 0 0 0
1 0.008 2610.4 2930.86 0 0 0
1 2.086 2874.13 2500.95 0 0 0
1 642.617 2694.17 2636.72 0 0 0
1 458.681 2502.77 2502.28 0 0 0
1 1.677 3472 2500.49 0 0 0
1 548.284 2620.01 2500.14 0 0 0
1 904.881 2854.96 2502.12 0 0 0
1 1588.17 2500 2500.26 0 0 0
1 1249.75 2500.14 2503.33 0 0 0
1 1348.97 2617.28 2500.1 0 0 0
1 1093.64 2679.33 2500 0 0 0
1 1165.15 2500.57 2717.07 0 0 0
1 966.537 2501.65 2663.49 0 0 0
1 0.301 2501.41 2678.01 0 0 0
1 554.589 2703.6 2734.26 0 0 0
1 630.567 2500.08 2681.64 0 0 0
1 302.852 2500.62 2818.61 0 0 0
1 1309.9 2500 2657.49 0 0 0
1 0.732 2500.03 3064.93 0 0 0
1 1997.24 3147.62 3635.41 0 0 0
1 1304.75 2743.18 3458.99 0 0 0
1 922.478 2750.13 2915.37 0 0 0
1 399.537 2584.5 2772.38 0 0 0
1 1736.07 2500.05 2502.19 0 0 0
1 611.259 2724.4 2500.04 0 0 0
1 0.352 2500.11 3239.04 0 0 0
1 111.309 2822.14 2550.57 0 0 0
1 0.044 2500.05 3641.13 0 0 0
1 505.584 2545.04 2623.89 0 0 0
1 853.181 2917.17 2614.11 0 0 0
1 939.128 2500.12 2502.06 0 0 0
1 245.95 2503.68 2501.48 0 0 0
1 0.217 2750.5 2732.84 0 0 0
1 2499.96 4999.98 4315.65 0 0 0
1 1353.71 2894.43 3819.49 0 0 0
1 4263.23 3891.45 3995.48 0 0 0
1 3830.33 4122.78 4074.78 0 0 0
1 4554.9 4140.57 4737.06 0 0 0
1 4566.94 4240.7 4645.69 0 0 0
1 4544.65 4281.81 4812.81 0 0 0
1 4305.74 4803.97 4442.07 0 0 0
1 3920.75 4823.17 4451.74 0 0 0
1 4871.53 4621.51 4986.16 0 0 0
1 3764.68 4488.94 4004.48 0 0 0
1 4843.03 4879.48 3985.04 0 0 0
1 4920.48 4616.5 4223.32 0 0 0
1 4117.38 4324.72 4861.25 0 0 0
1 4485.7 4921.57 3903.8 0 0 0
1 3985.41 4663.02 4714.6 0 0 0
1 4033.69 4138.48 4222.49 0 0 0
1 4197.24 4648.63 4560.26 0 0 0
1 4207.26 4859.93 4208.5 0 0 0
1 4154.43 4157.28 4446.31 0 0 0
1 4493.81 4528.22 4071.78 0 0 0
1 4731.78 3881.87 4565.77 0 0 0
1 4335.55 4618.63 4885.47 0 0 0
1 4883.38 4928.07 4860.48 0 0 0
1 4717.15 4595.36 4238.38 0 0 0
1 4075.03 4854.7 4297.86 0 0 0
1 4835.06 4421.68 4300.26 0 0 0
1 4434.65 4129.09 4232.1 0 0 0
1 4089.91 4502.95 4731.45 0 0 0
1 4913.32 3867.63 3974.51 0 0 0
1 4088.31 4605.39 4994.58 0 0 0
1 3922.51 4258.44 4438.55 0 0 0
1 4907.13 3778.04 4601.6 0 0 0
1 3943.52 3902.97 4349.08 0 0 0
1 4578.13 4644.07 4967.89 0 0 0
1 4760.68 4232.06 4658.15 0 0 0
1 3780.02 4750.28 4901.68 0 0 0
1 4531.6 4854.65 4113.99 0 0 0
1 4557.53 3864.64 4553.47 0 0 0
1 4484.77 4953.57 4932.51 0 0 0
1 4619.04 4475.85 4091.77 0 0 0
1 4163.57 4674.17 4682.47 0 0 0
1 3956.95 3788.08 4029.34 0 0 0
1 3758.04 4791.58 4185.62 0 0 0
1 3958.49 4121.44 4327.14 0 0 0
1 4048.37 4989.14 4264.59 0 0 0
1 4673.61 3919.1 4700.66 0 0 0
1 4472.94 4728.1 4886.83 0 0 0
1 4689.7 4073.84 4688.46 0 0 0
1 4839.05 4737.9 4947.72 0 0 0
1 4249.21 4428.14 3934.85 0 0 0
1 4387.66 3781.69 4450.67 0 0 0
1 3958.11 4558.54 3953.78 0 0 0
1 4273.08 4900.64 4895.8 0 0 0
1 3986.41 3777.26 4635.11 0 0 0
1 4352.85 4977.73 4212.6 0 0 0
1 4526.46 4350.99 4587.08 0 0 0
1 3864.72 4447.69 4084.46 0 0 0
1 4218.85 4618.73 4419.1 0 0 0
1 3951.32 4148.98 4087.05 0 0 0
1 4192.07 4442.55 4423.32 0 0 0
1 4923.89 3891.99 4149.93 0 0 0
1 4871.95 4016.55 3843.62 0 0 0
1 3932.14 4419.25 4701.43 0 0 0
2 963.945 548.465 817.195 0 0 0
2 396.953 714.022 562.765 0 0 0
2 726.204 13.295 725.576 0 0 0
2 72.709 355.614 862.618 0 0 0
2 254.767 279.644 151.237 0 0 0
2 533.535 20.477 488.248 0 0 0
2 99.162 510.892 470.897 0 0 0
2 464.328 454.533 239.132 0 0 0
2 517.515 534.314 720.863 0 0 0
2 552.601 427.984 610.316 0 0 0
2 916.496 735.211 833.136 0 0 0
2 175.923 954.26 168.05 0 0 0
2 787.076 808.31 768.165 0 0 0
2 12.112 614.091 51.683 0 0 0
2 499.367 260.11 805.869 0 0 0
2 731.744 243.443 521.141 0 0 0
2 877.256 221.669 551.482 0 0 0
2 794.163 454.862 524.99 0 0 0
2 0.78 628.893 629.599 0 0 0
2 182.781 60.889 488.963 0 0 0
2 100.402 366.606 739.671 0 0 0
2 859.96 801.414 441.523 0 0 0
2 342.098 449.636 219.69 0 0 0
2 623.228 341.875 839.443 0 0 0
2 728.754 191.607 175.29 0 0 0
2 330.679 350.852 342.102 0 0 0
2 257.559 210.939 697.664 0 0 0
2 360.481 854.292 399.923 0 0 0
2 370.954 496.116 802.241 0 0 0
2 508.249 204.72 126.205 0 0 0
2 769.179 112.964 815.198 0 0 0
2 197.867 141.577 846.014 0 0 0
2 833.835 447.841 682.132 0 0 0
2 966.313 379.859 386.122 0 0 0
2 249.111 527.914 917.631 0 0 0
2 676.456 82.592 222.656 0 0 0
2 429.561 100.032 872.791 0 0 0
2 522.886 925.152 261.373 0 0 0
2 548.88 446.273 908.212 0 0 0
2 300.591 759.919 638.119 0 0 0
2 359.774 820.027 136.291 0 0 0
2 90.801 39.82 726.221 0 0 0
2 469.617 632.805 667.224 0 0 0
2 591.997 72.331 342.216 0 0 0
2 479.961 839.851 382.366 0 0 0
2 106.546 677.495 596.338 0 0 0
2 260.766 920.283 275.458 0 0 0
2 470.994 837.946 195.468 0 0 0
2 181.928 948.242 46.744 0 0 0
2 859.673 350.705 336.839 0 0 0
2 367.778 593.394 289.768 0 0 0
2 539.798 97.77 30.329 0 0 0
2 821.425 78.776 198.442 0 0 0
2 208.612 688.855 338.928 0 0 0
2 173.517 92.252 344.359 0 0 0
2 501.235 9.686 912.08 0 0 0
2 565.613 436.17 786.661 0 0 0
2 695.747 172.655 912.046 0 0 0
2 376.111 735.981 885.901 0 0 0
2 608.292 430.422 215.703 0 0 0
2 389.919 1016.25 335.88 0 0 0
2 421.091 285.901 191.508 0 0 0
2 68.203 230.1 215.453 0 0 0
2 4292.76 266.112 705.693 0 0 0
2 4204.82 703.157 466.384 0 0 0
2 4455.58 667.978 852.072 0 0 0
2 4645.72 833.376 977.708 0 0 0
2 4350.49 131.471 260.158 0 0 0
2 4828.1 440.009 677.968 0 0 0
2 3981.9 441.217 822.374 0 0 0
2 4459.86 307.959 998.921 0 0 0
2 4010.82 643.899 765.293 0 0 0
2 4557.8 754.223 952.15 0 0 0
2 3849.88 272.421 826.267 0 0 0
2 4520.29 88.641 51.031 0 0 0
2 3968.13 625.847 184.137 0 0 0
2 4292.71 454.032 107.924 0 0 0
2 3748.67 732.552 331.285 0 0 0
2 4880.93 639.467 663.798 0 0 0
2 4963.06 592.746 562.386 0 0 0
2 3737.87 723.039 597.294 0 0 0
2 4430.49 328.578 667.334 0 0 0
2 4757.13 760.741 56.316 0 0 0
2 3810.86 141.92 351.345 0 0 0
2 4512.97 314.125 78.725 0 0 0
2 4861.31 129.883 772.115 0 0 0
2 4776.73 187.798 78.641 0 0 0
2 4919.16 470.629 782.979 0 0 0
2 4179.57 490.906 724.886 0 0 0
2 4120.65 516.93 514.608 0 0 0
2 3912.5 233.996 357.653 0 0 0
2 4126.06 762.989 119.03 0 0 0
2 4257.6 114.165 569.741 0 0 0
2 4970.38 717.989 521.199 0 0 0
2 4869.31 327.407 433.652 0 0 0
2 4987.65 621.481 892.471 0 0 0
2 4482.89 191.412 467.079 0 0 0
2 4308.05 960.297 182.441 0 0 0
2 4070.11 870.282 49.944 0 0 0
2 4765.7 404.978 303.805 0 0 0
2 4774.69 954.113 935.721 0 0 0
2 4493.62 267.599 372.051 0 0 0
2 4278.73 625.575 770.375 0 0 0
2 4830.22 89.282 431.604 0 0 0
2 4849.15 82.558 561.567 0 0 0
2 4889.48 20.25 892.714 0 0 0
2 4929.16 630.993 95.579 0 0 0
2 4613.14 426.185 67.803 0 0 0
2 4730.71 948.117 613.805 0 0 0
2 4731.8 228.855 704.354 0 0 0
2 4469.15 710.922 652.559 0 0 0
2 3814.43 390.847 711.518 0 0 0
2 4919.67 581.428 215.86 0 0 0
2 4386.64 465.539 943.852 0 0 0
2 4546.98 735.003 320.852 0 0 0
2 4562.49 523.849 746.936 0 0 0
2 4648.54 1025.31 760.269 0 0 0
2 4499.87 60.377 172.481 0 0 0
2 3629.09 658.824 547.374 0 0 0
2 4463.29 353.825 822.201 0 0 0
2 4928.18 619.918 386.288 0 0 0
2 3933.09 773.333 787.708 0 0 0
2 4542.43 872.993 56.894 0 0 0
2 4846.42 0.61 293.683 0 0 0
2 3919.93 138.323 246.073 0 0 0
2 496.454 2500 765.878 0 0 0
2 0.05 2585.87 1.349 0 0 0
2 150.272 2694.06 554.604 0 0 0
2 451.424 2501.55 1888.72 0 0 0
2 851.262 2500 719.209 0 0 0
2 1011.58 2500 84.381 0 0 0
2 2500 2969.29 0.002 0 0 0
2 59.379 2500 355.794 0 0 0
2 242.234 2500.01 189.335 0 0 0
2 712.003 2500 844.665 0 0 0
2 576.006 2500 525.712 0 0 0
2 180.289 2500 365.024 0 0 0
2 688.35 2500 1051.07 0 0 0
2 1015.54 2500 889.271 0 0 0
2 945.054 2500 641.598 0 0 0
2 125.221 2500.16 117.664 0 0 0
2 866.352 2500.52 0.042 0 0 0
2 71.573 2500 476.902 0 0 0
2 63.43 2500 934.979 0 0 0
2 111.074 2500.03 729.475 0 0 0
2 592.861 2500 940.323 0 0 0
2 399.405 2500 493.118 0 0 0
2 403.729 2500 346.844 0 0 0
2 914.503 2500 974.644 0 0 0
2 519.16 2500 409.003 0 0 0
2 132.893 2500.02 241.308 0 0 0
2 421.258 2500 860.677 0 0 0
2 673.888 2500 617.074 0 0 0
2 376.052 2500 215.613 0 0 0
2 310.094 2500 595.524 0 0 0
2 453.573 2500 97.567 0 0 0
2 853.733 2500 480.885 0 0 0
2 360.025 2500 1013.3 0 0 0
2 208.521 2500 801.301 0 0 0
2 969.001 2500 204.803 0 0 0
2 186.795 2500 926.574 0 0 0
2 1974.33 3023.85 1547.52 0 0 0
2 729.949 2500 724.305 0 0 0
2 261.383 2500 68.874 0 0 0
2 289.918 2500 300.612 0 0 0
2 951.932 2500 786.341 0 0 0
2 328.163 2500 783.223 0 0 0
2 475.001 2500 969.418 0 0 0
2 20.42 2500 809.686 0 0 0
2 403.449 2500 688.45 0 0 0
2 625.787 2500 311.162 0 0 0
2 161.742 2500 0.245 0 0 0
2 603.119 2500 161.611 0 0 0
2 802.897 2500 927.9 0 0 0
2 163.21 2500.04 619.9 0 0 0
2 473.255 2500 589.616 0 0 0
2 2.991 2500.94 112.864 0 0 0
2 295.244 2500 421.496 0 0 0
2 649.839 2500 429.836 0 0 0
2 0 2500 249.37 0 0 0
2 860.778 2500 358.76 0 0 0
2 306.161 2500 904.946 0 0 0
2 737.143 2500 513.925 0 0 0
2 818.26 2500 1057.74 0 0 0
2 22.162 2502.27 629.682 0 0 0
2 831.04 2500 599.911 0 0 0
2 197.971 2500.03 503.993 0 0 0
2 617.494 2500 769.094 0 0 0
2 791.896 375.674 4512.09 0 0 0
2 475.905 38.165 4544.01 0 0 0
2 737.804 808.529 3809.66 0 0 0
2 105.005 668.318 4321.42 0 0 0
2 316.204 442.306 4824.12 0 0 0
2 215.015 206.303 4446.69 0 0 0
2 57.33 594.414 4888.02 0 0 0
2 862.661 437.089 4424.35 0 0 0
2 236.746 633.539 4034.56 0 0 0
2 459.818 516.405 3791.99 0 0 0
2 490.672 346.939 4488.36 0 0 0
2 585.96 16.66 4182.09 0 0 0
2 428.187 671.652 4275.26 0 0 0
2 429.768 331.112 4872.34 0 0 0
2 679.117 626.863 3970.29 0 0 0
2 561.171 953.201 4270.99 0 0 0
2 86.754 492.17 4055.18 0 0 0
2 558.263 84.689 3856.16 0 0 0
2 723.163 103.71 3870.27 0 0 0
2 932.147 681.425 4714.76 0 0 0
2 423.846 769.995 4459.2 0 0 0
2 670.145 629.048 3741.87 0 0 0
2 326.6 43.422 4041.9 0 0 0
2 935.649 664.948 4834.63 0 0 0
2 388.882 233.397 4107.4 0 0 0
2 36.06 536.873 4322.17 0 0 0
2 909.749 772.733 4536.93 0 0 0
2 33.788 200.694 4399.74 0 0 0
2 813.449 3.972 4265.25 0 0 0
2 670.883 295.913 4252.1 0 0 0
2 154.751 218.919 4796.25 0 0 0
2 599.662 488.661 3826.69 0 0 0
2 965.961 205.387 4897.86 0 0 0
2 118 544.2 4719.12 0 0 0
2 701.555 189.84 4535.57 0 0 0
2 401.934 668.89 4127.69 0 0 0
2 745.938 675.616 4124.6 0 0 0
2 898.538 182.847 3837.32 0 0 0
2 859.836 809.659 4109.66 0 0 0
2 579.547 33.327 4021.57 0 0 0
2 931.355 698.71 3836.71 0 0 0
2 69.464 40.93 4103.76 0 0 0
2 938.492 196.601 4469.13 0 0 0
2 15.836 820.17 4693.62 0 0 0
2 276.715 953.585 4328.97 0 0 0
2 618.351 40.958 4519.24 0 0 0
2 497.783 432.974 4217.65 0 0 0
2 37.398 713.274 4771.04 0 0 0
2 160.539 559.47 3976.67 0 0 0
2 716.219 432.153 3953.87 0 0 0
2 908.212 326.917 4344.79 0 0 0
2 259.631 848.009 4817.48 0 0 0
2 467.317 435.98 4705.37 0 0 0
2 948.162 302.447 4193.85 0 0 0
2 773.263 557.285 4676.02 0 0 0
2 716.622 939.029 4253.69 0 0 0
2 371.206 280.526 4610.21 0 0 0
2 485.853 625.371 4660.75 0 0 0
2 409.344 818.597 4905.32 0 0 0
2 86.058 876.165 4885.77 0 0 0
2 473.526 627.054 3742.52 0 0 0
2 719.335 272.995 3872.59 0 0 0
2 4584.69 4187.96 646.937 0 0 0
2 3758.72 4880.27 947.151 0 0 0
2 4180.98 4197.17 22.618 0 0 0
2 4312.82 4972.92 577.556 0 0 0
2 4284.27 4506.23 2391.47 0 0 0
2 4715.44 3780.64 295.031 0 0 0
2 3828.02 4168.95 0.122 0 0 0
2 4761.9 4533.6 282.086 0 0 0
2 4916.35 4285.65 197.601 0 0 0
2 4996.12 3718.14 859.731 0 0 0
2 4459.74 3832.41 80.917 0 0 0
2 3691.76 4972.79 41.74 0 0 0
2 4315.89 4103.34 74.598 0 0 0
2 4196.24 4905.09 584.323 0 0 0
2 4991.17 2538.19 2206.03 0 0 0
2 4874.82 3732.53 828.866 0 0 0
2 4421.84 4449.98 177.796 0 0 0
2 4905.19 4089.23 425.745 0 0 0
2 4848.7 4159.52 294.946 0 0 0
2 3800.79 4502.14 136.028 0 0 0
2 4474.58 3773.56 294.571 0 0 0
2 3272.18 4902.24 1955.71 0 0 0
2 4778.8 2908.89 326.964 0 0 0
2 4654.61 4817.24 303.148 0 0 0
2 3844.9 4513.05 902.582 0 0 0
2 3773.58 4377.95 904.364 0 0 0
2 4001.95 3958.8 331.596 0 0 0
2 3740.21 4619.09 633.317 0 0 0
2 4372.04 4229.79 436.92 0 0 0
2 4303.76 3775.92 444.656 0 0 0
2 4891.21 2753.54 12.772 0 0 0
2 4228.28 4315.15 275.641 0 0 0
2 4977.61 4660.14 274.787 0 0 0
2 4459.42 3897.74 935.312 0 0 0
2 3923.53 3798.33 250.646 0 0 0
2 4017.16 4369.57 43.489 0 0 0
2 4801.57 4323.74 360.256 0 0 0
2 4453.1 4510.89 29.954 0 0 0
2 4150.07 3239.86 1423.68 0 0 0
2 4001.43 3801.83 511.46 0 0 0
2 4423.36 4224.35 917.662 0 0 0
2 4023.73 4717.65 440.609 0 0 0
2 3741.93 4110.45 394.454 0 0 0
2 4280.71 3930.8 637.654 0 0 0
2 4762.35 4104.25 203.98 0 0 0
2 4621.19 4311.12 780.144 0 0 0
2 4020.17 3870.74 12.431 0 0 0
2 4290.93 4965.95 966.173 0 0 0
2 4127.68 4134.27 532.857 0 0 0
2 4950.86 4841.21 268.806 0 0 0
2 4322.36 4846.58 502.119 0 0 0
2 3824.12 4694.07 147.824 0 0 0
2 4953.31 4831.49 933.435 0 0 0
2 3769.25 3803.99 846.257 0 0 0
2 4618.47 4490.7 498.495 0 0 0
2 4838.66 4887.95 672.92 0 0 0
2 4236.6 4622.36 54.249 0 0 0
2 4900.53 4940.1 825.625 0 0 0
2 4809.65 4231.63 877.094 0 0 0
2 3405.9 4970.91 2009.91 0 0 0
2 3770.83 4090.64 982.594 0 0 0
2 3743.28 4209.26 822.721 0 0 0
2 4910.81 3829.18 668.442 0 0 0
2 4026.51 850.011 4623.47 0 0 0
2 4844.68 406.713 3899.19 0 0 0
2 4908.54 100.697 4786.67 0 0 0
2 4719.54 597.191 4384.9 0 0 0
2 3868.03 326.737 3987.32 0 0 0
2 3924.1 664.498 4721.43 0 0 0
2 3803.01 166.097 4707.26 0 0 0
2 4895.76 4.526 4452.57 0 0 0
2 4623.11 80.871 3997.02 0 0 0
2 4358.32 309.055 4550.53 0 0 0
2 4168.51 331.778 4388.59 0 0 0
2 4274.18 135.797 3799.31 0 0 0
2 4834.65 45.61 4600.39 0 0 0
2 4482.39 106.191 4815.99 0 0 0
2 3988.74 313.407 4151.47 0 0 0
2 4731.67 386.763 3800.78 0 0 0
2 4534.96 177.676 4022.42 0 0 0
2 4009.64 330.137 4928.27 0 0 0
2 4625.11 76.479 4773.44 0 0 0
2 4868.32 646.943 4252.11 0 0 0
2 4911.42 864.857 4617.12 0 0 0
2 3839.49 884.745 4793.87 0 0 0
2 4289.08 295.004 4809.09 0 0 0
2 4202.12 514.811 4260.43 0 0 0
2 4045.03 749.006 4750.14 0 0 0
2 3855.8 801.67 3763.51 0 0 0
2 3754.54 952.814 4960.23 0 0 0
2 4167.39 887.599 4627.58 0 0 0
2 4327.47 135.486 4308.38 0 0 0
2 4474.5 241.897 3914.67 0 0 0
2 4900.82 731.313 4001.23 0 0 0
2 4120.04 559.522 3764.31 0 0 0
2 4834.91 878.887 4868.85 0 0 0
2 4080.5 501.557 4015.09 0 0 0
2 4381.87 192.22 3999.84 0 0 0
2 4692.97 704.868 4457.07 0 0 0
2 4536.65 410.858 4252.72 0 0 0
2 3847.21 843.316 4341.04 0 0 0
2 4266.31 295.053 4451.6 0 0 0
2 4405.97 674.349 4945.75 0 0 0
2 4650.59 841.209 3837.18 0 0 0
2 3909.39 283.351 4979.08 0 0 0
2 4611.76 299.356 4681.3 0 0 0
2 4263.58 624.694 4789.7 0 0 0
2 4662.35 22.636 4141.63 0 0 0
2 3995.94 830.925 4441.68 0 0 0
2 3737.21 957.463 4343.59 0 0 0
2 3777.54 704.932 3979.92 0 0 0
2 4379.06 349.886 4078.65 0 0 0
2 4544.17 752.571 4422.61 0 0 0
2 3824.61 615.068 4964.75 0 0 0
2 3918.83 217.637 4845.99 0 0 0
2 4769.86 329.581 4638.77 0 0 0
2 4264.81 789.066 3955.78 0 0 0
2 4487.24 164.361 4258.17 0 0 0
2 4635.67 470.24 4874.39 0 0 0
2 4781.29 502.139 4628.89 0 0 0
2 4489.77 595.988 3830.01 0 0 0
2 4569.44 799.736 4275.96 0 0 0
2 4347.39 150.171 4149.61 0 0 0
2 3965.05 550.122 4795.82 0 0 0
2 4124.68 110.675 3956.97 0 0 0
2 243.74 4464.38 3755.69 0 0 0
2 724.033 4292.26 4991.71 0 0 0
2 419.674 4164.11 4510.6 0 0 0
2 36.515 4754.2 4328.18 0 0 0
2 488.207 4781.04 4563.91 0 0 0
2 482.967 4847.52 4953.83 0 0 0
2 684.318 4005.25 3863.37 0 0 0
2 297.032 4103.63 3852.39 0 0 0
2 419.731 4203.96 3684.36 0 0 0
2 730.921 4104.85 4689.27 0 0 0
2 272.445 4776.87 4064.03 0 0 0
2 136.175 4367.4 4525.29 0 0 0
2 476.398 3758.43 3924.33 0 0 0
2 481.427 4636.98 4424.65 0 0 0
2 221.412 4347.3 4081.46 0 0 0
2 226.381 4902.03 4664.98 0 0 0
2 787.411 4074.77 4382.28 0 0 0
2 22.316 3801.2 3764.09 0 0 0
2 672.625 4920.87 3868.46 0 0 0
2 258.098 4988.24 4160.13 0 0 0
2 643.924 4563.77 3811.01 0 0 0
2 179.581 4687.63 4440.06 0 0 0
2 80.208 4993.59 3874 0 0 0
2 213.591 4465.01 4518.43 0 0 0
2 236.893 4197.15 4316.4 0 0 0
2 353.6 4785.35 3676.95 0 0 0
2 17.832 4429.31 3962.78 0 0 0
2 561.139 3710.98 4519.52 0 0 0
2 397.301 4553.69 3902.29 0 0 0
2 470.279 4594.68 4537.59 0 0 0
2 790.949 4228.16 4783 0 0 0
2 498.891 4116.35 4236.96 0 0 0
2 666.994 4418.46 4980.61 0 0 0
2 10.51 3816.13 4849.88 0 0 0
2 537.749 4333.09 3756.65 0 0 0
2 692.38 3727.58 4304.95 0 0 0
2 393.391 4326.48 3722.36 0 0 0
2 651.317 4779.35 4749.95 0 0 0
2 589.268 4668.21 3860.96 0 0 0
2 743.001 4878.68 3665.84 0 0 0
2 724.016 4557.51 4099.26 0 0 0
2 559.985 4394.04 4007.65 0 0 0
2 248.707 4319.48 4543.6 0 0 0
2 790.696 3931.39 4258.85 0 0 0
2 203.112 4427.26 4237.18 0 0 0
2 567.797 4114.35 3894.99 0 0 0
2 469.28 3922.46 3877.66 0 0 0
2 619.595 4812.41 3787.32 0 0 0
2 155.755 3971.92 4766.63 0 0 0
2 625.655 3704 4730 0 0 0
2 193.005 4274.93 4430.73 0 0 0
2 154.522 4927.65 4458.88 0 0 0
2 543.471 4204 3789.23 0 0 0
2 451.568 4582.82 3774.45 0 0 0
2 202.279 4507.04 4046.56 0 0 0
2 730.75 3877.67 3976.39 0 0 0
2 683.214 4328.5 4172.59 0 0 0
2 119.39 4313.49 3741.43 0 0 0
2 121.464 4859.67 3853.67 0 0 0
2 464.986 4906.15 4438.9 0 0 0
2 655.987 3808.58 4582.8 0 0 0
2 462.319 4157.14 4112.41 0 0 0
2 123.158 4322.83 4289.74 0 0 0
2 3861.23 4816.41 3834.26 0 0 0
2 4414.42 4997.15 4785.43 0 0 0
2 3897.8 4674.93 3885.51 0 0 0
2 4072.31 4068.5 4432.91 0 0 0
2 4614.09 4241.16 4237.32 0 0 0
2 4213.55 4974.3 4335.09 0 0 0
2 4111.35 3805.07 4070.27 0 0 0
2 4780.06 4671.1 3840.78 0 0 0
2 3926.95 4480.46 3806.81 0 0 0
2 4466 4332.45 4028.33 0 0 0
2 4061.6 4663.11 4341.55 0 0 0
2 3839.64 3908.04 3946.24 0 0 0
2 3993.02 4470.56 4461.14 0 0 0