LAMMPS (23 Jun 2022 - Update 1)
OMP_NUM_THREADS environment is not set. Defaulting to 1 thread. (src/comm.cpp:98)
  using 1 OpenMP thread(s) per MPI task
# Read restart
read_restart ${read_res}
read_restart ./pgnpmf/55/equpmf42.res
Reading restart file ...
  restart file = 23 Jun 2022, LAMMPS = 23 Jun 2022
  restoring atom style atomic from restart
  orthogonal box = (1657.0358 1657.0358 1657.0358) to (2342.9642 2342.9642 2342.9642)
  1 by 2 by 2 MPI processor grid
  restoring pair style table from restart
  1000 atoms
  read_restart CPU = 0.005 seconds

# Settings

pair_style table spline 9941

pair_coeff 1 1 ./pgnpmf/N20.txt DE_GNP 75.6
pair_coeff 2 2 ./pgnpmf/N100.txt DE_GNP 115.92
WARNING: 3 of 9941 force values in table DE_GNP are inconsistent with -dE/dr.
WARNING:  Should only be flagged at inflection points (src/pair_table.cpp:463)
pair_coeff 1 2 ./pgnpmf/mixed_potential.txt DE_GNP 95.66
WARNING: 1562 of 9941 force values in table DE_GNP are inconsistent with -dE/dr.
WARNING:  Should only be flagged at inflection points (src/pair_table.cpp:463)

#Neigh_list Calc Frequency

neigh_modify delay 0 every 1 check yes

# Saving Frequency (50 frames)

variable ts_save equal ${steps_equ}
variable ts_save equal 5000

variable nts equal ${steps_equ}/${ts}
variable nts equal 5000/${ts}
variable nts equal 5000/0.25
variable medium equal ${nts}*3
variable medium equal 20000*3
variable long equal ${nts}*5
variable long equal 20000*5

# Dump
#dump 1 all custom ${ts_save} ./pgnpmf/${folder}/equilibration/trajectory/trajectory_${usic}_${trial}.equ.custom type x y z ix iy iz
#dump_modify 1 first no sort id
dump 2 all cfg 50000 ./pgnpmf/${folder}/equilibration/trajectory/dumpequ.tens_*.cfg mass type xs ys zs fx fy fz
dump 2 all cfg 50000 ./pgnpmf/55/equilibration/trajectory/dumpequ.tens_*.cfg mass type xs ys zs fx fy fz
dump_modify 2 element N20 N100

# thermo_style
thermo_style custom step temp press pe density ke etotal lx ly lz xlo xhi ylo yhi zlo zhi vol dt time cpu tpcpu spcpu cpuremain

# run info
timestep ${ts}
timestep 0.25
thermo 5000

# fix

fix 1 all momentum 1000 linear 1 1 1 angular
variable T equal ${temp}
variable T equal 300
fix 2 all nvt temp ${T} 370000 100.0
fix 2 all nvt temp 300 370000 100.0

run ${nts}
run 20000
Generated 0 of 1 mixed pair_coeff terms from geometric mixing rule
Unused restart file global fix info:
  fix style: npt, fix ID: 5
Neighbor list info ...
  update every 1 steps, delay 0 steps, check yes
  max neighbors/atom: 2000, page size: 100000
  master list distance cutoff = 117.92
  ghost atom cutoff = 117.92
  binsize = 58.96, bins = 12 12 12
  1 neighbor lists, perpetual/occasional/extra = 1 0 0
  (1) pair table, perpetual
      attributes: half, newton on
      pair build: half/bin/atomonly/newton
      stencil: half/bin/3d
      bin: standard
Per MPI rank memory allocation (min/avg/max) = 3.084 | 3.084 | 3.084 Mbytes
   Step          Temp          Press          PotEng        Density         KinEng         TotEng           Lx             Ly             Lz            Xlo            Xhi            Ylo            Yhi            Zlo            Zhi           Volume           Dt            Time           CPU           T/CPU          S/CPU         CPULeft    
   8460000   336.26847     -2.9359759     -29692211       1.656542       1001.3501     -29691209       685.92841      685.92841      685.92841      1657.0358      2342.9642      1657.0358      2342.9642      1657.0358      2342.9642      3.227278e+08   0.25           2160000        0              0              0              0            
   8465000   97420.402     -244.27529     -29803531       1.656542       290101.32     -29513430       685.92841      685.92841      685.92841      1657.0358      2342.9642      1657.0358      2342.9642      1657.0358      2342.9642      3.227278e+08   0.25           2161250        0.36157168     3457.1227      13828.454      1.0847227    
   8470000   183445.78     -437.82537     -29796147       1.656542       546270.19     -29249877       685.92841      685.92841      685.92841      1657.0358      2342.9642      1657.0358      2342.9642      1657.0358      2342.9642      3.227278e+08   0.25           2162500        0.72488195     3440.5824      13762.33       0.7248849    
   8475000   272567.88     -200.47558     -29692590       1.656542       811660.61     -28880929       685.92841      685.92841      685.92841      1657.0358      2342.9642      1657.0358      2342.9642      1657.0358      2342.9642      3.227278e+08   0.25           2163750        1.0879459      3442.9226      13771.692      0.36264951   
   8480000   367825.98      291.68469     -29498686       1.656542       1095323       -28403363       685.92841      685.92841      685.92841      1657.0358      2342.9642      1657.0358      2342.9642      1657.0358      2342.9642      3.227278e+08   0.25           2165000        1.4507015      3445.8462      13783.384      0            
Loop time of 1.45076 on 4 procs for 20000 steps with 1000 atoms

Performance: 297.775 ns/day, 0.081 hours/ns, 13785.879 timesteps/s
99.4% CPU use with 4 MPI tasks x 1 OpenMP threads

MPI task timing breakdown:
Section |  min time  |  avg time  |  max time  |%varavg| %total
---------------------------------------------------------------
Pair    | 0.64625    | 0.72924    | 0.7786     |   5.8 | 50.27
Neigh   | 0.0027898  | 0.0029588  | 0.0031653  |   0.3 |  0.20
Comm    | 0.48483    | 0.52805    | 0.60689    |   6.5 | 36.40
Output  | 0.00017866 | 0.00020553 | 0.00028205 |   0.0 |  0.01
Modify  | 0.12386    | 0.12969    | 0.1352     |   1.3 |  8.94
Other   |            | 0.06062    |            |       |  4.18

Nlocal:            250 ave         267 max         236 min
Histogram: 1 1 0 0 0 0 1 0 0 1
Nghost:         723.25 ave         742 max         701 min
Histogram: 1 0 1 0 0 0 0 0 1 1
Neighs:        1514.25 ave        1617 max        1343 min
Histogram: 1 0 0 0 0 0 1 0 1 1

Total # of neighbors = 6057
Ave neighs/atom = 6.057
Neighbor list builds = 14
Dangerous builds = 0

unfix 2

fix 3 all nvt temp 370000 370000 $(100.0*dt) #iso 1.0 1.0 $(1000.0*dt)
fix 3 all nvt temp 370000 370000 25 

run ${long}
run 100000
Generated 0 of 1 mixed pair_coeff terms from geometric mixing rule
Per MPI rank memory allocation (min/avg/max) = 3.084 | 3.084 | 3.084 Mbytes
   Step          Temp          Press          PotEng        Density         KinEng         TotEng           Lx             Ly             Lz            Xlo            Xhi            Ylo            Yhi            Zlo            Zhi           Volume           Dt            Time           CPU           T/CPU          S/CPU         CPULeft    
   8480000   367825.98      291.68469     -29498686       1.656542       1095323       -28403363       685.92841      685.92841      685.92841      1657.0358      2342.9642      1657.0358      2342.9642      1657.0358      2342.9642      3.227278e+08   0.25           2165000        0              0              0              0            
   8485000   382684.86      677.05797     -29365048       1.656542       1139570.2     -28225478       685.92841      685.92841      685.92841      1657.0358      2342.9642      1657.0358      2342.9642      1657.0358      2342.9642      3.227278e+08   0.25           2166250        0.36131172     3459.6104      13838.405      6.8649704    
   8490000   371921.36      824.59911     -29211675       1.656542       1107518.3     -28104156       685.92841      685.92841      685.92841      1657.0358      2342.9642      1657.0358      2342.9642      1657.0358      2342.9642      3.227278e+08   0.25           2167500        0.72531117     3434.0706      13736.286      6.5278231    
   8495000   385718.54      873.17957     -29176937       1.656542       1148603.9     -28028333       685.92841      685.92841      685.92841      1657.0358      2342.9642      1657.0358      2342.9642      1657.0358      2342.9642      3.227278e+08   0.25           2168750        1.0984919      3349.5848      13398.337      6.2248011    
   8500000   374655.46      880.79283     -29228469       1.656542       1115660       -28112809       685.92841      685.92841      685.92841      1657.0358      2342.9642      1657.0358      2342.9642      1657.0358      2342.9642      3.227278e+08   0.25           2170000        1.465601       3404.9808      13619.925      5.8624141    
   8505000   367327.46      901.92455     -29264946       1.656542       1093838.4     -28171107       685.92841      685.92841      685.92841      1657.0358      2342.9642      1657.0358      2342.9642      1657.0358      2342.9642      3.227278e+08   0.25           2171250        1.8308332      3422.4815      13689.925      5.4925069    
   8510000   354775.16      890.04369     -29258424       1.656542       1056459.8     -28201964       685.92841      685.92841      685.92841      1657.0358      2342.9642      1657.0358      2342.9642      1657.0358      2342.9642      3.227278e+08   0.25           2172500        2.1989807      3395.3787      13581.515      5.1309605    
   8515000   360316.67      853.10459     -29235886       1.656542       1072961.5     -28162925       685.92841      685.92841      685.92841      1657.0358      2342.9642      1657.0358      2342.9642      1657.0358      2342.9642      3.227278e+08   0.25           2173750        2.5654856      3410.5952      13642.381      4.7644776    
   8520000   366668.01      815.44322     -29160727       1.656542       1091874.7     -28068852       685.92841      685.92841      685.92841      1657.0358      2342.9642      1657.0358      2342.9642      1657.0358      2342.9642      3.227278e+08   0.25           2175000        2.9325766      3405.1466      13620.587      4.3988691    
   8525000   370257.75      772.74992     -29148764       1.656542       1102564.4     -28046200       685.92841      685.92841      685.92841      1657.0358      2342.9642      1657.0358      2342.9642      1657.0358      2342.9642      3.227278e+08   0.25           2176250        3.2962515      3437.139       13748.554      4.0287548    
   8530000   381382.95      829.91028     -29102984       1.656542       1135693.3     -27967291       685.92841      685.92841      685.92841      1657.0358      2342.9642      1657.0358      2342.9642      1657.0358      2342.9642      3.227278e+08   0.25           2177500        3.664966       3390.1562      13560.625      3.6649685    
   8535000   361473.32      919.79651     -29118481       1.656542       1076405.8     -28042075       685.92841      685.92841      685.92841      1657.0358      2342.9642      1657.0358      2342.9642      1657.0358      2342.9642      3.227278e+08   0.25           2178750        4.035049       3377.6214      13510.485      3.3014057    
   8540000   363139.62      899.02742     -29177386       1.656542       1081367.8     -28096018       685.92841      685.92841      685.92841      1657.0358      2342.9642      1657.0358      2342.9642      1657.0358      2342.9642      3.227278e+08   0.25           2180000        4.4039423      3388.5135      13554.055      2.9359632    
   8545000   364496.67      780.48765     -29294694       1.656542       1085408.8     -28209285       685.92841      685.92841      685.92841      1657.0358      2342.9642      1657.0358      2342.9642      1657.0358      2342.9642      3.227278e+08   0.25           2181250        4.7710493      3405.0021      13620.009      2.5690278    
   8550000   381123.03      708.26693     -29194649       1.656542       1134919.3     -28059730       685.92841      685.92841      685.92841      1657.0358      2342.9642      1657.0358      2342.9642      1657.0358      2342.9642      3.227278e+08   0.25           2182500        5.13687        3416.9736      13667.895      2.2015168    
   8555000   374284.96      653.74373     -29277969       1.656542       1114556.7     -28163413       685.92841      685.92841      685.92841      1657.0358      2342.9642      1657.0358      2342.9642      1657.0358      2342.9642      3.227278e+08   0.25           2183750        5.5026635      3417.2286      13668.914      1.834222     
   8560000   383185.35      644.71211     -29247873       1.656542       1141060.5     -28106812       685.92841      685.92841      685.92841      1657.0358      2342.9642      1657.0358      2342.9642      1657.0358      2342.9642      3.227278e+08   0.25           2185000        5.8703303      3399.8177      13599.267      1.4675832    
   8565000   384429.71      630.66812     -29293417       1.656542       1144766       -28148651       685.92841      685.92841      685.92841      1657.0358      2342.9642      1657.0358      2342.9642      1657.0358      2342.9642      3.227278e+08   0.25           2186250        6.2369665      3409.3748      13637.503      1.1006416    
   8570000   364155.41      652.89185     -29197943       1.656542       1084392.6     -28113551       685.92841      685.92841      685.92841      1657.0358      2342.9642      1657.0358      2342.9642      1657.0358      2342.9642      3.227278e+08   0.25           2187500        6.6028945      3415.9724      13663.89       0.73365522   
   8575000   367411.48      664.2196      -29153969       1.656542       1094088.7     -28059880       685.92841      685.92841      685.92841      1657.0358      2342.9642      1657.0358      2342.9642      1657.0358      2342.9642      3.227278e+08   0.25           2188750        6.9698276      3406.6155      13626.461      0.36683316   
   8580000   368502.27      622.52613     -29200636       1.656542       1097336.8     -28103300       685.92841      685.92841      685.92841      1657.0358      2342.9642      1657.0358      2342.9642      1657.0358      2342.9642      3.227278e+08   0.25           2190000        7.3341282      3431.2332      13724.932      0            
Loop time of 7.3342 on 4 procs for 100000 steps with 1000 atoms

Performance: 294.510 ns/day, 0.081 hours/ns, 13634.745 timesteps/s
99.2% CPU use with 4 MPI tasks x 1 OpenMP threads

MPI task timing breakdown:
Section |  min time  |  avg time  |  max time  |%varavg| %total
---------------------------------------------------------------
Pair    | 3.2625     | 3.6698     | 3.927      |  12.9 | 50.04
Neigh   | 0.022547   | 0.024497   | 0.025573   |   0.8 |  0.33
Comm    | 2.4574     | 2.6829     | 3.0654     |  14.0 | 36.58
Output  | 0.0051529  | 0.0052785  | 0.0056412  |   0.3 |  0.07
Modify  | 0.61691    | 0.64684    | 0.67727    |   3.2 |  8.82
Other   |            | 0.305      |            |       |  4.16

Nlocal:            250 ave         263 max         236 min
Histogram: 1 0 0 1 0 0 0 1 0 1
Nghost:         718.75 ave         727 max         700 min
Histogram: 1 0 0 0 0 0 0 0 1 2
Neighs:           1527 ave        1608 max        1417 min
Histogram: 1 0 0 0 0 0 2 0 0 1

Total # of neighbors = 6108
Ave neighs/atom = 6.108
Neighbor list builds = 113
Dangerous builds = 0

unfix 3

fix 4 all nvt temp 370000 ${T} 100.0
fix 4 all nvt temp 370000 300 100.0

run ${nts}
run 20000
Generated 0 of 1 mixed pair_coeff terms from geometric mixing rule
Per MPI rank memory allocation (min/avg/max) = 4.351 | 4.351 | 4.351 Mbytes
   Step          Temp          Press          PotEng        Density         KinEng         TotEng           Lx             Ly             Lz            Xlo            Xhi            Ylo            Yhi            Zlo            Zhi           Volume           Dt            Time           CPU           T/CPU          S/CPU         CPULeft    
   8580000   368502.27      622.52613     -29200636       1.656542       1097336.8     -28103300       685.92841      685.92841      685.92841      1657.0358      2342.9642      1657.0358      2342.9642      1657.0358      2342.9642      3.227278e+08   0.25           2190000        0              0              0              0            
   8585000   281594.45      440.64259     -29245786       1.656542       838540.17     -28407246       685.92841      685.92841      685.92841      1657.0358      2342.9642      1657.0358      2342.9642      1657.0358      2342.9642      3.227278e+08   0.25           2191250        0.36864231     3390.8143      13563.225      1.1059348    
   8590000   191075.31      127.46569     -29404510       1.656542       568989.63     -28835520       685.92841      685.92841      685.92841      1657.0358      2342.9642      1657.0358      2342.9642      1657.0358      2342.9642      3.227278e+08   0.25           2192500        0.73365846     3424.5062      13698.025      0.73366094   
   8595000   99607.616     -257.09395     -29533510       1.656542       296614.47     -29236896       685.92841      685.92841      685.92841      1657.0358      2342.9642      1657.0358      2342.9642      1657.0358      2342.9642      3.227278e+08   0.25           2193750        1.094429       3464.807       13859.224      0.36481049   
   8600000   9278.4321     -571.67057     -29641134       1.656542       27629.586     -29613504       685.92841      685.92841      685.92841      1657.0358      2342.9642      1657.0358      2342.9642      1657.0358      2342.9642      3.227278e+08   0.25           2195000        1.4604098      3415.4796      13661.923      0            
Loop time of 1.46052 on 4 procs for 20000 steps with 1000 atoms

Performance: 295.784 ns/day, 0.081 hours/ns, 13693.708 timesteps/s
99.1% CPU use with 4 MPI tasks x 1 OpenMP threads

MPI task timing breakdown:
Section |  min time  |  avg time  |  max time  |%varavg| %total
---------------------------------------------------------------
Pair    | 0.68172    | 0.73961    | 0.78577    |   4.4 | 50.64
Neigh   | 0.0032066  | 0.0033968  | 0.0036046  |   0.2 |  0.23
Comm    | 0.48625    | 0.52678    | 0.58003    |   4.7 | 36.07
Output  | 0.0019754  | 0.0021072  | 0.0024989  |   0.5 |  0.14
Modify  | 0.12201    | 0.12742    | 0.13328    |   1.4 |  8.72
Other   |            | 0.06121    |            |       |  4.19

Nlocal:            250 ave         263 max         237 min
Histogram: 1 0 0 1 0 0 1 0 0 1
Nghost:            716 ave         726 max         696 min
Histogram: 1 0 0 0 0 0 0 1 0 2
Neighs:         1537.5 ave        1614 max        1434 min
Histogram: 1 0 0 0 0 1 0 1 0 1

Total # of neighbors = 6150
Ave neighs/atom = 6.15
Neighbor list builds = 16
Dangerous builds = 0

unfix 4

fix 5 all npt temp ${T} ${T} $(100.0*dt) iso 1.0 1.0 $(1000.0*dt)
fix 5 all npt temp 300 ${T} $(100.0*dt) iso 1.0 1.0 $(1000.0*dt)
fix 5 all npt temp 300 300 $(100.0*dt) iso 1.0 1.0 $(1000.0*dt)
fix 5 all npt temp 300 300 25 iso 1.0 1.0 $(1000.0*dt)
fix 5 all npt temp 300 300 25 iso 1.0 1.0 250

run ${medium}
run 60000
Generated 0 of 1 mixed pair_coeff terms from geometric mixing rule
Per MPI rank memory allocation (min/avg/max) = 4.351 | 4.351 | 4.351 Mbytes
   Step          Temp          Press          PotEng        Density         KinEng         TotEng           Lx             Ly             Lz            Xlo            Xhi            Ylo            Yhi            Zlo            Zhi           Volume           Dt            Time           CPU           T/CPU          S/CPU         CPULeft    
   8600000   9278.4321     -571.67057     -29641134       1.656542       27629.586     -29613504       685.92841      685.92841      685.92841      1657.0358      2342.9642      1657.0358      2342.9642      1657.0358      2342.9642      3.227278e+08   0.25           2195000        0              0              0              0            
   8605000   334.56754      0.94544423    -29857666       1.6845806      996.28501     -29856669       682.10152      682.10152      682.10152      1658.9492      2341.0508      1658.9492      2341.0508      1658.9492      2341.0508      3.1735624e+08  0.25           2196250        0.4381483      2852.911       11411.621      4.8196586    
   8610000   333.63346      2.8244029     -29880547       1.6867186      993.50348     -29879553       681.8132       681.8132       681.8132       1659.0934      2340.9066      1659.0934      2340.9066      1659.0934      2340.9066      3.1695398e+08  0.25           2197500        0.86733372     2912.4937      11649.974      4.3366815    
   8615000   333.29032      1.5780276     -29913681       1.6885425      992.48166     -29912689       681.56761      681.56761      681.56761      1659.2162      2340.7838      1659.2162      2340.7838      1659.2162      2340.7838      3.1661161e+08  0.25           2198750        1.3030738      2868.6835      11474.735      3.9092287    
   8620000   333.58253      0.087304817   -29939981       1.6902056      993.35182     -29938988       681.34399      681.34399      681.34399      1659.328       2340.672       1659.328       2340.672       1659.328       2340.672       3.1630008e+08  0.25           2200000        1.7367615      2882.2585      11529.029      3.4735282    
   8625000   335.02157     -0.15497051    -29976440       1.6920596      997.63703     -29975443       681.09506      681.09506      681.09506      1659.4525      2340.5475      1659.4525      2340.5475      1659.4525      2340.5475      3.1595351e+08  0.25           2201250        2.1682479      2896.9631      11587.857      3.0355503    
   8630000   336.53828      0.32043553    -30014344       1.6938141      1002.1535     -30013342       680.8598       680.8598       680.8598       1659.5701      2340.4299      1659.5701      2340.4299      1659.5701      2340.4299      3.1562623e+08  0.25           2202500        2.6039665      2868.8236      11475.296      2.6039689    
   8635000   337.87867     -0.53259226    -30030232       1.6954408      1006.145      -30029226       680.64198      680.64198      680.64198      1659.679       2340.321       1659.679       2340.321       1659.679       2340.321       3.153234e+08   0.25           2203750        3.0486215      2811.1677      11244.667      2.1775886    
   8640000   338.72995      0.99315075    -30058085       1.6971446      1008.6799     -30057076       680.41414      680.41414      680.41414      1659.7929      2340.2071      1659.7929      2340.2071      1659.7929      2340.2071      3.1500685e+08  0.25           2205000        3.4882404      2843.3723      11373.492      1.7441214    
   8645000   338.54821      4.2159313     -30083711       1.6987825      1008.1388     -30082702       680.19539      680.19539      680.19539      1659.9023      2340.0977      1659.9023      2340.0977      1659.9023      2340.0977      3.1470313e+08  0.25           2206250        3.9348546      2798.8364      11195.344      1.311619     
   8650000   337.5372       3.736234      -30112840       1.7002185      1005.1281     -30111835       680.00384      680.00384      680.00384      1659.9981      2340.0019      1659.9981      2340.0019      1659.9981      2340.0019      3.1443733e+08  0.25           2207500        4.3732208      2851.497       11405.989      0.87464462   
   8655000   336.37178      2.3916821     -30139077       1.7015395      1001.6577     -30138075       679.82783      679.82783      679.82783      1660.0861      2339.9139      1660.0861      2339.9139      1660.0861      2339.9139      3.1419322e+08  0.25           2208750        4.8092426      2866.8291      11467.317      0.43720409   
   8660000   335.09665      2.141511      -30166483       1.7029218      997.8606      -30165485       679.64383      679.64383      679.64383      1660.1781      2339.8219      1660.1781      2339.8219      1660.1781      2339.8219      3.1393817e+08  0.25           2210000        5.2477043      2850.8762      11403.503      0            
Loop time of 5.24785 on 4 procs for 60000 steps with 1000 atoms

Performance: 246.958 ns/day, 0.097 hours/ns, 11433.253 timesteps/s
99.3% CPU use with 4 MPI tasks x 1 OpenMP threads

MPI task timing breakdown:
Section |  min time  |  avg time  |  max time  |%varavg| %total
---------------------------------------------------------------
Pair    | 2.2413     | 2.4392     | 2.5857     |   8.4 | 46.48
Neigh   | 0.0068443  | 0.0073805  | 0.007749   |   0.4 |  0.14
Comm    | 1.4968     | 1.6141     | 1.7842     |   8.6 | 30.76
Output  | 0.0021507  | 0.0026134  | 0.0039869  |   1.6 |  0.05
Modify  | 0.96985    | 0.98943    | 1.012      |   1.5 | 18.85
Other   |            | 0.195      |            |       |  3.72

Nlocal:            250 ave         264 max         237 min
Histogram: 1 0 0 1 0 1 0 0 0 1
Nghost:          725.5 ave         737 max         705 min
Histogram: 1 0 0 0 0 0 1 0 0 2
Neighs:        1557.25 ave        1639 max        1456 min
Histogram: 1 0 0 0 1 0 0 1 0 1

Total # of neighbors = 6229
Ave neighs/atom = 6.229
Neighbor list builds = 36
Dangerous builds = 13

# run_style
run_style verlet

# write restart
write_restart ${write_res}
write_restart ./pgnpmf/55/equpmf43.res
System init for write_restart ...
Generated 0 of 1 mixed pair_coeff terms from geometric mixing rule

Total wall time: 0:00:15
