LAMMPS data file, author Jerry Qin

1000 atoms
2 atom types
0 bonds
0 angles

-200.0 3200 xlo xhi
-200.0 3200 ylo yhi
-200.0 3200 zlo zhi

Masses

1 221851.569
2 422051.5699

Atoms

1 1  1987.829 2579.897 178.265
2 1  1709.332 0.372 1900.317
3 1  1291.142 877.535 1519.074
4 1  1368.451 2931.244 603.526
5 1  2999.933 952.850 0.072
6 1  2944.296 2872.588 49.240
7 1  730.946 831.753 141.691
8 1  1212.124 1449.313 607.365
9 1  2041.271 1791.969 2007.774
10 1  874.411 2185.460 734.263
11 1  761.351 849.402 1934.307
12 1  2129.148 1635.051 192.428
13 1  2145.244 1846.224 1696.902
14 1  2089.203 102.876 1485.950
15 1  1819.523 525.647 1529.012
16 1  1372.384 1526.413 1480.434
17 1  867.399 1539.078 456.436
18 1  275.404 2136.639 919.593
19 1  813.060 1898.901 1513.340
20 1  1301.837 1041.059 158.805
21 1  2312.713 1198.705 615.554
22 1  1147.563 508.487 1638.526
23 1  2903.662 2216.902 2496.046
24 1  2219.282 1937.379 1123.789
25 1  592.388 1686.835 2096.482
26 1  1544.252 2442.084 2687.572
27 1  1373.963 1777.473 2209.739
28 1  2675.714 32.813 2222.312
29 1  1040.885 982.313 1397.393
30 1  971.634 2678.966 2029.716
31 1  2594.224 661.832 686.036
32 1  1986.466 2877.849 2541.923
33 1  592.224 611.422 1586.013
34 1  390.205 854.878 1234.253
35 1  1764.770 1364.446 2166.599
36 1  776.227 672.569 283.186
37 1  187.455 2719.670 754.756
38 1  771.558 119.918 467.219
39 1  674.198 141.041 789.267
40 1  1512.672 1525.376 77.693
41 1  745.724 723.984 81.055
42 1  532.067 874.995 151.923
43 1  541.016 875.400 346.590
44 1  923.132 202.242 967.064
45 1  1672.406 2641.656 2211.015
46 1  896.043 7.431 0.665
47 1  1007.537 833.329 1001.751
48 1  820.517 340.653 378.827
49 1  1050.225 2405.095 354.638
50 1  628.754 660.062 519.185
51 1  881.099 340.064 931.626
52 1  953.914 914.636 327.681
53 1  74.235 244.649 894.832
54 1  1024.813 887.422 604.631
55 1  1126.814 225.536 248.450
56 1  26.047 220.614 1007.216
57 1  394.016 752.136 786.739
58 1  1001.601 492.115 675.142
59 1  790.089 452.791 250.744
60 1  954.377 371.034 496.228
61 1  176.024 718.081 608.391
62 1  328.325 442.875 641.484
63 1  907.029 267.304 840.379
64 1  713.577 2356.639 1161.752
65 1  1716.818 1270.390 1798.766
66 1  399.142 842.202 444.983
67 1  256.806 434.840 445.150
68 1  390.481 380.812 401.783
69 1  308.051 774.227 937.576
70 1  989.423 815.229 112.970
71 1  577.941 353.702 434.491
72 1  23.518 725.734 326.742
73 1  1711.967 1968.132 1216.698
74 1  881.871 826.873 148.475
75 1  863.561 401.198 86.031
76 1  739.149 287.870 692.180
77 1  397.136 514.952 717.476
78 1  525.712 365.582 301.007
79 1  327.365 723.728 109.962
80 1  1842.042 1922.216 289.438
81 1  789.637 780.055 495.946
82 1  556.169 485.007 503.709
83 1  778.668 496.050 952.656
84 1  955.643 489.276 64.953
85 1  1567.204 192.402 607.986
86 1  2374.391 2841.903 1433.079
87 1  312.654 585.950 1017.879
88 1  934.124 1622.067 319.118
89 1  1010.634 697.981 76.782
90 1  894.724 1504.427 108.926
91 1  1282.677 2110.213 1607.570
92 1  944.723 497.989 1028.420
93 1  695.877 329.783 827.074
94 1  2274.176 2951.188 1069.580
95 1  1047.332 649.799 775.839
96 1  33.888 481.914 603.322
97 1  746.246 1032.293 899.443
98 1  712.795 560.994 1021.698
99 1  196.209 553.321 440.472
100 1  974.493 756.465 266.595
101 1  927.890 618.412 320.728
102 1  663.680 131.042 567.924
103 1  2413.368 635.285 121.270
104 1  960.798 333.459 55.724
105 1  978.507 706.869 644.179
106 1  987.208 503.100 788.145
107 1  266.396 239.009 1032.168
108 1  136.171 637.744 807.794
109 1  624.549 569.114 448.319
110 1  195.436 13.187 385.134
111 1  2034.513 1607.318 0.000
112 1  202.850 615.527 561.265
113 1  1516.236 1187.788 361.959
114 1  223.503 722.159 481.131
115 1  21.847 584.497 727.333
116 1  880.282 114.644 449.242
117 1  132.734 1076.773 518.913
118 1  2395.767 243.383 664.375
119 1  1096.365 1116.574 1492.414
120 1  823.913 586.411 1021.302
121 1  809.552 34.834 150.523
122 1  1162.683 2977.051 2663.299
123 1  938.205 715.195 749.215
124 1  657.949 566.069 1478.646
125 1  1011.094 530.407 941.625
126 1  300.099 459.620 999.902
127 1  899.179 640.545 71.629
128 1  439.775 772.695 127.373
129 1  1806.041 2051.178 2993.736
130 1  611.957 248.494 823.036
131 1  1803.880 1860.963 1297.408
132 1  157.908 222.229 1024.943
133 1  745.972 645.934 486.666
134 1  488.937 25.118 1029.779
135 1  808.331 512.271 1126.452
136 1  657.129 126.872 420.306
137 1  444.484 296.562 468.181
138 1  944.316 903.978 0.000
139 1  864.674 271.565 570.866
140 1  2838.373 648.136 699.513
141 1  665.651 462.354 772.809
142 1  2143.964 712.647 2185.110
143 1  326.769 313.148 460.681
144 1  1528.120 1991.369 2840.427
145 1  1124.838 647.702 494.761
146 1  358.128 801.919 200.304
147 1  127.339 4.912 976.611
148 1  333.008 220.088 939.806
149 1  782.601 132.799 600.179
150 1  693.090 588.899 852.780
151 1  691.694 1758.467 2354.742
152 1  1033.278 701.068 370.533
153 1  394.103 805.680 1021.376
154 1  1032.490 474.136 533.398
155 1  586.353 263.925 140.682
156 1  661.444 203.926 926.645
157 1  1003.424 95.248 1022.726
158 1  259.727 841.496 652.163
159 1  2890.676 1410.034 1478.825
160 1  536.984 383.176 709.714
161 1  1044.301 2051.545 787.228
162 1  879.601 379.126 229.902
163 1  715.457 340.433 15.833
164 1  793.311 510.425 1697.745
165 1  1165.715 2850.862 405.930
166 1  562.811 1097.746 316.962
167 1  854.218 754.738 61.399
168 1  554.263 696.678 620.106
169 1  717.883 405.866 690.172
170 1  579.702 976.471 366.764
171 1  417.232 595.213 643.537
172 1  1479.137 1647.766 524.139
173 1  209.933 756.709 171.924
174 1  765.978 848.289 1591.223
175 1  938.682 527.985 553.438
176 1  106.982 340.611 674.498
177 1  197.074 309.885 425.232
178 1  1035.295 354.473 421.752
179 1  310.538 560.331 619.578
180 1  2601.818 1571.750 2556.007
181 1  1061.966 1105.199 2329.159
182 1  575.385 399.999 118.592
183 1  876.227 244.699 35.156
184 1  1886.110 1129.732 2690.531
185 1  1277.486 57.625 1758.836
186 1  734.949 924.324 0.001
187 1  848.206 722.845 572.788
188 1  2526.160 1156.340 1779.935
189 1  424.698 296.790 329.891
190 1  546.236 409.957 1112.867
191 1  790.756 311.205 247.130
192 1  1727.803 819.625 2399.608
193 1  292.866 772.653 330.373
194 1  954.762 777.946 2.699
195 1  724.841 1029.853 579.664
196 1  73.995 185.507 773.379
197 1  1120.838 1073.554 2979.503
198 1  961.114 553.355 162.011
199 1  2942.848 2813.704 1829.038
200 1  1259.079 2769.207 912.863
201 1  557.892 744.347 324.199
202 1  381.276 479.848 889.450
203 1  1654.315 1118.192 2527.723
204 1  210.131 0.000 276.912
205 1  137.282 1530.558 871.701
206 1  890.922 56.312 236.801
207 1  718.780 922.338 885.163
208 1  489.995 135.070 736.943
209 1  2893.152 2352.648 2467.689
210 1  176.012 955.025 2014.414
211 1  876.480 200.484 177.473
212 1  472.846 321.136 186.510
213 1  564.442 255.591 256.784
214 1  644.528 672.747 950.300
215 1  1828.475 97.233 2282.485
216 1  921.372 724.097 154.075
217 1  577.775 232.601 388.640
218 1  184.574 746.750 1044.725
219 1  2218.655 2673.929 2330.603
220 1  512.671 881.944 862.262
221 1  2260.933 2946.658 1593.684
222 1  192.392 891.486 1038.817
223 1  1021.279 1368.144 2335.579
224 1  1022.811 176.318 759.163
225 1  319.371 2502.395 811.616
226 1  582.646 47.737 437.373
227 1  716.056 970.978 741.545
228 1  807.092 314.889 798.118
229 1  158.934 747.188 715.930
230 1  654.908 249.730 0.000
231 1  825.634 759.179 226.454
232 1  215.522 678.858 89.808
233 1  296.867 710.855 222.302
234 1  278.234 14.228 816.779
235 1  422.381 48.050 166.461
236 1  424.285 2492.818 1598.606
237 1  443.646 310.205 685.149
238 1  1573.956 553.552 2803.627
239 1  2068.740 1672.469 1761.563
240 1  403.761 1603.542 154.013
241 1  2242.621 2356.188 1027.168
242 1  934.877 605.400 687.210
243 1  580.638 1714.570 1763.373
244 1  295.200 606.484 484.973
245 1  1386.432 1916.443 649.209
246 1  705.481 1286.542 1076.172
247 1  673.856 1394.853 1714.355
248 1  1459.216 2919.089 396.812
249 1  317.879 522.174 1119.956
250 1  367.732 822.674 706.528
251 1  704.694 938.018 1018.990
252 1  396.649 1025.729 536.066
253 1  776.452 398.576 880.562
254 1  2372.005 1514.226 2413.862
255 1  727.105 316.402 971.309
256 1  742.687 1029.501 256.826
257 1  570.635 913.428 960.620
258 1  666.279 840.194 984.840
259 1  607.876 2080.606 2320.634
260 1  716.348 2021.877 1494.246
261 1  162.790 218.291 698.012
262 1  505.372 445.075 610.670
263 1  740.193 456.274 470.515
264 1  595.730 790.107 695.028
265 1  705.029 571.240 690.399
266 1  1013.427 557.221 406.965
267 1  1489.182 2142.500 998.945
268 1  2547.092 2386.131 1146.160
269 1  1545.572 754.497 1612.578
270 1  962.377 984.926 489.583
271 1  856.208 1547.627 292.369
272 1  468.293 1046.212 777.095
273 1  1353.083 2139.592 8.183
274 1  504.013 435.172 419.678
275 1  192.769 109.923 326.300
276 1  1365.167 1156.921 1852.154
277 1  73.895 699.237 981.467
278 1  326.543 1109.137 291.444
279 1  222.105 672.489 374.410
280 1  697.830 249.310 1088.961
281 1  219.614 489.024 144.068
282 1  551.994 729.870 914.984
283 1  2841.946 1956.568 2986.173
284 1  622.017 716.230 1977.108
285 1  643.057 405.240 507.181
286 1  146.474 886.186 144.054
287 1  484.118 812.717 230.118
288 1  1572.442 984.408 1668.341
289 1  410.398 360.187 580.095
290 1  472.158 203.175 215.739
291 1  720.095 2992.723 462.403
292 1  130.725 183.958 237.552
293 1  333.002 599.647 190.441
294 1  457.079 1394.517 1075.171
295 1  1107.763 1891.678 310.107
296 1  1019.778 334.439 929.647
297 1  318.812 618.667 359.975
298 1  621.023 879.310 783.944
299 1  1039.898 170.297 917.410
300 1  301.209 281.197 854.034
301 1  1024.336 37.696 372.353
302 1  80.210 371.233 1031.249
303 1  450.383 729.452 643.425
304 1  68.730 479.042 291.349
305 1  501.511 918.078 446.102
306 1  664.052 650.064 763.145
307 1  308.802 12.623 185.615
308 1  999.383 817.561 374.961
309 1  1718.431 1713.581 1107.843
310 1  1466.137 549.085 996.321
311 1  1830.797 1971.977 1193.065
312 1  414.621 809.463 890.554
313 1  461.972 249.754 583.178
314 1  1275.654 1817.157 1047.217
315 1  551.282 574.177 568.332
316 1  107.401 827.719 1009.714
317 1  1483.235 654.467 1443.755
318 1  198.324 830.662 546.021
319 1  771.748 85.126 298.284
320 1  998.815 856.230 227.153
321 1  884.862 955.233 236.990
322 1  513.379 903.955 753.556
323 1  439.519 627.920 771.262
324 1  106.169 1332.329 765.969
325 1  921.844 934.053 1035.139
326 1  1279.589 2528.888 852.987
327 1  167.556 307.988 231.260
328 1  510.798 369.642 520.668
329 1  939.987 335.653 754.920
330 1  524.778 192.463 881.212
331 1  914.044 423.433 830.486
332 1  920.934 109.743 132.142
333 1  1794.871 312.338 1881.629
334 1  794.540 620.277 119.874
335 1  601.122 990.728 476.591
336 1  209.017 674.882 917.501
337 1  639.733 384.716 923.810
338 1  942.340 931.451 130.846
339 1  11.992 995.206 397.200
340 1  2295.176 2261.489 1735.267
341 1  616.323 878.373 449.498
342 1  298.455 835.644 804.637
343 1  1288.315 233.847 1009.932
344 1  1712.008 1565.111 502.265
345 1  510.397 587.297 437.957
346 1  2999.191 1915.476 1114.774
347 1  632.504 344.866 255.861
348 1  2836.128 598.504 1338.649
349 1  623.090 750.562 819.686
350 1  883.074 727.780 342.889
351 1  1108.932 564.272 1215.559
352 1  774.580 850.392 955.371
353 1  1127.141 1493.631 1937.403
354 1  1211.295 1314.012 811.292
355 1  39.081 924.770 173.949
356 1  2819.831 1668.177 1870.450
357 1  366.793 233.929 526.722
358 1  50.066 144.425 1632.784
359 1  717.359 573.337 200.192
360 1  351.443 490.832 162.722
361 1  329.193 749.052 442.466
362 1  2073.427 1029.891 141.823
363 1  615.588 612.257 274.219
364 1  1295.932 357.506 466.922
365 1  1193.045 1642.611 2211.842
366 1  641.711 334.715 730.404
367 1  417.221 954.200 880.064
368 1  1053.443 490.540 306.183
369 1  869.637 634.543 213.671
370 1  529.708 540.577 938.963
371 1  140.668 648.555 444.394
372 1  841.783 1093.309 622.065
373 1  808.528 224.641 991.500
374 1  584.118 648.981 373.411
375 1  706.884 828.301 1119.944
376 1  590.571 1025.582 1002.016
377 1  410.356 795.380 345.598
378 1  559.816 800.464 1002.610
379 1  216.943 2881.952 1428.341
380 1  2655.670 1535.945 1147.703
381 1  965.033 1011.988 1321.494
382 1  844.486 519.730 338.042
383 1  376.288 699.636 300.504
384 1  1825.867 1045.178 1305.461
385 1  753.973 2089.364 2596.141
386 1  827.810 621.784 400.874
387 1  735.256 224.998 829.952
388 1  646.453 514.220 941.592
389 1  932.172 307.116 1037.151
390 1  929.133 1444.292 1782.183
391 1  27.756 2596.604 1662.749
392 1  739.131 574.012 316.511
393 1  815.619 223.852 408.810
394 1  716.138 173.612 682.066
395 1  1334.641 140.986 1494.127
396 1  895.877 282.684 456.455
397 1  469.232 76.277 464.025
398 1  824.364 118.256 919.891
399 1  748.006 962.256 147.301
400 1  489.224 1050.044 249.751
401 1  664.724 176.294 194.061
402 1  235.133 210.875 264.020
403 1  2729.684 1333.762 2861.998
404 1  854.725 294.173 698.249
405 1  197.208 710.352 271.857
406 1  902.192 757.358 1006.617
407 1  98.528 648.636 572.613
408 1  0.000 354.685 948.065
409 1  524.679 240.242 741.828
410 1  460.324 701.692 860.173
411 1  876.178 889.037 450.803
412 1  2797.973 913.627 967.241
413 1  308.457 1090.601 1690.273
414 1  668.353 1127.602 355.463
415 1  872.288 70.982 1118.456
416 1  349.411 896.085 954.032
417 1  968.331 1580.093 1529.602
418 1  426.690 1469.489 876.424
419 1  898.642 913.863 563.891
420 1  683.770 324.304 426.671
421 1  30.861 738.871 627.021
422 1  580.018 449.109 1003.542
423 1  611.302 148.727 100.162
424 1  3.836 849.888 581.084
425 1  838.945 1004.119 540.346
426 1  413.299 873.407 793.171
427 1  659.654 779.397 524.753
428 1  407.030 132.608 544.692
429 1  1322.178 2101.190 266.515
430 1  266.920 128.340 964.241
431 1  98.928 649.686 239.996
432 1  794.644 24.986 552.367
433 1  1212.837 2133.900 776.348
434 1  972.020 374.565 307.306
435 1  1672.153 1510.198 692.529
436 1  680.915 214.684 489.730
437 1  1446.378 437.980 1527.008
438 1  397.330 967.628 441.726
439 1  835.587 605.882 559.420
440 1  281.559 107.523 724.302
441 1  1052.479 782.164 679.240
442 1  844.111 510.756 133.615
443 1  1900.365 1366.496 2742.249
444 1  558.459 684.672 741.407
445 1  1556.924 223.409 1405.527
446 1  290.656 698.600 745.738
447 1  330.489 683.160 1086.198
448 1  222.689 558.783 814.889
449 1  280.000 1009.628 435.508
450 1  1473.661 2174.217 1984.540
451 1  801.756 58.897 823.705
452 1  591.687 842.206 248.701
453 1  804.332 884.888 75.703
454 1  926.242 802.380 556.148
455 1  439.660 270.402 820.640
456 1  906.041 781.876 437.851
457 1  973.655 449.814 387.576
458 1  454.460 948.132 614.705
459 1  716.438 0.015 625.581
460 1  1690.131 809.785 1380.570
461 1  2274.913 1074.290 1883.754
462 1  855.674 407.636 730.885
463 1  134.168 443.837 383.223
464 1  398.412 653.583 447.180
465 1  2614.711 700.386 185.682
466 1  509.931 786.270 785.733
467 1  278.457 1021.779 42.531
468 1  840.628 551.974 666.433
469 1  297.002 870.935 398.627
470 1  106.202 659.988 36.306
471 1  149.896 992.735 606.316
472 1  470.389 687.887 360.500
473 1  916.046 1095.037 519.608
474 1  853.190 6.526 663.555
475 1  233.406 867.201 935.591
476 1  100.247 1079.050 695.167
477 1  88.811 569.233 366.247
478 1  1499.671 2910.800 975.870
479 1  1094.111 508.040 736.071
480 1  619.765 407.826 624.983
481 1  834.615 708.411 711.916
482 1  2209.571 1736.926 732.869
483 1  2921.876 470.733 1396.783
484 1  2791.055 402.218 2285.169
485 1  2310.409 2067.296 449.613
486 1  787.996 2341.330 1017.469
487 1  1264.955 2219.949 928.917
488 1  1773.089 2010.586 44.538
489 1  1030.400 1336.658 2698.395
490 1  81.272 2222.563 672.262
491 1  230.111 963.606 257.064
492 1  191.703 2259.973 393.306
493 1  2309.700 688.653 662.818
494 1  676.190 2683.949 1891.881
495 1  1197.075 1974.767 1852.879
496 1  4.851 2999.339 2711.459
497 1  2999.911 1199.895 2185.074
498 1  753.939 1561.267 2046.475
499 1  1934.931 2672.195 1917.994
500 1  657.796 296.645 2608.644
501 2  2187.787 1046.603 1707.759
502 2  3000.000 3000.000 261.769
503 2  2986.981 2563.355 2.739
504 2  1058.763 2393.132 2999.983
505 2  2789.361 2559.846 0.610
506 2  701.027 1177.661 2260.764
507 2  0.614 2388.594 258.971
508 2  805.812 2999.995 351.950
509 2  1987.076 2999.995 2999.995
510 2  158.002 0.013 0.008
511 2  1242.197 3000.000 504.087
512 2  2688.245 0.000 960.261
513 2  0.000 2091.459 3000.000
514 2  919.233 2491.031 2999.996
515 2  18.670 1117.627 131.236
516 2  2637.744 0.008 2091.612
517 2  3000.000 2331.806 291.596
518 2  0.496 2999.083 2999.923
519 2  2449.514 1574.637 3000.000
520 2  403.125 2999.905 1201.526
521 2  2996.053 2994.077 2.690
522 2  1389.784 2999.346 1770.949
523 2  1030.388 1979.591 1345.205
524 2  1572.426 2107.985 0.000
525 2  2998.956 2600.306 2682.040
526 2  2997.943 2999.346 2998.934
527 2  2963.674 67.270 2843.386
528 2  2997.881 2352.782 2169.534
529 2  0.005 2999.997 0.005
530 2  2.744 40.957 58.126
531 2  2999.999 1307.490 260.269
532 2  0.000 2258.132 1093.800
533 2  0.750 1720.599 1.223
534 2  2277.799 2172.514 2967.898
535 2  1008.703 1712.473 1669.857
536 2  2999.999 1735.856 2700.728
537 2  0.000 2864.100 708.635
538 2  1890.738 0.000 1519.583
539 2  2999.361 175.409 2139.952
540 2  1091.940 2999.997 2544.686
541 2  0.912 2999.382 1552.974
542 2  1208.733 0.158 2252.753
543 2  1036.004 1.387 0.676
544 2  0.159 749.339 1.936
545 2  2957.641 2440.215 2642.462
546 2  721.952 0.779 2843.496
547 2  1629.448 2901.466 3000.000
548 2  1895.448 1838.612 2999.994
549 2  0.390 2402.489 0.770
550 2  2714.014 1915.492 1451.155
551 2  1392.283 13.690 2986.607
552 2  3000.000 2848.744 1205.882
553 2  0.000 0.000 756.829
554 2  1656.554 0.000 952.597
555 2  1769.428 3000.000 3000.000
556 2  2999.690 12.989 889.508
557 2  2099.634 2676.609 0.000
558 2  2717.999 1355.304 370.984
559 2  2467.410 0.000 465.699
560 2  3000.000 1610.172 1220.974
561 2  2998.200 173.587 124.272
562 2  467.958 3000.000 2404.416
563 2  1872.219 0.000 2016.157
564 2  2565.860 448.113 2624.974
565 2  106.190 1558.716 72.174
566 2  2926.402 2697.966 1354.971
567 2  1467.327 168.543 164.894
568 2  1568.755 1104.113 913.613
569 2  485.136 648.815 1297.522
570 2  1843.828 1937.624 675.250
571 2  1527.222 1812.774 97.977
572 2  2756.793 106.375 703.496
573 2  2916.319 79.085 2383.619
574 2  981.445 2727.794 987.070
575 2  2388.826 19.125 301.826
576 2  1964.901 273.802 1002.664
577 2  1831.842 568.032 554.417
578 2  8.792 2097.105 888.547
579 2  2590.138 841.013 1.009
580 2  1224.974 620.686 789.367
581 2  196.599 780.482 1913.034
582 2  153.972 785.180 851.112
583 2  141.776 341.812 1474.447
584 2  577.503 4.927 1441.942
585 2  159.066 2886.687 336.304
586 2  823.184 557.292 811.062
587 2  660.303 1183.440 925.846
588 2  737.866 889.347 269.542
589 2  158.378 922.903 0.000
590 2  1786.866 24.457 573.532
591 2  3000.000 1917.050 1458.833
592 2  1124.675 1559.404 1741.731
593 2  236.056 2219.575 2343.063
594 2  609.577 1394.030 304.878
595 2  2604.924 2514.067 889.424
596 2  52.850 405.169 1731.438
597 2  1102.853 471.510 1042.510
598 2  449.252 747.527 1884.567
599 2  503.956 655.105 1025.336
600 2  2213.646 2999.967 1276.088
601 2  393.537 1265.471 490.732
602 2  1102.249 1433.070 2968.930
603 2  208.324 1458.250 742.487
604 2  85.461 922.040 1485.357
605 2  1241.417 902.402 5.644
606 2  1490.229 1343.336 599.426
607 2  209.006 1009.707 944.044
608 2  704.848 705.904 635.108
609 2  594.533 984.855 668.398
610 2  535.343 1290.353 705.675
611 2  717.810 283.012 1316.262
612 2  801.288 1404.286 305.634
613 2  2828.147 708.098 134.203
614 2  1290.573 626.572 946.191
615 2  692.654 739.461 392.616
616 2  201.009 563.141 282.730
617 2  700.681 424.418 1194.567
618 2  1025.484 1014.388 966.565
619 2  2999.095 1.679 2996.171
620 2  428.698 98.641 298.454
621 2  2395.285 2506.012 1421.738
622 2  1036.364 353.748 621.998
623 2  266.157 2841.928 1028.198
624 2  1185.359 788.355 499.497
625 2  353.732 1126.000 807.685
626 2  109.023 1666.036 451.628
627 2  1186.824 222.747 1648.594
628 2  0.000 1011.068 781.405
629 2  234.751 1144.953 415.580
630 2  2889.916 2860.268 302.312
631 2  244.438 862.313 1474.967
632 2  1619.949 468.294 0.000
633 2  483.630 906.269 1325.087
634 2  352.307 0.000 416.380
635 2  489.377 487.868 186.822
636 2  1887.647 1351.821 780.238
637 2  1078.649 366.816 798.519
638 2  1455.101 814.113 746.099
639 2  5.140 2.243 1045.666
640 2  735.209 888.606 587.838
641 2  948.101 975.351 718.704
642 2  319.341 166.826 412.367
643 2  1818.354 744.891 1483.571
644 2  256.981 551.074 2531.551
645 2  1317.224 590.276 67.573
646 2  1056.595 1069.409 581.133
647 2  670.357 123.615 1230.529
648 2  493.185 1343.154 173.169
649 2  569.289 1257.253 2555.895
650 2  0.000 2751.792 2538.582
651 2  1481.941 246.077 320.838
652 2  2229.479 220.744 976.294
653 2  1621.284 538.356 966.110
654 2  1486.162 244.163 1965.643
655 2  1342.379 1181.464 2611.405
656 2  2184.031 3000.000 584.710
657 2  1197.126 1030.256 931.539
658 2  3000.000 1736.068 1795.343
659 2  440.110 1588.380 527.470
660 2  648.054 727.921 189.812
661 2  808.066 1310.653 956.063
662 2  920.497 1520.512 849.513
663 2  1666.852 1730.976 2923.393
664 2  1982.594 808.172 781.652
665 2  2716.544 0.004 175.795
666 2  0.175 2377.713 2999.332
667 2  254.695 784.294 1288.574
668 2  982.670 1501.543 0.000
669 2  609.983 254.520 614.366
670 2  411.723 901.703 80.676
671 2  2541.704 2406.124 518.886
672 2  621.697 250.489 1539.731
673 2  996.511 216.952 357.076
674 2  163.408 389.175 551.720
675 2  226.995 364.527 1080.178
676 2  597.713 643.470 1169.978
677 2  435.436 486.917 1052.572
678 2  979.876 2768.738 2857.643
679 2  68.350 1701.674 2633.329
680 2  614.187 1010.387 854.821
681 2  891.945 1273.989 774.119
682 2  1147.989 352.718 305.404
683 2  1373.581 424.373 920.311
684 2  1370.979 187.602 4.885
685 2  667.811 1590.694 96.047
686 2  1173.797 279.695 502.833
687 2  2468.966 392.547 2924.410
688 2  1131.862 2289.842 1525.310
689 2  498.696 1096.607 1218.993
690 2  548.623 454.347 1268.047
691 2  562.495 254.820 1041.006
692 2  1399.751 928.652 2936.379
693 2  1281.637 190.854 1260.239
694 2  2279.624 2880.093 2864.274
695 2  2990.419 2409.621 681.077
696 2  1755.679 367.630 167.116
697 2  2942.164 1852.875 2985.661
698 2  558.815 1195.828 451.705
699 2  367.462 637.275 1421.013
700 2  148.480 499.571 690.890
701 2  1375.457 763.039 392.623
702 2  942.958 2883.964 563.696
703 2  2442.246 62.682 2848.229
704 2  1230.099 2112.031 1039.885
705 2  524.814 759.494 468.953
706 2  250.191 1521.650 589.792
707 2  361.832 393.138 781.179
708 2  1134.886 387.565 2562.537
709 2  673.275 1254.990 230.348
710 2  604.506 89.783 293.995
711 2  708.002 113.560 1053.201
712 2  72.487 271.541 2896.407
713 2  177.758 1077.569 1490.117
714 2  1908.798 407.867 1468.280
715 2  91.103 2293.411 141.953
716 2  514.473 1751.404 180.792
717 2  2895.356 2950.964 1611.722
718 2  2225.417 65.889 2970.335
719 2  1019.873 760.167 1886.606
720 2  1360.339 2954.929 2988.628
721 2  493.563 25.419 0.000
722 2  606.238 482.038 330.509
723 2  1849.680 495.079 1209.913
724 2  284.231 1058.512 641.777
725 2  749.842 3000.000 1479.664
726 2  143.272 2081.180 1351.694
727 2  2124.885 2152.045 1260.012
728 2  1023.743 418.757 167.469
729 2  1836.340 896.101 1342.157
730 2  771.957 825.029 763.471
731 2  42.647 767.977 184.183
732 2  666.662 9.041 154.790
733 2  2914.752 532.386 2838.038
734 2  1400.281 0.000 862.553
735 2  193.442 1326.330 455.904
736 2  284.805 364.837 144.436
737 2  612.114 993.636 213.220
738 2  421.189 1435.671 728.093
739 2  249.346 2197.046 52.552
740 2  108.046 593.611 1202.271
741 2  483.394 669.573 211.508
742 2  781.193 1427.351 137.456
743 2  1927.823 852.920 301.967
744 2  8.522 988.933 605.050
745 2  2250.719 415.362 207.260
746 2  2448.609 1221.962 1572.106
747 2  2789.321 2.030 2998.905
748 2  2818.426 3000.000 1049.080
749 2  1071.420 1266.369 86.414
750 2  775.071 2424.670 2934.567
751 2  104.428 1381.896 1902.849
752 2  688.388 1130.684 1162.268
753 2  156.491 936.699 771.238
754 2  1888.146 765.686 2976.186
755 2  655.363 2923.589 2826.444
756 2  400.638 497.178 510.427
757 2  877.780 1141.728 880.146
758 2  144.832 1380.616 985.298
759 2  2879.088 88.808 558.561
760 2  2839.442 1370.368 2953.697
761 2  523.281 616.701 1.700
762 2  545.806 2629.091 392.313
763 2  2946.138 988.547 2884.365
764 2  0.059 2779.317 1250.848
765 2  1338.515 1661.502 1332.633
766 2  1817.626 1892.530 1750.363
767 2  2955.958 2142.290 1724.268
768 2  2324.479 2275.559 5.437
769 2  168.533 818.681 375.928
770 2  2250.210 370.478 0.000
771 2  1273.946 187.770 146.223
772 2  1495.847 422.539 147.884
773 2  1728.542 328.567 2961.756
774 2  2413.680 2900.568 248.013
775 2  1744.791 961.320 103.213
776 2  275.459 195.077 1164.847
777 2  1839.065 1524.947 1641.316
778 2  2621.919 937.470 731.666
779 2  1247.484 1142.075 497.084
780 2  635.080 1863.251 4.651
781 2  1433.857 80.328 673.768
782 2  1095.029 623.532 631.628
783 2  601.844 1384.005 1094.232
784 2  1713.160 993.256 1197.163
785 2  625.693 635.384 1762.428
786 2  446.419 1646.362 1404.350
787 2  2558.095 0.000 1228.372
788 2  179.214 1333.630 270.048
789 2  2049.509 1221.737 7.561
790 2  0.000 419.309 752.663
791 2  1148.629 1042.156 1305.867
792 2  471.189 1078.011 923.414
793 2  494.178 1787.460 1571.454
794 2  1315.349 134.086 323.122
795 2  258.552 1667.404 204.080
796 2  2990.932 86.324 1112.980
797 2  2103.320 285.809 1405.013
798 2  637.629 1489.469 1617.219
799 2  1968.860 151.240 506.592
800 2  1433.366 938.931 547.493
801 2  390.902 404.870 1647.569
802 2  741.760 1203.823 1476.142
803 2  2105.815 437.177 1496.432
804 2  72.874 893.464 2686.102
805 2  1457.074 66.005 407.777
806 2  1493.145 129.080 1838.047
807 2  1382.327 414.804 614.693
808 2  581.851 1011.487 3000.000
809 2  376.273 1237.089 1186.991
810 2  44.455 1146.856 425.432
811 2  1104.229 692.473 999.292
812 2  407.067 161.252 1566.945
813 2  20.628 2986.017 1721.305
814 2  327.588 1083.698 2096.574
815 2  960.621 1657.235 1063.823
816 2  2068.048 2985.382 413.417
817 2  1144.364 1300.891 1057.833
818 2  4.317 173.811 2034.997
819 2  35.013 2157.249 1480.896
820 2  382.988 351.209 944.691
821 2  531.170 14.870 2013.151
822 2  359.830 1667.596 1188.068
823 2  2952.331 2918.762 2251.484
824 2  937.220 60.747 1579.330
825 2  312.461 888.610 1121.058
826 2  1508.096 289.332 17.645
827 2  1826.796 1162.681 548.996
828 2  1098.119 924.332 399.783
829 2  58.008 2000.447 1745.669
830 2  267.329 1433.131 2660.516
831 2  146.619 2013.286 2940.171
832 2  66.739 1200.219 1288.109
833 2  451.425 146.964 1129.048
834 2  872.518 1219.375 349.545
835 2  8.933 750.615 1621.049
836 2  770.403 1717.081 6.124
837 2  2111.759 155.094 2131.616
838 2  1221.648 52.828 670.220
839 2  1397.150 457.327 406.938
840 2  1144.715 459.916 450.889
841 2  316.265 1026.303 1369.110
842 2  655.995 208.349 1749.763
843 2  232.170 1220.510 671.803
844 2  502.169 306.979 0.000
845 2  156.702 1965.723 656.930
846 2  1473.643 621.898 469.605
847 2  1749.165 934.555 1884.808
848 2  2020.918 1291.583 2881.827
849 2  174.681 65.341 2286.537
850 2  466.399 2344.521 1347.593
851 2  1036.050 1327.370 554.198
852 2  377.626 1090.762 1551.668
853 2  1688.931 1595.905 1553.625
854 2  643.105 1314.949 538.957
855 2  18.619 709.895 1420.925
856 2  101.496 299.604 2591.878
857 2  819.448 389.707 1047.182
858 2  1216.486 714.650 1212.312
859 2  2883.826 1050.189 90.084
860 2  1202.076 224.025 673.629
861 2  724.980 765.626 1475.310
862 2  415.288 1955.773 1410.439
863 2  737.679 1133.187 477.024
864 2  2210.719 1632.986 2849.498
865 2  1049.175 1490.304 607.883
866 2  1632.307 943.540 574.361
867 2  2584.396 1050.873 995.315
868 2  1264.204 1845.626 107.893
869 2  170.629 573.585 1006.665
870 2  1399.406 792.612 923.817
871 2  1203.350 0.000 919.568
872 2  1038.172 1038.613 251.592
873 2  1081.054 397.133 1228.398
874 2  961.151 2080.838 1099.504
875 2  1938.402 648.499 2111.754
876 2  35.949 1523.445 694.732
877 2  1080.449 32.729 161.770
878 2  1529.415 610.631 23.712
879 2  881.949 1032.042 385.074
880 2  2990.447 1494.538 582.091
881 2  535.121 936.647 1126.865
882 2  1528.992 1893.032 970.020
883 2  1453.608 0.000 1955.604
884 2  1295.778 1035.230 621.554
885 2  474.772 1592.424 332.424
886 2  1726.451 0.000 346.173
887 2  1536.098 3000.000 2625.306
888 2  183.303 484.842 1341.074
889 2  1699.044 2106.740 1075.193
890 2  0.000 1269.215 832.232
891 2  548.749 784.930 0.000
892 2  2452.112 1587.921 886.738
893 2  447.629 320.587 1156.503
894 2  147.500 1948.782 1522.610
895 2  2251.001 1518.777 2637.829
896 2  30.796 1022.000 983.385
897 2  1510.847 195.128 978.934
898 2  384.027 357.463 1319.607
899 2  914.607 907.177 1215.663
900 2  2014.624 699.004 0.000
901 2  584.906 2740.321 1.614
902 2  2100.141 1370.075 849.196
903 2  583.095 2261.020 60.836
904 2  2731.766 1170.452 141.538
905 2  314.022 912.533 544.310
906 2  454.898 2582.183 1732.322
907 2  268.646 1.481 1663.001
908 2  1363.427 1000.806 378.940
909 2  195.688 1501.375 365.568
910 2  857.069 16.352 2123.331
911 2  1688.655 433.977 633.218