LAMMPS data file, Author: Jerry Qin

1000 atoms
0 bonds
0 angles

2 atom types

-100.0 6100 xlo xhi
-100.0 6100 ylo yhi
-100.0 6100 zlo zhi

Masses

1 221851
2 422051

Atoms

1 1  1404.495 5220.901 5998.899
2 1  0.784 5999.215 1357.131
3 1  4924.700 4429.641 0.000
4 1  2061.767 0.000 1142.433
5 1  945.046 873.097 4326.797
6 1  2774.123 32.086 5990.894
7 1  2240.596 0.166 0.557
8 1  2968.812 2451.266 6000.000
9 1  1395.214 5989.365 2.631
10 1  0.000 4020.786 0.000
11 1  1577.329 4266.068 0.000
12 1  5995.076 2413.351 5995.520
13 1  5998.297 5997.965 5540.145
14 1  200.414 5614.188 5997.253
15 1  76.097 2.771 5833.557
16 1  6.299 2625.468 1.511
17 1  3281.258 286.327 905.024
18 1  191.033 5998.885 5999.822
19 1  2752.848 3491.783 5999.237
20 1  1231.366 2277.978 2657.350
21 1  1121.069 2417.309 0.001
22 1  3294.869 3464.549 0.000
23 1  1.403 5996.788 2265.766
24 1  5852.551 713.682 5999.280
25 1  5598.197 5999.999 3684.068
26 1  815.015 1615.135 3771.329
27 1  2355.992 4469.282 4903.266
28 1  1961.370 2843.142 0.001
29 1  3044.956 1493.395 5999.898
30 1  2374.448 5259.886 5996.290
31 1  993.144 5998.849 0.653
32 1  17.245 5923.277 1810.932
33 1  2109.063 1839.676 3369.138
34 1  3321.096 3864.411 2899.168
35 1  3097.695 5361.409 793.564
36 1  5141.492 3.202 2675.500
37 1  2011.650 2405.429 235.297
38 1  4439.841 459.443 5999.807
39 1  1.297 1.471 5421.167
40 1  7.555 4487.745 5386.623
41 1  5999.773 1052.625 2783.806
42 1  732.084 5948.679 497.387
43 1  3107.729 5148.330 707.693
44 1  1642.750 1648.879 5604.161
45 1  2453.456 5999.046 800.890
46 1  3709.595 3149.113 0.000
47 1  9.332 97.641 2409.478
48 1  0.000 2053.417 832.359
49 1  0.000 1893.211 1754.152
50 1  0.000 2138.295 563.116
51 1  3530.201 280.043 69.680
52 1  924.172 71.571 748.338
53 1  1088.408 205.243 0.000
54 1  1364.425 616.351 0.000
55 1  1132.085 1538.757 0.000
56 1  4131.595 811.880 0.000
57 1  611.917 5999.514 4194.396
58 1  0.000 2580.037 1567.019
59 1  2900.802 1379.193 6.942
60 1  1.649 2095.067 1441.681
61 1  3677.070 1937.202 187.884
62 1  5200.961 2313.154 6000.000
63 1  2110.537 107.132 118.562
64 1  3228.208 4631.433 940.505
65 1  1535.436 1750.979 429.529
66 1  1300.690 1313.733 1218.512
67 1  4.445 633.406 2190.748
68 1  1960.015 1054.802 3474.943
69 1  0.000 5241.178 4942.286
70 1  3209.660 0.000 3117.475
71 1  3369.574 1831.327 51.276
72 1  957.731 1822.818 1477.591
73 1  1328.246 37.806 975.770
74 1  1212.007 2782.374 0.000
75 1  0.000 2830.845 4646.909
76 1  1933.142 24.950 3705.543
77 1  2319.758 2292.567 214.854
78 1  248.208 2532.930 240.862
79 1  1840.366 741.817 0.000
80 1  343.429 1014.068 43.256
81 1  955.579 518.151 3914.433
82 1  1937.127 1042.036 3786.525
83 1  755.815 3433.310 177.800
84 1  5992.263 822.668 5967.570
85 1  0.000 2943.035 2683.980
86 1  3059.148 3581.477 0.000
87 1  5659.261 1905.676 1291.663
88 1  789.833 0.000 364.444
89 1  384.776 2108.318 1221.847
90 1  1841.092 3.458 2803.369
91 1  1636.958 876.322 0.000
92 1  2418.850 517.801 0.000
93 1  1041.944 2.785 389.985
94 1  1934.147 2211.515 3493.541
95 1  2767.569 0.000 609.330
96 1  5978.686 3633.379 16.742
97 1  2228.140 0.000 1300.844
98 1  1436.929 0.000 4472.900
99 1  3139.871 0.000 2751.457
100 1  1088.575 0.001 721.799
101 1  1.074 1058.535 2510.710
102 1  31.619 1887.170 2092.060
103 1  1698.409 0.478 681.473
104 1  4752.429 0.000 1151.328
105 1  11.992 2514.556 2013.543
106 1  3662.891 76.002 1863.018
107 1  631.195 1428.832 5329.470
108 1  592.216 4950.687 0.000
109 1  3714.820 5994.844 5445.148
110 1  632.965 1624.096 3412.125
111 1  4872.723 414.344 880.485
112 1  543.540 5783.752 5151.538
113 1  1001.396 173.270 911.114
114 1  0.000 3510.952 479.137
115 1  1239.114 5898.788 10.286
116 1  1189.226 2215.787 0.000
117 1  609.523 4044.499 5992.797
118 1  2560.222 49.165 1842.687
119 1  2035.365 44.098 524.503
120 1  760.851 81.157 2313.026
121 1  1912.853 4405.078 2297.465
122 1  0.000 3502.797 1462.195
123 1  2174.170 649.839 660.399
124 1  0.000 823.992 1595.346
125 1  3532.389 1673.126 45.057
126 1  30.839 712.204 805.404
127 1  0.000 3606.667 748.808
128 1  3235.853 1989.092 680.803
129 1  588.181 117.014 950.774
130 1  1454.395 24.582 1123.134
131 1  419.382 452.922 1867.142
132 1  1484.285 605.725 3043.504
133 1  3131.897 2097.058 522.327
134 1  687.081 405.657 1272.205
135 1  827.198 347.619 461.532
136 1  3582.000 5993.529 3305.837
137 1  1328.632 2190.065 2156.126
138 1  2608.759 1893.162 1753.868
139 1  1996.503 3105.542 1858.149
140 1  441.994 836.072 1364.950
141 1  0.000 1931.611 1054.059
142 1  2470.076 1368.503 183.279
143 1  4273.867 1871.694 872.011
144 1  1024.475 5523.048 5998.627
145 1  0.000 4187.315 686.675
146 1  2902.900 2586.602 58.029
147 1  2168.988 1968.675 6000.000
148 1  61.166 100.686 580.049
149 1  1243.584 218.770 128.808
150 1  1312.458 1570.355 2494.738
151 1  121.317 612.266 291.023
152 1  453.071 2514.261 840.565
153 1  20.968 2412.847 758.462
154 1  1768.361 1197.668 1286.701
155 1  219.855 1.749 187.246
156 1  904.059 1427.902 273.598
157 1  344.230 2303.904 159.016
158 1  858.193 899.974 815.015
159 1  0.000 521.480 3146.231
160 1  1553.670 2885.004 113.616
161 1  4886.549 4078.110 4321.402
162 1  1715.873 619.080 2540.034
163 1  1843.666 1320.506 5338.084
164 1  1.170 3074.130 794.233
165 1  2756.315 2331.419 3332.877
166 1  2721.699 0.566 128.111
167 1  423.723 1645.550 0.000
168 1  480.005 2593.770 1141.702
169 1  2344.059 373.791 449.249
170 1  683.117 647.114 63.357
171 1  1997.501 189.843 0.000
172 1  3612.202 4378.958 159.184
173 1  506.916 3762.140 980.905
174 1  832.270 2588.982 2723.581
175 1  2539.543 5999.281 4733.822
176 1  318.268 552.697 1504.863
177 1  2143.726 965.971 1618.892
178 1  0.000 674.548 3241.315
179 1  3222.949 988.448 0.000
180 1  1559.023 4889.109 2114.725
181 1  4290.989 7.889 1864.818
182 1  225.298 850.098 136.689
183 1  752.279 52.931 832.731
184 1  2354.727 430.708 3036.860
185 1  1409.198 201.143 57.481
186 1  1008.982 3778.571 3064.809
187 1  66.738 538.523 673.610
188 1  294.642 1987.492 6.900
189 1  1782.033 4798.836 5999.511
190 1  835.110 254.256 1027.741
191 1  4393.826 1401.147 5006.956
192 1  791.401 796.533 9.839
193 1  1161.425 111.332 1432.517
194 1  814.468 1375.584 618.217
195 1  1274.639 1918.459 1478.790
196 1  1496.156 17.579 412.090
197 1  1475.511 3761.851 4555.527
198 1  1062.419 1113.427 1070.983
199 1  306.996 2553.330 1042.877
200 1  726.956 4305.716 294.642
201 1  2242.195 2115.713 0.000
202 1  1892.155 210.604 479.996
203 1  3498.844 4181.948 1758.921
204 1  2471.160 152.517 712.476
205 1  96.368 5012.644 1663.379
206 1  840.836 2238.781 0.000
207 1  5109.107 5412.390 673.037
208 1  747.090 706.818 1626.866
209 1  2623.463 788.723 2774.256
210 1  1713.692 995.557 118.117
211 1  2637.497 0.000 2714.825
212 1  171.366 610.650 1795.223
213 1  1236.415 961.430 1192.172
214 1  3025.305 1001.731 0.000
215 1  42.176 427.589 2045.597
216 1  78.154 2793.024 1481.577
217 1  3301.941 232.960 1321.433
218 1  2051.984 0.000 1391.809
219 1  3179.699 2439.917 3019.095
220 1  926.125 936.226 1664.328
221 1  1658.622 95.709 495.824
222 1  5084.790 3181.251 2237.072
223 1  486.522 145.346 281.778
224 1  2523.403 399.941 763.033
225 1  5999.240 3275.324 758.689
226 1  0.000 467.142 403.412
227 1  4751.144 36.024 0.132
228 1  2367.229 601.970 4276.086
229 1  2888.294 1735.215 871.609
230 1  6000.000 0.000 4294.114
231 1  199.785 17.742 1551.023
232 1  36.913 315.410 1405.111
233 1  2357.217 527.288 1793.070
234 1  699.663 292.622 19.106
235 1  1410.614 0.000 2667.035
236 1  897.200 270.549 0.000
237 1  1531.266 1376.624 1704.148
238 1  11.608 1004.819 2842.183
239 1  11.953 2452.479 2391.065
240 1  1874.496 1780.440 3812.885
241 1  989.422 49.015 21.847
242 1  851.486 796.386 603.983
243 1  2061.368 1364.561 2997.039
244 1  772.195 3913.952 884.811
245 1  1523.438 1935.270 1511.031
246 1  904.781 1155.113 148.473
247 1  4166.691 2331.735 2431.301
248 1  564.559 791.316 0.000
249 1  1841.979 0.000 1382.198
250 1  1343.957 4397.013 1913.092
251 1  1483.920 2367.299 16.597
252 1  488.457 221.552 1384.912
253 1  1946.314 3394.664 1737.554
254 1  7.451 3549.583 100.399
255 1  670.686 1138.112 1234.576
256 1  899.854 78.247 1230.307
257 1  2081.116 0.000 2039.897
258 1  5989.701 0.000 3333.655
259 1  1709.476 2187.094 108.022
260 1  0.000 1847.006 1373.148
261 1  41.211 46.763 5251.540
262 1  1162.264 867.882 893.646
263 1  1693.960 1259.207 1664.665
264 1  5219.072 0.000 3091.997
265 1  1543.187 928.670 332.002
266 1  3279.507 6000.000 0.000
267 1  2557.454 2523.776 3356.745
268 1  989.429 1932.709 184.867
269 1  4215.991 0.000 7.737
270 1  2140.836 0.000 5365.186
271 1  3991.236 1534.896 2129.982
272 1  1215.528 1366.984 1869.581
273 1  1090.740 1210.365 103.833
274 1  4994.307 2425.590 733.897
275 1  2065.161 3765.128 692.565
276 1  0.000 489.390 2398.692
277 1  81.789 213.702 2182.154
278 1  493.752 243.941 14.399
279 1  187.109 3806.155 0.000
280 1  1441.161 1453.213 2050.948
281 1  752.484 1185.916 0.000
282 1  5899.223 2939.061 4647.507
283 1  0.000 308.691 2672.788
284 1  4534.434 1554.084 372.175
285 1  1169.065 674.513 31.197
286 1  760.098 0.409 1893.628
287 1  3331.746 805.615 0.000
288 1  4018.529 25.222 79.108
289 1  623.250 73.543 0.000
290 1  1243.700 1014.636 788.446
291 1  2302.965 1729.572 5121.948
292 1  118.624 2611.769 1401.134
293 1  1305.603 1260.107 0.051
294 1  0.145 254.649 2016.679
295 1  0.000 1095.612 2056.082
296 1  0.000 4709.600 2997.032
297 1  311.619 306.019 1086.325
298 1  910.607 1113.268 1521.200
299 1  916.733 5989.137 5419.616
300 1  3.714 71.131 3243.624
301 1  3908.370 5841.366 3796.356
302 1  58.432 413.031 132.736
303 1  3184.098 0.000 5884.455
304 1  2814.383 3547.820 1573.834
305 1  5839.527 1372.479 1564.518
306 1  1404.717 898.259 4392.810
307 1  932.625 2267.876 1452.701
308 1  210.487 12.725 1056.303
309 1  2589.285 65.541 1030.458
310 1  181.947 1147.469 0.000
311 1  0.000 2663.726 2993.139
312 1  1226.691 4494.300 174.463
313 1  308.614 230.403 319.726
314 1  1350.992 3683.230 0.000
315 1  5414.784 1037.613 4819.122
316 1  418.497 2125.605 10.871
317 1  892.086 1381.176 2055.791
318 1  0.000 2093.957 350.383
319 1  116.040 460.746 956.465
320 1  1122.355 942.148 0.000
321 1  2479.682 3241.339 1954.091
322 1  3538.268 5666.218 4223.267
323 1  44.936 3485.400 3796.363
324 1  420.580 2602.527 2393.069
325 1  3064.268 60.090 115.223
326 1  1015.216 1513.080 1555.923
327 1  3820.804 2922.802 576.578
328 1  1679.694 1597.833 1664.084
329 1  817.213 992.082 0.000
330 1  2249.790 2368.750 3773.766
331 1  1045.374 738.224 1884.886
332 1  0.000 3165.763 1070.007
333 1  1774.668 2702.721 1441.050
334 1  172.509 2992.999 180.979
335 1  5683.167 0.000 1299.877
336 1  1115.372 1559.659 612.407
337 1  3534.803 1418.894 165.800
338 1  1849.014 2640.615 74.575
339 1  1.359 1518.741 563.100
340 1  2113.666 577.266 1848.950
341 1  1548.550 3079.723 5.258
342 1  1537.334 1249.714 2185.851
343 1  1759.999 1906.559 942.975
344 1  4378.243 5962.219 16.594
345 1  2856.940 244.844 0.000
346 1  309.631 515.023 2703.411
347 1  995.421 784.568 0.000
348 1  1772.029 2001.612 137.819
349 1  274.385 514.191 2414.926
350 1  5057.604 0.000 1363.424
351 1  3394.022 134.303 1866.508
352 1  2597.074 0.796 5999.771
353 1  2921.952 45.336 482.283
354 1  113.635 323.154 348.288
355 1  0.000 4332.826 462.631
356 1  4001.182 1413.036 5945.823
357 1  1278.516 1063.987 0.000
358 1  1439.153 1932.036 27.636
359 1  3497.540 2112.391 742.446
360 1  326.234 732.664 4585.583
361 1  0.000 1662.614 411.282
362 1  1205.121 325.526 1267.062
363 1  3197.852 1682.533 1774.166
364 1  4506.365 3591.437 0.000
365 1  321.723 47.424 1243.265
366 1  2211.577 2455.741 4517.267
367 1  3026.145 2592.981 228.782
368 1  1239.027 3186.956 1066.412
369 1  3360.418 1102.997 4979.889
370 1  943.820 4138.962 1818.168
371 1  1571.717 489.005 981.550
372 1  1271.722 472.089 394.271
373 1  113.329 85.951 2033.493
374 1  1831.366 4836.281 2313.939
375 1  142.712 2295.243 1564.068
376 1  22.258 2915.065 0.118
377 1  938.323 55.901 3960.608
378 1  830.861 61.575 999.586
379 1  1225.124 0.000 6000.000
380 1  191.670 0.000 2962.468
381 1  0.000 2261.123 2647.881
382 1  335.526 864.135 2626.932
383 1  1002.604 1260.867 1849.710
384 1  2.484 1064.626 1575.507
385 1  2411.420 0.000 2235.452
386 1  1932.366 3168.676 2561.305
387 1  5990.638 438.203 220.967
388 1  840.768 179.159 4714.954
389 1  1532.424 3643.613 1377.410
390 1  0.000 4346.829 1806.958
391 1  387.439 42.427 1447.379
392 1  733.405 2.522 623.532
393 1  2438.038 0.000 3464.453
394 1  0.000 1726.032 777.791
395 1  997.417 1517.708 3168.588
396 1  4783.390 0.000 3312.243
397 1  971.797 816.172 5737.973
398 1  419.256 47.933 96.394
399 1  1601.049 0.498 5991.778
400 1  3163.332 360.989 3321.442
401 1  89.110 5971.576 5256.942
402 1  1380.759 899.952 992.773
403 1  244.739 1882.026 204.398
404 1  172.407 1715.540 1162.315
405 1  2419.603 3837.220 2119.224
406 1  6000.000 971.750 941.015
407 1  1220.300 41.469 1603.355
408 1  677.482 73.406 1351.569
409 1  330.369 1202.452 152.001
410 1  5967.712 3101.109 3302.015
411 1  2544.819 3649.984 427.678
412 1  117.283 2072.102 0.000
413 1  312.291 1463.753 42.298
414 1  72.735 289.951 1122.558
415 1  992.848 2835.113 1864.560
416 1  1523.884 2707.267 0.255
417 1  0.000 1385.353 1547.405
418 1  318.805 4386.275 70.850
419 1  1619.513 1813.183 0.000
420 1  5420.335 6.276 603.488
421 1  1016.304 4117.501 772.845
422 1  531.844 408.181 915.799
423 1  1211.806 53.989 477.924
424 1  827.223 1571.812 1505.425
425 1  769.216 7.115 1543.173
426 1  4.454 1702.070 594.286
427 1  976.320 21.325 2410.596
428 1  145.298 2544.440 82.833
429 1  2385.545 1357.417 0.000
430 1  3242.996 3910.582 3284.704
431 1  1703.999 77.270 1279.023
432 1  2596.525 0.000 3010.141
433 1  1308.470 1275.935 505.144
434 1  2118.875 1130.617 0.000
435 1  834.436 3992.689 1166.115
436 1  4812.195 2809.006 3190.439
437 1  4384.836 4041.864 4317.576
438 1  816.121 446.593 2629.977
439 1  284.555 0.884 3150.690
440 1  5001.618 5848.306 1196.444
441 1  1589.879 5228.937 2730.199
442 1  0.000 1527.108 2374.215
443 1  13.412 1258.769 1173.393
444 1  3282.439 0.989 2032.674
445 1  143.604 542.341 2265.209
446 1  985.452 1672.964 0.000
447 1  962.045 4018.649 3298.526
448 1  1445.071 277.427 2922.708
449 1  712.763 1641.831 1651.029
450 1  2064.187 2263.464 0.060
451 1  680.647 2041.119 1484.987
452 1  2685.164 1318.948 0.000
453 1  1349.792 380.074 0.000
454 1  2679.741 3204.238 3400.061
455 1  217.885 1436.182 3697.983
456 1  1519.938 164.444 1689.780
457 1  1791.453 1366.934 1437.877
458 1  2263.595 1814.440 3574.353
459 1  4117.506 1578.402 1127.163
460 1  1156.799 189.428 1745.447
461 1  5706.063 4970.877 463.039
462 1  2318.740 0.000 172.175
463 1  3641.751 5127.022 2560.333
464 1  934.433 3295.294 110.493
465 1  1799.761 744.177 2315.116
466 1  2610.097 572.297 2.059
467 1  0.000 2461.903 4071.857
468 1  2254.999 1964.026 233.237
469 1  3148.392 1622.974 0.000
470 1  0.000 1792.524 2758.204
471 1  0.000 3018.888 2215.987
472 1  746.032 2047.905 42.264
473 1  1422.598 524.966 851.759
474 1  2468.288 317.717 22.186
475 1  3253.282 0.000 457.927
476 1  619.358 4379.503 1541.555
477 1  5012.961 38.126 5404.145
478 1  850.275 2294.783 5999.576
479 1  2260.294 2692.145 0.000
480 1  1820.162 5279.422 6000.000
481 1  6.672 572.909 5999.580
482 1  4639.498 2360.453 827.797
483 1  4140.802 223.149 3663.298
484 1  1046.934 0.139 1628.573
485 1  5994.008 1544.917 1979.672
486 1  435.678 2379.056 3209.785
487 1  0.001 2523.400 5998.056
488 1  211.706 452.175 3039.142
489 1  10.984 5989.050 1177.691
490 1  1155.345 5975.520 151.157
491 1  3904.566 4386.051 2230.197
492 1  5999.883 3.288 2.843
493 1  5679.685 5958.825 2.035
494 1  435.962 3131.058 0.314
495 1  5743.185 1147.782 220.646
496 1  2480.193 3897.865 3034.871
497 1  5776.685 5493.627 4930.199
498 1  5999.018 512.324 4893.162
499 1  4204.166 5999.575 1305.052
500 1  2526.415 0.000 2041.177
501 2  5999.945 3058.554 5928.001
502 2  3732.510 103.156 125.395
503 2  4060.534 1274.242 0.004
504 2  0.412 853.064 5999.333
505 2  2992.553 1230.912 6000.000
506 2  0.330 5342.969 5999.907
507 2  3957.340 0.001 2545.806
508 2  270.826 4988.194 230.268
509 2  4874.562 0.205 2754.346
510 2  5999.724 1203.956 3863.401
511 2  4457.533 5608.908 1806.656
512 2  0.000 4067.045 6000.000
513 2  5996.578 5080.684 1.276
514 2  4180.938 0.296 5993.338
515 2  2926.118 5912.317 3815.089
516 2  5997.305 5999.077 2577.354
517 2  3781.399 3310.613 6000.000
518 2  2384.000 0.379 1903.766
519 2  4723.562 1622.191 0.000
520 2  2543.510 843.230 5191.597
521 2  5643.290 99.567 5998.837
522 2  2842.533 2403.057 4876.586
523 2  1832.006 5574.892 1896.631
524 2  1.484 2.220 2561.941
525 2  1.319 5998.927 5492.472
526 2  783.288 5377.326 1098.977
527 2  5999.999 3894.484 1801.462
528 2  713.120 1586.126 4266.050
529 2  5999.574 4830.320 4672.344
530 2  0.002 3160.072 629.073
531 2  2222.475 592.337 2134.122
532 2  5003.833 5856.408 0.000
533 2  0.747 4426.694 3801.120
534 2  0.000 2197.335 2160.802
535 2  5071.752 5982.440 3200.409
536 2  0.000 4871.002 4850.033
537 2  3435.308 5999.570 5999.874
538 2  1460.513 5999.905 1561.723
539 2  22.251 5941.020 5976.013
540 2  0.000 3850.522 4659.096
541 2  3137.245 0.635 2289.875
542 2  5301.879 5965.288 5974.303
543 2  2664.480 2447.824 2416.194
544 2  2483.380 5397.358 566.713
545 2  5963.185 3911.006 0.000
546 2  0.000 1179.586 2684.156
547 2  2760.142 5990.066 5940.737
548 2  1290.537 2839.262 3244.730
549 2  947.922 5999.998 697.014
550 2  1616.343 2660.404 2109.725
551 2  1224.973 1400.958 181.937
552 2  4799.696 4550.417 2104.531
553 2  708.177 1453.534 299.584
554 2  2708.162 0.000 4501.024
555 2  1043.727 363.335 946.997
556 2  5026.597 3620.908 1762.801
557 2  255.301 0.000 5290.915
558 2  1678.433 3614.872 0.000
559 2  6000.000 5262.618 2904.162
560 2  0.000 1519.154 1386.311
561 2  5990.936 2624.609 5984.569
562 2  4853.934 861.014 1032.706
563 2  0.000 969.429 5580.177
564 2  1476.240 2369.194 255.144
565 2  15.896 250.921 3546.289
566 2  4672.730 5585.774 4539.096
567 2  594.447 12.352 181.525
568 2  1156.007 0.000 2863.711
569 2  1865.877 0.000 220.256
570 2  538.641 0.000 654.411
571 2  2420.362 9.485 3.112
572 2  270.495 1368.686 774.014
573 2  1918.591 495.866 1156.191
574 2  2200.346 0.000 811.087
575 2  290.189 1959.586 1129.956
576 2  339.417 5967.088 3624.747
577 2  2063.083 408.861 0.000
578 2  1966.216 2671.200 1017.724
579 2  812.296 1337.449 423.937
580 2  436.374 674.531 807.625
581 2  853.163 596.038 1483.606
582 2  4472.812 484.187 4450.593
583 2  747.136 988.297 638.084
584 2  1687.806 584.138 4970.360
585 2  207.168 1559.856 867.390
586 2  305.894 820.103 841.295
587 2  3301.567 0.579 3990.428
588 2  2741.453 0.000 904.393
589 2  1259.025 907.639 137.106
590 2  689.778 764.599 1232.473
591 2  935.210 874.142 1033.119
592 2  2490.862 5101.337 5370.610
593 2  0.000 1603.566 238.123
594 2  5.349 1049.066 1170.645
595 2  471.916 1882.485 536.951
596 2  1411.275 1076.828 635.792
597 2  302.244 16.062 2045.597
598 2  1240.213 1042.311 991.811
599 2  649.088 235.899 350.638
600 2  2626.868 47.177 1219.278
601 2  3684.270 4736.253 3396.727
602 2  931.278 382.407 164.969
603 2  1289.406 1218.373 2023.543
604 2  864.243 313.591 840.113
605 2  1122.756 723.918 555.939
606 2  1818.419 411.115 260.192
607 2  941.857 1250.718 704.152
608 2  555.074 1170.832 0.000
609 2  3524.261 1900.041 2766.616
610 2  56.325 1164.354 1746.538
611 2  0.000 801.337 2071.639
612 2  1668.921 1507.945 872.951
613 2  1720.523 657.643 573.766
614 2  0.440 121.529 1065.952
615 2  1084.836 551.791 463.111
616 2  2708.251 196.181 399.432
617 2  0.000 1123.700 1382.439
618 2  571.336 785.416 875.092
619 2  1149.613 0.000 1055.133
620 2  879.107 589.669 968.816
621 2  389.608 508.856 1013.425
622 2  1716.335 4795.317 1562.868
623 2  780.204 776.385 426.349
624 2  478.037 249.761 591.633
625 2  36.349 1879.535 882.337
626 2  893.174 503.566 791.070
627 2  2164.499 474.195 1408.703
628 2  152.940 1128.409 191.564
629 2  3076.369 533.010 163.684
630 2  153.758 101.710 352.396
631 2  1317.620 721.178 856.992
632 2  535.675 2242.986 1198.191
633 2  990.453 484.354 1094.377
634 2  1206.328 598.114 2624.482
635 2  507.554 903.094 1195.624
636 2  830.974 701.033 2754.779
637 2  981.703 1283.986 512.201
638 2  1195.761 1495.931 794.998
639 2  1294.891 0.000 1830.439
640 2  5997.352 5999.588 5134.984
641 2  377.363 80.709 717.987
642 2  434.546 1115.023 523.580
643 2  2332.413 2429.022 4281.180
644 2  731.107 628.143 1095.085
645 2  954.200 226.579 652.597
646 2  1109.934 1205.376 301.255
647 2  1075.685 548.070 875.925
648 2  1115.372 436.483 264.853
649 2  550.793 873.504 475.718
650 2  0.000 2762.931 3414.570
651 2  16.628 864.589 1041.678
652 2  0.000 609.885 1118.722
653 2  206.234 599.915 800.080
654 2  0.000 1330.396 2071.136
655 2  203.340 627.589 1022.302
656 2  1465.032 2535.929 2221.594
657 2  1056.354 1008.470 203.888
658 2  1792.835 1876.945 327.190
659 2  1045.754 303.061 1151.731
660 2  701.130 1270.786 1845.880
661 2  100.349 555.786 1310.155
662 2  2731.575 798.832 2534.826
663 2  872.267 1459.342 789.868
664 2  2516.917 5076.131 3534.153
665 2  2256.553 1831.842 2515.606
666 2  2836.239 2139.125 0.000
667 2  260.828 655.706 106.566
668 2  936.638 782.324 1539.142
669 2  1591.177 250.612 372.219
670 2  1247.810 614.431 202.651
671 2  1256.898 63.999 19.672
672 2  1920.196 1632.930 1909.640
673 2  1812.988 3964.480 562.995
674 2  5993.866 3543.219 5664.115
675 2  790.367 444.376 630.313
676 2  1234.716 197.135 307.945
677 2  305.167 312.863 1347.495
678 2  1720.590 606.819 4519.096
679 2  346.194 1121.503 2158.483
680 2  1965.522 103.398 330.570
681 2  709.711 779.562 1435.498
682 2  0.000 1575.424 3176.343
683 2  578.881 571.130 743.158
684 2  1130.813 1919.215 4693.713
685 2  268.126 525.884 624.477
686 2  334.266 352.805 683.426
687 2  1170.138 852.176 314.304
688 2  693.149 280.755 1436.901
689 2  767.484 1589.846 0.000
690 2  725.334 473.489 893.810
691 2  1182.807 499.664 1174.215
692 2  0.000 894.465 798.099
693 2  1385.582 305.895 1019.269
694 2  1307.888 391.670 617.715
695 2  989.844 1068.000 382.649
696 2  2135.782 2598.631 1443.940
697 2  412.483 2.839 2209.885
698 2  4399.641 993.917 2986.418
699 2  508.163 611.906 1140.499
700 2  5977.322 1934.245 2511.834
701 2  1278.941 1073.463 354.739
702 2  0.000 1739.556 0.000
703 2  246.705 9.664 0.023
704 2  3658.470 2029.763 1673.025
705 2  1029.577 1373.533 879.056
706 2  5999.253 5999.869 3799.003
707 2  369.122 822.223 1.500
708 2  101.165 1365.987 269.405
709 2  9.920 954.364 341.247
710 2  201.612 2156.176 949.203
711 2  388.512 424.685 510.112
712 2  0.000 2508.463 5043.762
713 2  859.482 572.045 130.062
714 2  2948.714 5992.531 5646.729
715 2  742.950 678.314 232.685
716 2  6.577 996.177 129.038
717 2  2211.396 5003.753 904.481
718 2  4722.042 5196.161 563.149
719 2  5997.592 1070.071 5887.753
720 2  814.269 1182.506 548.258
721 2  666.698 267.968 1130.961
722 2  1292.509 233.580 499.170
723 2  2120.771 543.608 199.961
724 2  5362.824 2619.417 2840.100
725 2  679.269 845.691 735.453
726 2  2192.690 248.741 1276.505
727 2  182.970 814.540 451.737
728 2  606.705 620.621 946.256
729 2  966.929 871.390 315.364
730 2  1442.479 646.791 306.194
731 2  4752.983 4145.602 4110.338
732 2  3379.630 0.000 5916.473
733 2  467.012 1339.329 50.485
734 2  937.626 1754.342 1046.764
735 2  2653.705 4935.522 5916.359
736 2  1489.844 3.772 1443.706
737 2  1007.285 839.559 695.396
738 2  364.503 302.622 884.611
739 2  731.490 443.044 279.261
740 2  537.356 2873.031 533.485
741 2  1836.381 0.000 1145.595
742 2  221.191 476.364 412.778
743 2  3535.983 3705.773 2766.233
744 2  685.804 958.545 902.120
745 2  971.683 746.727 868.311
746 2  578.794 1296.757 1025.248
747 2  2306.947 2974.091 3867.982
748 2  13.087 2317.384 37.609
749 2  4050.141 1863.680 1206.022
750 2  629.876 1268.259 390.171
751 2  2587.191 0.000 5377.304
752 2  319.595 2585.801 670.709
753 2  18.397 109.351 3028.602
754 2  517.798 108.841 1213.489
755 2  606.359 1349.718 640.477
756 2  577.672 327.366 189.421
757 2  696.559 1105.151 298.427
758 2  2610.853 71.269 2513.202
759 2  1828.209 2287.984 6000.000
760 2  1324.759 868.465 668.708
761 2  1618.718 1133.566 0.000
762 2  1087.906 1189.511 835.037
763 2  678.568 891.296 300.836
764 2  67.389 28.939 2252.490
765 2  421.974 830.829 661.190
766 2  0.000 411.621 1244.257
767 2  748.477 476.921 1.111
768 2  797.609 442.625 1075.993
769 2  1142.667 203.520 775.622
770 2  1139.024 709.594 765.811
771 2  8.077 5954.440 2090.933
772 2  1127.488 701.216 1000.912
773 2  564.004 185.386 758.607
774 2  473.975 722.495 168.864
775 2  1457.401 3272.436 5567.775
776 2  3422.188 874.325 4666.856
777 2  859.782 534.113 1268.838
778 2  338.172 30.010 344.181
779 2  833.887 265.399 281.534
780 2  754.481 127.564 163.635
781 2  1638.844 2411.537 3437.558
782 2  356.705 683.971 557.864
783 2  1009.830 111.490 1090.467
784 2  0.851 137.369 1838.713
785 2  1114.437 0.000 181.152
786 2  627.317 1085.773 481.042
787 2  2335.852 2018.236 908.710
788 2  940.109 1373.189 86.470
789 2  2573.171 0.000 778.370
790 2  449.206 1180.989 930.334
791 2  2343.547 3246.000 2840.067
792 2  1741.738 1218.183 411.268
793 2  1086.941 617.278 1355.313
794 2  1604.802 535.139 751.838
795 2  1030.893 699.771 171.082
796 2  1282.189 402.435 168.402
797 2  719.246 1300.634 173.327
798 2  706.658 368.940 1760.912
799 2  445.292 1300.221 454.292
800 2  412.136 895.652 200.626
801 2  5585.099 982.982 2821.026
802 2  1517.738 383.881 219.298
803 2  3062.530 1935.195 4.978
804 2  1430.822 689.732 510.617
805 2  683.131 261.213 899.572
806 2  756.070 1551.796 492.475
807 2  809.691 1012.409 444.167
808 2  4487.935 2235.978 0.000
809 2  1155.262 912.351 504.555
810 2  625.021 1069.711 1054.342
811 2  663.489 695.705 587.930
812 2  2150.349 990.893 1200.682
813 2  538.944 4549.653 631.524
814 2  859.307 128.080 484.829
815 2  969.863 709.737 430.888
816 2  410.863 427.510 321.906
817 2  275.161 1169.255 628.653
818 2  1510.057 22.964 28.153
819 2  5127.967 5262.619 3669.596
820 2  757.608 244.981 668.136
821 2  1311.463 2416.223 0.000
822 2  899.077 773.656 1306.836
823 2  285.949 1552.123 1429.808
824 2  56.009 170.584 1261.237
825 2  462.046 1317.419 772.138
826 2  774.913 769.068 950.843
827 2  2292.565 975.472 19.202
828 2  177.589 167.936 1422.586
829 2  925.597 621.707 618.435
830 2  1220.235 675.736 388.890
831 2  5999.011 662.235 1733.507
832 2  1045.139 1317.909 1068.492
833 2  104.241 2372.438 3777.663
834 2  5279.325 4813.623 3682.820
835 2  341.361 994.769 945.325
836 2  2442.779 939.996 4225.634
837 2  1124.376 1141.235 510.209
838 2  9.587 5935.546 3470.732
839 2  5733.691 5979.019 1457.071
840 2  168.003 456.234 1147.472
841 2  0.461 4280.261 2087.314
842 2  1479.831 856.726 2531.963
843 2  391.322 1447.489 333.189
844 2  75.880 136.156 0.036
845 2  184.491 964.883 1165.609
846 2  3819.911 763.777 3352.776
847 2  0.000 5241.352 654.577
848 2  0.000 2136.406 2461.440
849 2  0.000 635.064 1655.925
850 2  652.702 1159.343 669.260
851 2  2886.376 1558.507 0.759
852 2  388.492 1081.199 333.701
853 2  496.266 950.856 789.357
854 2  2022.697 1764.172 1796.609
855 2  560.319 531.852 176.239
856 2  972.334 462.078 0.000
857 2  136.272 353.155 684.916
858 2  810.845 1091.102 794.205
859 2  4765.720 1029.189 5017.110
860 2  333.242 91.009 916.335
861 2  1698.817 37.281 135.010
862 2  1129.719 297.016 592.334
863 2  466.803 1469.840 567.685
864 2  212.739 192.709 769.719
865 2  1533.340 471.679 7.503
866 2  642.458 1355.003 844.545
867 2  2241.064 2965.716 2168.136
868 2  3268.516 918.439 1813.438
869 2  537.765 553.341 531.985
870 2  2070.199 2656.525 0.000
871 2  1749.231 2578.297 5365.627
872 2  2789.495 1615.105 2063.482
873 2  433.977 3421.900 1455.334
874 2  1299.591 125.241 1244.748
875 2  0.000 793.714 1251.826
876 2  168.929 191.900 961.346
877 2  1653.674 0.000 986.535
878 2  2771.019 686.161 20.584
879 2  895.697 229.009 1544.786
880 2  606.189 629.301 353.490
881 2  370.787 0.000 1718.622
882 2  667.958 1005.543 107.043
883 2  4110.806 487.934 4257.481
884 2  2541.093 1705.420 991.583
885 2  966.895 0.000 582.073
886 2  0.000 748.046 370.357
887 2  1449.436 4.737 214.853
888 2  530.171 3977.071 795.068
889 2  2953.119 525.396 5989.669
890 2  410.463 617.353 341.833
891 2  1334.026 192.586 852.427
892 2  170.490 1123.566 2278.875
893 2  332.689 1692.280 1045.451
894 2  598.504 387.160 672.592
895 2  142.213 0.057 787.757
896 2  612.294 588.305 1285.511
897 2  589.988 854.046 1041.949
898 2  943.879 0.000 4150.905
899 2  1812.127 543.818 1819.297
900 2  602.902 539.189 2005.373
901 2  1150.509 836.609 1369.368
902 2  489.398 250.797 1026.942
903 2  413.687 68.577 523.126
904 2  1439.242 354.936 444.580
905 2  433.729 626.523 0.109
906 2  207.681 1001.225 313.350
907 2  1458.951 810.619 196.226
908 2  976.817 422.645 567.311
909 2  525.716 0.000 397.402