LAMMPS data file, Author: Jerry Qin

1000 atoms
0 bonds
0 angles

2 atom types

-100.0 5900 xlo xhi
-100.0 5900 ylo yhi
-100.0 5900 zlo zhi

Masses

1 221851.699
2 422051.6999

Atoms

1 1  386.933 915.691 934.106
2 1  2852.711 738.554 1159.314
3 1  1658.052 3692.323 395.452
4 1  2538.960 2393.939 477.672
5 1  -98.022 5733.082 396.987
6 1  4803.475 852.578 2345.107
7 1  4379.618 2730.200 -98.686
8 1  54.594 365.722 1568.014
9 1  2858.017 -63.833 22.958
10 1  3074.793 704.758 431.266
11 1  3943.589 401.958 2920.449
12 1  473.656 1129.494 1545.565
13 1  806.867 3592.788 5405.453
14 1  731.647 566.638 669.077
15 1  4075.678 -100.000 790.550
16 1  1244.419 3524.946 1412.359
17 1  4013.749 -100.000 1963.894
18 1  1050.458 1840.706 3646.874
19 1  2379.240 168.343 3248.359
20 1  3713.636 3262.146 3418.091
21 1  2758.361 -99.268 2239.721
22 1  2303.847 2511.070 -22.168
23 1  2037.451 1737.187 686.287
24 1  2186.691 2293.699 2647.802
25 1  3069.489 1626.833 828.950
26 1  752.691 492.771 510.737
27 1  1874.305 1509.551 1028.012
28 1  3778.946 3365.928 2828.471
29 1  1111.367 3030.057 561.107
30 1  1708.150 1008.615 1359.243
31 1  2385.843 503.864 -100.000
32 1  3593.980 137.382 1157.986
33 1  468.548 943.179 3251.342
34 1  331.380 676.068 576.218
35 1  1392.291 2730.275 2284.976
36 1  842.738 1764.995 3258.652
37 1  244.965 448.532 596.076
38 1  1108.975 861.588 167.650
39 1  29.161 537.727 282.719
40 1  50.017 22.163 -82.036
41 1  261.764 1044.292 699.038
42 1  219.270 93.971 167.594
43 1  47.865 352.284 628.392
44 1  2218.789 1246.486 730.289
45 1  729.400 621.918 375.282
46 1  394.430 -95.407 713.838
47 1  647.203 -22.996 898.879
48 1  947.481 593.314 79.552
49 1  3312.831 894.782 665.376
50 1  875.047 328.485 27.978
51 1  1031.696 337.742 478.489
52 1  615.374 290.998 226.189
53 1  387.655 225.883 84.919
54 1  971.682 521.117 695.005
55 1  1041.595 2337.124 2935.928
56 1  99.732 20.187 388.656
57 1  108.916 957.812 151.966
58 1  -99.969 4409.488 -99.957
59 1  163.053 920.752 511.151
60 1  529.749 751.805 -75.840
61 1  834.557 27.550 714.088
62 1  927.683 446.969 442.203
63 1  433.797 154.856 763.312
64 1  147.997 882.705 255.326
65 1  385.299 196.564 375.160
66 1  -11.165 902.411 100.239
67 1  186.293 819.569 19.842
68 1  2226.037 725.953 1755.673
69 1  -1.891 612.189 724.363
70 1  577.373 206.202 130.990
71 1  -100.000 3641.298 800.307
72 1  977.253 186.823 544.762
73 1  402.995 356.530 -62.931
74 1  503.257 634.226 385.448
75 1  271.067 634.207 805.588
76 1  477.304 488.355 -28.254
77 1  792.975 1895.417 2527.763
78 1  -21.603 398.460 721.637
79 1  864.757 139.139 855.640
80 1  970.428 170.687 119.248
81 1  -35.093 838.719 498.857
82 1  787.401 21.636 -56.767
83 1  762.546 402.633 855.227
84 1  227.863 125.895 557.397
85 1  1026.665 975.896 682.916
86 1  736.112 949.874 5.347
87 1  460.499 1030.483 821.226
88 1  924.754 719.030 877.161
89 1  -100.000 164.244 890.564
90 1  595.518 154.747 715.229
91 1  -80.143 1024.131 851.045
92 1  498.852 812.077 839.589
93 1  596.603 818.774 947.561
94 1  328.431 586.218 477.063
95 1  717.201 627.986 772.879
96 1  92.483 739.482 691.418
97 1  265.913 69.742 692.472
98 1  598.494 414.270 462.820
99 1  342.953 218.215 610.078
100 1  219.268 850.730 622.844
101 1  1018.776 984.969 1008.696
102 1  262.457 22.486 815.677
103 1  377.183 972.662 25.304
104 1  37.776 590.060 56.077
105 1  393.907 740.559 896.820
106 1  864.001 733.410 701.750
107 1  479.781 975.018 329.299
108 1  380.276 561.312 98.352
109 1  1005.685 862.580 649.056
110 1  1260.176 1828.737 557.593
111 1  584.315 869.807 470.600
112 1  2682.573 1054.438 5014.132
113 1  1966.251 2007.855 -99.645
114 1  975.081 553.559 995.384
115 1  -56.618 407.300 484.224
116 1  -82.849 14.072 1013.024
117 1  3891.227 -99.706 1931.101
118 1  189.044 135.121 -23.269
119 1  870.510 642.669 179.122
120 1  716.029 221.524 176.207
121 1  2535.041 2809.308 1144.670
122 1  662.979 122.478 360.946
123 1  670.502 1040.273 203.982
124 1  57.154 -13.167 978.481
125 1  59.296 636.913 185.460
126 1  596.689 336.814 84.085
127 1  409.611 901.908 800.063
128 1  2379.437 1510.151 3263.858
129 1  194.177 135.283 321.338
130 1  907.015 420.973 872.324
131 1  2613.974 501.099 815.783
132 1  465.561 519.866 217.783
133 1  731.298 681.265 624.249
134 1  134.577 379.775 34.839
135 1  374.238 506.702 663.437
136 1  832.518 572.999 821.349
137 1  682.928 922.965 980.252
138 1  243.116 1010.370 76.710
139 1  2756.315 1362.488 2679.865
140 1  617.658 800.323 776.420
141 1  565.944 -98.695 289.284
142 1  833.088 694.207 520.901
143 1  749.232 642.272 1387.660
144 1  213.232 -23.750 223.156
145 1  678.387 929.676 287.954
146 1  590.748 720.786 419.310
147 1  24.091 404.758 304.275
148 1  -59.446 1028.664 218.391
149 1  346.349 479.317 908.632
150 1  32.030 1035.521 528.235
151 1  120.617 426.701 192.002
152 1  130.648 -99.363 1548.442
153 1  719.714 620.318 508.279
154 1  516.642 -35.047 786.553
155 1  704.679 1333.247 1295.351
156 1  218.421 216.395 219.031
157 1  536.456 -28.565 658.084
158 1  972.533 48.837 787.712
159 1  2199.113 1778.473 387.706
160 1  184.238 366.212 367.249
161 1  860.571 723.467 376.531
162 1  497.298 680.269 832.643
163 1  1407.324 3751.752 1096.745
164 1  772.922 -60.150 216.047
165 1  376.843 1026.826 629.529
166 1  576.182 264.680 994.720
167 1  80.802 719.534 363.058
168 1  1146.618 1394.873 598.041
169 1  4522.770 -65.074 2336.586
170 1  -4.927 98.739 659.045
171 1  778.275 432.063 232.473
172 1  437.461 343.892 600.563
173 1  1021.628 526.969 861.903
174 1  336.022 664.426 224.136
175 1  521.068 -39.670 398.491
176 1  40.814 383.279 1052.773
177 1  532.365 814.003 142.383
178 1  591.939 1078.236 779.530
179 1  517.307 691.217 586.857
180 1  264.674 327.343 164.190
181 1  618.900 488.328 359.637
182 1  3147.796 3235.075 69.491
183 1  916.699 12.027 537.544
184 1  424.486 954.654 528.893
185 1  804.257 939.453 632.944
186 1  943.914 480.771 571.901
187 1  95.218 371.379 919.154
188 1  827.989 991.320 870.744
189 1  646.459 751.297 -18.003
190 1  699.298 688.242 976.876
191 1  878.611 388.867 299.316
192 1  908.671 334.970 -100.000
193 1  62.184 152.794 873.189
194 1  456.726 570.547 581.690
195 1  390.867 747.175 722.415
196 1  1574.239 3269.133 2333.671
197 1  755.809 270.981 862.108
198 1  966.520 723.763 72.632
199 1  715.503 454.853 741.470
200 1  168.359 266.222 -22.121
201 1  475.736 958.893 1383.826
202 1  32.669 767.588 144.093
203 1  523.024 708.032 74.065
204 1  914.356 -99.998 377.088
205 1  1019.051 836.579 71.076
206 1  290.570 1820.847 611.937
207 1  518.433 253.216 653.481
208 1  184.951 514.251 1.506
209 1  -100.000 2122.771 907.040
210 1  803.205 427.679 78.412
211 1  994.636 5.532 354.658
212 1  727.812 660.262 72.797
213 1  999.659 111.103 650.721
214 1  227.378 430.412 878.993
215 1  -62.538 505.668 409.312
216 1  160.998 784.214 802.483
217 1  624.319 282.156 580.169
218 1  92.656 398.472 513.120
219 1  86.779 595.766 936.091
220 1  290.410 298.741 323.929
221 1  1111.716 1705.416 2922.471
222 1  439.678 174.683 488.600
223 1  507.930 94.573 566.228
224 1  188.977 -60.640 744.159
225 1  834.968 493.380 666.378
226 1  299.791 -38.005 624.158
227 1  287.892 423.268 -31.195
228 1  814.139 41.504 960.673
229 1  304.182 330.947 569.215
230 1  702.070 494.379 157.897
231 1  765.030 40.014 130.790
232 1  303.527 475.283 778.672
233 1  887.921 -45.679 839.479
234 1  651.790 915.878 609.468
235 1  1007.483 551.340 -32.653
236 1  775.545 222.770 560.004
237 1  423.337 264.831 956.902
238 1  3457.113 221.992 125.665
239 1  979.658 103.242 442.574
240 1  -84.331 827.172 180.360
241 1  351.650 761.116 134.907
242 1  462.126 162.333 193.652
243 1  2939.924 2817.209 893.958
244 1  -99.193 441.471 59.630
245 1  382.949 607.848 358.941
246 1  541.064 -65.031 52.577
247 1  3098.911 4112.414 1977.032
248 1  709.229 -74.019 69.710
249 1  815.735 312.295 429.177
250 1  702.308 1000.165 733.394
251 1  679.668 279.450 -1.663
252 1  706.861 148.255 644.585
253 1  1206.136 2787.409 2655.555
254 1  60.427 855.442 746.133
255 1  357.080 466.505 407.614
256 1  59.225 529.802 -66.914
257 1  343.341 73.290 556.617
258 1  62.429 498.782 748.336
259 1  583.149 886.816 19.722
260 1  569.015 834.934 348.519
261 1  151.155 527.037 508.214
262 1  649.371 69.990 974.988
263 1  770.449 841.205 543.752
264 1  553.772 980.347 535.961
265 1  921.884 467.693 120.177
266 1  29.295 715.240 809.694
267 1  554.106 910.220 237.833
268 1  820.487 88.784 579.364
269 1  411.923 551.615 782.425
270 1  878.892 -99.028 2678.376
271 1  623.518 707.782 870.546
272 1  129.375 529.431 638.383
273 1  347.605 1724.528 1000.525
274 1  718.994 282.648 677.456
275 1  997.821 964.108 230.530
276 1  97.519 706.632 38.537
277 1  534.218 3607.154 1442.072
278 1  30.496 438.052 49.011
279 1  233.060 740.322 940.422
280 1  -4.315 112.897 265.148
281 1  294.076 814.975 837.621
282 1  246.672 15.709 342.859
283 1  10.059 500.914 524.845
284 1  183.384 176.398 672.368
285 1  1045.473 660.701 645.059
286 1  288.367 886.135 70.590
287 1  261.755 994.734 558.341
288 1  1381.764 479.657 -100.000
289 1  921.173 198.730 995.476
290 1  1039.226 1908.544 2992.504
291 1  2490.327 1528.965 1802.641
292 1  607.307 373.090 831.376
293 1  899.574 409.397 740.665
294 1  673.398 357.160 958.189
295 1  625.940 57.498 609.369
296 1  438.771 912.432 653.636
297 1  984.339 313.475 1376.440
298 1  130.197 812.719 442.435
299 1  369.910 438.768 538.378
300 1  149.574 16.543 522.246
301 1  1344.605 2035.756 1627.932
302 1  1435.202 2.139 2580.975
303 1  -100.000 509.961 606.368
304 1  1347.347 262.064 -100.000
305 1  647.302 578.572 265.746
306 1  621.268 300.305 399.876
307 1  661.904 935.605 124.004
308 1  85.698 369.595 787.245
309 1  606.081 75.497 843.291
310 1  -98.661 704.996 1021.930
311 1  260.004 831.144 309.956
312 1  2480.694 1090.700 2011.016
313 1  186.651 542.292 758.321
314 1  331.605 1000.507 846.461
315 1  335.012 862.867 560.523
316 1  460.652 1674.965 -100.000
317 1  116.442 989.812 348.353
318 1  450.783 926.506 156.858
319 1  752.854 200.869 303.966
320 1  301.034 1000.366 290.840
321 1  424.825 -100.000 884.386
322 1  284.778 928.492 420.808
323 1  804.969 94.768 245.187
324 1  3242.556 -98.875 2800.780
325 1  651.653 758.466 114.867
326 1  979.695 236.691 0.069
327 1  32.957 613.563 589.779
328 1  341.764 -100.000 369.154
329 1  312.391 870.374 716.530
330 1  641.041 -100.000 180.150
331 1  413.584 335.560 349.518
332 1  194.886 305.342 643.692
333 1  925.202 608.699 294.364
334 1  264.323 574.544 636.192
335 1  239.898 434.538 91.255
336 1  887.018 1070.374 758.928
337 1  870.669 934.901 46.046
338 1  98.610 482.733 385.667
339 1  878.143 151.802 698.350
340 1  239.355 440.548 461.384
341 1  578.444 12.446 152.706
342 1  763.753 161.909 940.686
343 1  423.807 -91.945 558.298
344 1  245.148 789.657 497.363
345 1  3384.340 709.280 2347.520
346 1  28.744 945.314 432.573
347 1  42.245 -53.879 1280.956
348 1  385.918 824.342 245.602
349 1  270.055 16.971 474.286
350 1  4059.183 2121.296 611.762
351 1  479.489 290.712 163.423
352 1  487.113 735.487 221.341
353 1  522.027 733.683 714.461
354 1  -34.247 1027.171 725.796
355 1  278.566 1433.744 1240.421
356 1  897.344 1047.409 210.802
357 1  398.330 267.518 707.582
358 1  285.879 221.963 487.757
359 1  927.400 205.479 250.657
360 1  2592.149 979.516 3775.966
361 1  1853.475 1032.799 512.319
362 1  23.204 839.141 357.847
363 1  -1.466 259.348 821.355
364 1  413.642 721.806 316.319
365 1  1873.397 1427.855 402.101
366 1  209.812 626.734 444.561
367 1  -12.522 124.657 981.276
368 1  609.237 2942.282 1369.886
369 1  153.162 126.652 446.903
370 1  445.580 854.036 44.725
371 1  621.446 704.221 233.612
372 1  -99.999 717.642 3554.523
373 1  480.817 404.892 1004.719
374 1  923.658 959.862 535.613
375 1  5900.000 2513.968 3315.866
376 1  130.211 105.699 770.338
377 1  -100.000 1473.989 1863.981
378 1  138.734 42.570 655.722
379 1  506.400 294.309 476.063
380 1  1053.717 528.621 158.056
381 1  629.485 995.538 393.632
382 1  455.206 408.116 845.227
383 1  209.081 930.720 774.672
384 1  74.703 923.170 -1.343
385 1  671.105 519.200 31.942
386 1  1854.419 3147.206 2873.330
387 1  911.979 292.103 902.606
388 1  342.105 504.039 199.689
389 1  865.832 12.801 329.266
390 1  735.518 92.400 835.875
391 1  245.099 739.420 693.520
392 1  646.775 912.468 -98.111
393 1  738.380 1772.758 917.353
394 1  173.435 422.714 703.980
395 1  694.607 668.738 3203.132
396 1  38.652 1880.075 3627.547
397 1  282.720 904.253 201.611
398 1  287.059 994.422 978.072
399 1  734.229 2016.005 1785.767
400 1  593.069 799.684 582.402
401 1  179.668 -100.000 899.745
402 1  655.075 15.456 729.445
403 1  764.856 186.520 756.860
404 1  917.455 57.718 180.075
405 1  102.559 687.446 491.834
406 1  692.509 753.290 334.401
407 1  539.242 929.498 904.272
408 1  428.338 -22.754 306.004
409 1  545.347 -18.036 962.725
410 1  105.876 58.039 263.278
411 1  332.511 340.429 442.724
412 1  370.122 -67.578 997.061
413 1  941.000 1561.178 1376.827
414 1  456.355 728.435 467.694
415 1  708.196 748.438 472.964
416 1  -100.000 122.777 192.075
417 1  160.134 656.007 613.673
418 1  510.912 124.186 378.755
419 1  3157.132 1949.884 608.409
420 1  -23.165 708.224 457.464
421 1  152.795 463.647 1266.275
422 1  526.368 305.294 317.894
423 1  124.810 244.091 772.886
424 1  851.844 542.800 382.119
425 1  977.195 900.623 823.401
426 1  330.283 383.988 687.167
427 1  1907.910 2324.748 1757.005
428 1  832.229 325.889 167.347
429 1  678.139 -8.177 373.997
430 1  839.762 999.954 395.145
431 1  33.450 602.528 401.677
432 1  834.260 487.825 960.137
433 1  1022.562 583.775 537.590
434 1  187.299 900.477 964.631
435 1  244.221 582.969 103.102
436 1  239.876 257.779 836.105
437 1  661.553 624.764 -43.917
438 1  209.289 710.387 334.213
439 1  752.495 827.236 -41.811
440 1  955.753 613.921 787.547
441 1  705.568 343.109 495.864
442 1  541.366 181.591 892.397
443 1  595.108 923.024 733.295
444 1  664.219 47.842 246.584
445 1  2005.303 442.733 1858.516
446 1  -20.648 704.463 278.442
447 1  -11.178 514.053 156.404
448 1  406.822 53.079 447.213
449 1  703.485 361.765 157.890
450 1  57.689 142.078 -32.780
451 1  202.874 705.434 -44.896
452 1  497.928 270.077 27.349
453 1  1786.085 3671.549 1234.930
454 1  462.834 830.552 552.902
455 1  37.874 223.937 658.065
456 1  739.358 756.218 750.574
457 1  824.674 571.048 19.599
458 1  133.428 244.807 377.431
459 1  297.082 712.636 419.700
460 1  210.359 205.126 84.896
461 1  721.517 328.455 316.768
462 1  2236.753 3766.819 3035.160
463 1  552.939 460.461 102.088
464 1  2919.134 -99.954 2625.085
465 1  401.407 603.930 903.426
466 1  549.106 440.769 582.757
467 1  845.089 765.326 41.790
468 1  424.142 48.664 -90.410
469 1  -100.000 569.429 276.215
470 1  108.095 2712.677 3129.773
471 1  952.805 827.556 954.815
472 1  577.422 184.783 502.488
473 1  387.824 29.879 764.748
474 1  289.828 299.521 21.036
475 1  1098.259 -87.116 908.675
476 1  386.935 5122.361 162.083
477 1  1260.972 1610.929 4162.179
478 1  137.166 646.096 823.839
479 1  456.625 415.923 713.405
480 1  30.503 899.378 910.778
481 1  293.480 118.847 401.716
482 1  -71.524 927.898 1004.986
483 1  1502.059 368.225 845.389
484 1  1861.359 2185.256 279.852
485 1  -46.404 394.613 865.741
486 1  3267.595 2520.366 85.353
487 1  109.787 49.253 1403.262
488 1  3552.570 3644.679 2287.542
489 1  5899.949 2356.434 619.280
490 1  1643.458 2720.586 1947.978
491 1  2113.636 1191.535 193.887
492 1  1884.232 3526.040 -99.248
493 1  5899.372 -99.992 1445.144
494 1  -99.909 2246.866 -29.329
495 1  341.715 977.745 1421.869
496 1  4607.735 1474.330 107.351
497 1  5900.000 1429.061 1524.095
498 1  2469.780 3505.870 2276.316
499 1  -100.000 3579.297 1874.784
500 1  315.585 194.214 1006.266
501 2  -97.103 -96.748 1910.398
502 2  1713.517 2115.673 5900.000
503 2  86.221 5878.488 5884.491
504 2  1378.970 2675.673 5336.975
505 2  -99.990 2258.234 147.970
506 2  5852.192 46.408 5857.507
507 2  3162.240 2660.259 995.938
508 2  4119.546 1297.406 4338.725
509 2  -97.223 3116.055 3738.280
510 2  -99.078 -98.349 3206.859
511 2  2852.744 5359.559 4051.073
512 2  2900.413 5896.317 5898.569
513 2  5890.657 5890.581 5892.456
514 2  726.824 938.746 5899.999
515 2  5123.144 -98.910 -98.885
516 2  2824.458 4802.343 5899.999
517 2  -97.103 -96.748 1546.524
518 2  5899.435 3277.887 1988.071
519 2  -94.120 -90.499 -89.688
520 2  571.268 2609.567 840.180
521 2  4245.208 1470.650 5112.395
522 2  798.345 1841.725 603.213
523 2  5892.046 3008.164 307.179
524 2  5900.000 3952.000 -99.999
525 2  1963.518 2149.617 5900.000
526 2  3617.446 4581.455 4910.195
527 2  608.504 1370.305 3719.793
528 2  1128.680 5898.303 5899.449
529 2  -99.377 -94.531 90.774
530 2  -100.000 2955.052 2563.318
531 2  806.641 3462.221 3529.106
532 2  2684.609 -93.725 3175.986
533 2  3523.463 3747.485 5900.000
534 2  5440.166 1416.265 2140.638
535 2  5066.456 767.266 1937.032
536 2  3847.278 4504.313 4212.686
537 2  5897.172 4735.394 5899.637
538 2  1016.987 5899.953 4143.127
539 2  4111.178 921.204 1461.104
540 2  2.802 -79.004 5780.187
541 2  807.344 26.405 1254.373
542 2  2990.242 1921.363 1907.721
543 2  2170.364 2845.697 3504.872
544 2  -100.000 287.324 3294.947
545 2  2593.357 4996.280 2445.185
546 2  392.455 1406.696 -96.325
547 2  3674.273 701.773 1664.372
548 2  -99.996 3283.851 4262.466
549 2  1058.596 3317.549 -99.997
550 2  1346.362 -31.566 1870.566
551 2  2871.179 414.624 979.566
552 2  5402.156 1146.797 1426.657
553 2  1587.175 813.451 -71.499
554 2  4003.691 -69.478 5055.146
555 2  2858.081 -100.000 1867.610
556 2  2238.480 -45.994 738.460
557 2  2652.039 2063.655 3794.514
558 2  77.819 2576.816 -98.583
559 2  1645.839 1771.784 1098.144
560 2  -97.114 2543.624 4211.337
561 2  2193.013 -78.866 5836.437
562 2  -35.024 2092.794 2107.095
563 2  1182.308 559.609 682.570
564 2  1593.396 2782.012 1609.503
565 2  -100.000 1099.685 2559.034
566 2  1831.705 2293.085 -100.000
567 2  358.038 2209.953 235.751
568 2  1731.961 2198.829 834.638
569 2  1181.644 2938.503 2850.531
570 2  1883.469 -100.000 1299.610
571 2  -100.000 1832.351 2766.041
572 2  -99.530 -96.094 2273.879
573 2  207.090 -99.903 3680.804
574 2  2478.706 3351.431 -100.000
575 2  -100.000 3451.622 71.565
576 2  1201.796 2713.366 1479.892
577 2  2991.086 147.902 861.701
578 2  1379.218 -96.766 -95.645
579 2  665.123 126.661 1427.561
580 2  649.861 2554.162 -100.000
581 2  301.895 1789.034 -100.000
582 2  3620.632 1465.447 1915.759
583 2  -100.000 661.136 118.409
584 2  2599.131 2861.699 4372.441
585 2  -100.000 1561.897 114.270
586 2  3778.398 1174.277 1069.430
587 2  -100.000 1010.130 1719.904
588 2  1028.590 2547.425 -100.000
589 2  2353.143 2763.673 743.190
590 2  3533.600 -46.913 -9.883
591 2  -100.000 2766.539 -3.069
592 2  1699.732 1268.602 212.730
593 2  1651.683 -80.796 5882.605
594 2  1377.054 -100.000 1014.998
595 2  825.978 -99.758 4166.735
596 2  1117.929 754.116 843.367
597 2  2182.686 295.763 673.068
598 2  1877.449 -64.166 1514.022
599 2  908.377 255.413 3056.002
600 2  1813.914 1366.387 3810.531
601 2  639.112 67.960 1143.530
602 2  585.208 2536.133 480.730
603 2  3191.330 1661.323 3869.826
604 2  -59.928 47.148 2996.472
605 2  1034.342 1578.519 880.377
606 2  -65.435 5875.304 1471.014
607 2  824.868 174.365 80.800
608 2  1293.161 3842.546 715.269
609 2  1682.719 621.010 1142.508
610 2  7.756 1603.661 3069.890
611 2  2211.146 20.576 1304.257
612 2  2261.297 763.484 1368.616
613 2  3801.977 1524.491 832.215
614 2  -43.591 2833.611 176.184
615 2  1641.079 641.650 2248.317
616 2  42.239 1788.695 980.589
617 2  3422.455 586.612 337.065
618 2  2686.315 164.450 1159.777
619 2  576.432 1327.569 270.694
620 2  2104.216 192.142 -27.734
621 2  4448.763 983.747 1472.718
622 2  2279.546 5187.152 1829.757
623 2  5900.000 1138.602 1478.414
624 2  840.200 1503.494 417.303
625 2  2267.734 1705.013 962.996
626 2  1394.056 3553.266 494.508
627 2  -51.143 169.165 448.087
628 2  1554.911 1144.489 899.439
629 2  3460.124 2542.048 1051.337
630 2  3117.358 383.990 -100.000
631 2  245.490 2333.449 2281.829
632 2  75.804 -100.000 2373.913
633 2  1737.502 767.910 1822.710
634 2  837.907 1616.585 -100.000
635 2  226.920 2448.332 1994.408
636 2  2283.026 272.793 -100.000
637 2  -86.366 -89.846 3840.462
638 2  -99.848 3211.956 1309.131
639 2  749.950 158.544 1633.608
640 2  643.690 2877.366 394.543
641 2  1906.125 2922.422 1429.050
642 2  583.838 746.935 2922.284
643 2  669.946 4382.105 1759.396
644 2  -5.707 1360.187 133.012
645 2  4428.668 401.769 449.884
646 2  2132.160 1498.180 1692.264
647 2  3900.708 1362.594 889.464
648 2  1055.078 688.464 223.381
649 2  2548.745 1688.732 579.690
650 2  1581.129 1219.873 -100.000
651 2  2404.434 676.840 -100.000
652 2  3437.964 133.946 590.414
653 2  1799.892 892.377 947.506
654 2  -100.000 2427.295 2610.829
655 2  3507.179 772.375 -100.000
656 2  233.500 2024.117 4102.295
657 2  1629.222 -100.000 1382.983
658 2  2476.253 2479.580 595.992
659 2  1654.473 640.770 241.057
660 2  -100.000 2794.460 4026.184
661 2  3248.248 1903.480 4976.084
662 2  162.989 3339.467 840.039
663 2  -100.000 3037.038 296.926
664 2  74.726 4813.442 -99.878
665 2  -100.000 203.432 713.667
666 2  3621.834 384.991 -100.000
667 2  1565.557 -100.000 2316.528
668 2  192.473 735.997 170.356
669 2  1095.960 1510.653 -100.000
670 2  -56.667 757.009 1901.473
671 2  983.832 501.388 5423.504
672 2  -100.000 1370.831 -45.067
673 2  4590.350 2684.561 5025.521
674 2  4440.729 3462.815 -100.000
675 2  2198.333 3071.421 839.666
676 2  567.830 1540.129 -100.000
677 2  220.299 629.180 2136.920
678 2  47.900 3318.599 2616.648
679 2  1219.539 -100.000 2034.706
680 2  2419.504 -100.000 1759.540
681 2  -78.260 240.785 30.019
682 2  1151.036 -99.189 -99.607
683 2  69.078 -90.329 643.066
684 2  4436.672 2591.207 5136.922
685 2  3949.424 3240.938 5097.880
686 2  1985.090 1185.523 1300.751
687 2  -19.570 265.583 1658.913
688 2  3102.318 -91.923 113.894
689 2  2533.241 1491.147 848.905
690 2  371.116 1478.317 2870.022
691 2  122.778 -93.571 3480.821
692 2  452.136 79.049 53.792
693 2  2529.272 1223.081 2223.945
694 2  260.413 -87.543 2301.038
695 2  4534.052 1819.368 1046.345
696 2  403.681 1138.898 505.934
697 2  -100.000 1647.005 2446.457
698 2  1422.312 -46.433 1345.508
699 2  2806.204 2327.686 714.772
700 2  1917.102 252.097 -26.751
701 2  3210.392 603.018 451.738
702 2  2297.323 1569.033 1412.884
703 2  3733.158 1688.962 510.899
704 2  220.810 -99.980 2811.432
705 2  1397.311 2575.304 1731.469
706 2  1038.987 -67.464 481.720
707 2  5295.558 746.679 1795.812
708 2  774.271 -87.841 1112.788
709 2  1641.945 889.501 2711.228
710 2  2203.650 -100.000 1509.877
711 2  683.342 -98.408 2503.209
712 2  1285.245 200.024 2400.573
713 2  -100.000 1942.923 1749.295
714 2  204.265 2310.685 -14.352
715 2  2706.869 -100.000 627.671
716 2  3472.353 980.138 4108.924
717 2  -43.757 1340.782 2954.052
718 2  3369.922 3619.791 5691.532
719 2  1359.428 -100.000 1534.284
720 2  1577.262 266.482 1607.503
721 2  -100.000 3176.057 1126.287
722 2  1245.712 1657.482 494.590
723 2  2154.187 4041.889 868.644
724 2  -100.000 1156.022 2022.085
725 2  1264.271 1177.900 954.130
726 2  1120.004 1837.346 -70.338
727 2  1997.841 -65.518 2602.620
728 2  4516.664 1760.691 2536.140
729 2  3859.807 1611.635 664.090
730 2  2025.350 -79.732 891.869
731 2  1865.931 4444.378 5023.335
732 2  -100.000 359.253 228.520
733 2  365.635 1367.857 2199.486
734 2  37.803 -91.534 1688.582
735 2  -100.000 2298.540 394.931
736 2  714.052 2251.547 -100.000
737 2  1011.451 625.738 3492.214
738 2  -89.933 2227.078 799.713
739 2  1829.197 2071.475 -93.470
740 2  1760.439 2753.502 1491.757
741 2  4975.427 1599.380 -100.000
742 2  1324.678 1009.555 84.630
743 2  855.557 -98.056 634.748
744 2  2337.799 944.344 2582.644
745 2  175.729 2015.513 -100.000
746 2  1553.289 1738.085 -100.000
747 2  -100.000 488.742 5152.033
748 2  1104.263 -100.000 3242.086
749 2  3413.883 4711.163 -100.000
750 2  1210.463 857.647 10.604
751 2  368.496 -79.950 1510.315
752 2  236.367 -100.000 1779.289
753 2  1245.473 -94.594 653.196
754 2  543.966 1141.995 2154.373
755 2  497.001 1643.035 63.501
756 2  1079.850 1160.364 -100.000
757 2  85.130 -100.000 1968.935
758 2  3080.537 -86.779 -95.968
759 2  2576.691 -70.324 3033.327
760 2  3214.274 963.316 -100.000
761 2  2077.015 -60.906 1670.858
762 2  2253.869 1796.925 3736.626
763 2  983.826 920.308 -67.181
764 2  2074.267 2957.998 991.338
765 2  1786.198 3401.216 -99.991
766 2  -34.649 2979.782 -49.931
767 2  765.720 5900.000 4306.089
768 2  70.089 154.621 119.314
769 2  1528.494 301.244 1799.177
770 2  2098.537 -91.749 5528.957
771 2  1469.467 -100.000 806.103
772 2  2622.930 2801.582 1916.463
773 2  1838.569 1615.368 915.020
774 2  1573.075 1308.152 1898.809
775 2  -47.633 841.671 2929.976
776 2  89.301 1353.719 -100.000
777 2  -100.000 789.250 1591.406
778 2  800.774 2981.038 3400.813
779 2  1738.861 467.810 2453.573
780 2  2308.702 -100.000 4492.617
781 2  -99.250 81.326 3196.053
782 2  3341.190 2012.843 -47.525
783 2  1029.762 68.566 -44.090
784 2  3046.778 444.315 160.449
785 2  -99.168 1586.725 1405.698
786 2  771.910 432.420 -68.215
787 2  -100.000 980.389 3531.570
788 2  824.343 1037.278 -100.000
789 2  -100.000 2638.701 162.129
790 2  1303.345 259.012 620.744
791 2  230.461 5698.340 2323.121
792 2  -100.000 159.039 1503.131
793 2  64.952 -100.000 2969.321
794 2  4957.722 4934.975 5580.289
795 2  -50.733 182.750 1980.003
796 2  4904.958 5893.408 5432.176
797 2  204.907 556.161 274.556
798 2  3220.373 625.980 9.699
799 2  -96.374 1584.301 2244.840
800 2  3137.986 -100.000 4080.700
801 2  3111.570 1628.704 1452.642
802 2  3562.437 4754.662 2815.928
803 2  572.732 584.729 1171.185
804 2  950.047 1315.322 -99.996
805 2  1640.127 3292.342 4258.458
806 2  3271.416 732.951 287.208
807 2  1339.716 -100.000 2363.577
808 2  5125.450 2652.040 1249.145
809 2  777.415 2717.988 -100.000
810 2  -19.725 1158.001 -3.553
811 2  -100.000 2366.090 3203.876
812 2  -99.379 2021.534 2640.717
813 2  2520.246 399.130 327.542
814 2  -100.000 1968.716 929.767
815 2  43.809 1648.266 -100.000
816 2  604.240 -74.953 519.676
817 2  1483.405 1596.514 788.635
818 2  388.409 -77.420 -8.636
819 2  4030.964 3867.523 -100.000
820 2  1209.587 270.784 -41.105
821 2  5115.231 3101.693 4879.951
822 2  2638.512 -100.000 1898.057
823 2  -32.034 4148.430 65.747
824 2  -99.995 672.787 2970.143
825 2  4.332 2365.638 729.910
826 2  1597.331 1754.384 689.208
827 2  -100.000 293.967 2690.090
828 2  318.471 580.816 -69.440
829 2  1955.551 871.057 -75.653
830 2  397.938 399.079 94.234
831 2  702.343 2254.243 2859.826
832 2  190.818 83.015 954.947
833 2  1425.434 1949.391 67.043
834 2  2751.326 1632.728 557.786
835 2  -99.995 781.829 847.441
836 2  742.444 -100.000 2302.455
837 2  2304.354 1615.343 2397.656
838 2  220.292 -100.000 1381.738
839 2  3282.528 5085.164 624.891
840 2  735.511 2336.110 2005.346
841 2  2778.697 1926.846 877.707
842 2  735.101 -100.000 1826.056
843 2  2759.699 1317.774 2890.769
844 2  1118.835 205.149 453.196
845 2  79.770 543.760 1106.572
846 2  1760.227 391.795 -100.000
847 2  512.135 2321.817 2434.495
848 2  3868.713 483.407 1906.208
849 2  478.562 1950.881 -42.958
850 2  856.637 3478.946 627.621
851 2  -59.066 3560.989 -99.980
852 2  252.520 -57.915 1112.737
853 2  3012.427 -0.251 1108.339
854 2  2627.891 673.494 80.183
855 2  3240.587 2080.353 1301.413
856 2  2029.303 129.434 1271.502
857 2  3755.531 1408.867 1147.744
858 2  1338.496 1782.505 -10.622
859 2  883.282 -100.000 3680.548
860 2  899.114 319.846 595.506
861 2  -97.770 1238.534 1769.227
862 2  3654.872 784.285 3433.840
863 2  2410.512 1404.886 2301.590
864 2  3806.598 1328.206 1790.141
865 2  674.178 2488.000 188.766
866 2  670.478 -91.602 4318.415
867 2  404.790 2689.033 -98.598
868 2  1306.149 3496.691 828.687
869 2  491.742 2223.188 -100.000
870 2  800.523 2658.255 488.430
871 2  -79.317 4768.710 2073.445
872 2  163.998 1170.842 -98.273
873 2  915.864 1179.432 931.750
874 2  1217.245 1235.051 3738.500
875 2  156.919 1407.593 235.584
876 2  -100.000 436.687 1011.874
877 2  -61.872 1393.803 1081.862
878 2  -97.871 4123.360 -99.945
879 2  -92.851 1578.330 723.960
880 2  2688.491 5352.868 1034.974
881 2  4078.961 3123.119 2664.719
882 2  5900.000 205.271 3119.781
883 2  3698.299 358.258 2077.077
884 2  17.274 957.053 2097.009
885 2  1550.186 109.320 529.539
886 2  1546.718 1628.004 536.965
887 2  1106.380 3047.190 5650.413
888 2  -93.028 689.754 2490.243
889 2  556.329 2080.838 1125.055
890 2  2409.682 836.610 2152.932
891 2  43.545 2203.098 2645.359
892 2  1628.492 91.280 -100.000
893 2  127.050 2511.629 2361.967
894 2  1355.487 2752.407 135.322
895 2  -100.000 82.780 4162.749
896 2  140.675 2771.421 2023.106
897 2  4355.168 3761.480 5899.999
898 2  3808.250 3738.691 1058.625
899 2  1004.660 -99.863 2560.470
900 2  -87.957 1892.231 1106.181
901 2  1703.710 80.789 90.901
902 2  2321.281 2561.248 3928.806
903 2  -84.596 875.910 -93.031
904 2  2002.589 1327.257 1151.583
905 2  -100.000 2464.959 59.221
906 2  1390.441 849.981 -100.000
907 2  -52.855 659.941 2184.329