LAMMPS data file, Author: Jerry Qin

1000 atoms
0 bonds
0 angles

2 atom types

0.0 6000 xlo xhi
0.0 6000 ylo yhi
0.0 6000 zlo zhi

Masses

1 221851.699
2 422051.6999

Atoms

1 1  0.473 2969.575 3293.923
2 1  0.638 8.362 1.074
3 1  1794.824 49.661 0.348
4 1  2878.411 0.756 1115.315
5 1  2134.074 0.000 0.000
6 1  2618.438 837.793 2391.338
7 1  4874.620 1089.778 3873.271
8 1  0.340 2751.104 0.197
9 1  1530.381 5998.223 1333.040
10 1  5291.087 5999.415 5991.531
11 1  761.064 1213.214 3819.857
12 1  2698.078 1507.647 1.552
13 1  334.968 417.970 1498.381
14 1  3688.869 2029.147 1021.404
15 1  1414.968 2664.567 2649.304
16 1  2262.651 3378.235 1476.933
17 1  4535.757 2093.371 1317.799
18 1  1620.939 1574.447 1244.612
19 1  761.647 912.301 1661.695
20 1  1065.858 1058.244 2772.958
21 1  929.604 342.536 0.000
22 1  4715.915 2718.989 896.403
23 1  2516.133 2114.188 4200.915
24 1  2285.766 1663.850 1914.453
25 1  2399.707 0.000 662.458
26 1  3379.583 3374.568 1494.983
27 1  2943.147 3337.380 926.173
28 1  0.000 129.084 489.500
29 1  362.430 1033.515 0.000
30 1  1339.297 1626.721 2375.565
31 1  1885.182 927.509 2599.262
32 1  440.932 65.340 1072.937
33 1  0.832 373.302 23.312
34 1  1942.827 1481.092 5866.971
35 1  12.438 1092.228 393.398
36 1  717.907 563.156 156.119
37 1  3277.074 3137.394 1492.178
38 1  955.133 819.626 2817.889
39 1  0.002 980.805 2127.778
40 1  437.120 253.850 60.255
41 1  1292.156 1596.147 235.123
42 1  1343.477 77.760 2696.215
43 1  3470.877 1386.320 410.772
44 1  0.000 1105.207 1589.770
45 1  436.091 206.094 467.927
46 1  548.673 46.921 745.074
47 1  463.345 536.699 984.293
48 1  952.980 4641.816 4792.908
49 1  591.434 734.882 551.192
50 1  837.496 241.870 155.286
51 1  1357.793 861.137 636.824
52 1  286.262 563.059 9.822
53 1  220.329 756.813 327.632
54 1  986.751 505.537 901.345
55 1  865.358 877.034 494.889
56 1  3261.863 1583.957 1282.486
57 1  841.916 20.025 125.737
58 1  67.011 139.427 46.121
59 1  0.000 836.950 120.540
60 1  685.054 678.501 134.669
61 1  4090.010 296.845 3670.430
62 1  927.126 0.000 1576.046
63 1  38.390 1395.640 2959.605
64 1  264.424 892.065 428.868
65 1  409.070 497.817 425.158
66 1  82.342 1151.113 19.614
67 1  150.906 659.567 183.037
68 1  4796.319 5913.837 1526.544
69 1  16.319 424.900 799.667
70 1  534.895 381.557 108.269
71 1  0.000 1554.342 2260.500
72 1  1457.344 508.494 837.524
73 1  2275.363 1565.587 0.000
74 1  2268.352 3761.119 1448.252
75 1  600.534 717.614 302.572
76 1  707.844 675.674 336.389
77 1  721.280 914.131 824.495
78 1  0.000 769.120 905.209
79 1  913.799 222.588 843.939
80 1  175.380 1597.878 504.301
81 1  40.508 870.232 921.101
82 1  975.655 170.544 209.512
83 1  569.116 750.186 1162.937
84 1  334.016 172.295 549.725
85 1  961.221 1162.925 905.990
86 1  1112.006 1448.957 0.000
87 1  756.773 1283.804 866.384
88 1  1260.819 450.931 696.142
89 1  25.067 207.392 818.948
90 1  222.448 281.887 1121.171
91 1  409.755 625.456 624.595
92 1  557.201 720.057 787.469
93 1  719.215 727.127 1097.190
94 1  158.828 812.287 146.975
95 1  762.595 645.278 826.755
96 1  78.117 763.137 685.254
97 1  39.233 282.215 901.738
98 1  918.158 526.646 673.577
99 1  8.926 168.351 1185.908
100 1  182.115 1119.431 832.252
101 1  148.289 901.672 234.391
102 1  183.321 0.000 1015.820
103 1  536.519 1151.898 38.586
104 1  2197.422 1241.280 118.653
105 1  386.760 770.015 831.409
106 1  1055.494 800.447 664.011
107 1  608.675 1317.636 369.580
108 1  347.549 630.734 103.729
109 1  1355.132 963.496 559.631
110 1  1369.207 1358.139 772.450
111 1  763.024 945.127 415.839
112 1  3449.258 1128.589 70.234
113 1  0.000 595.908 591.585
114 1  1042.669 279.675 1059.003
115 1  19.118 1428.128 1294.483
116 1  103.803 22.299 837.567
117 1  1448.313 142.432 2712.971
118 1  549.019 87.747 3.500
119 1  798.913 1251.529 240.203
120 1  1291.288 960.272 698.345
121 1  566.730 404.166 687.840
122 1  601.374 349.290 295.893
123 1  704.322 991.957 83.723
124 1  0.000 1014.841 0.000
125 1  373.312 912.424 3.742
126 1  817.545 487.580 185.885
127 1  676.698 571.841 974.184
128 1  117.917 373.915 390.835
129 1  685.272 410.686 778.811
130 1  962.577 505.592 784.254
131 1  2252.513 2931.179 1291.006
132 1  126.720 767.832 4.615
133 1  352.936 640.258 845.818
134 1  0.000 1444.705 917.749
135 1  456.537 580.988 797.390
136 1  377.844 204.838 810.220
137 1  681.904 971.828 1035.626
138 1  384.958 1292.555 360.580
139 1  454.767 673.925 925.809
140 1  630.745 1148.857 1075.380
141 1  747.223 0.000 254.389
142 1  1090.571 1456.002 777.424
143 1  856.235 635.956 1459.919
144 1  3489.044 1537.029 1556.861
145 1  4070.279 5597.435 5956.843
146 1  595.898 915.566 750.991
147 1  14.012 400.386 322.344
148 1  0.000 1190.644 331.575
149 1  495.249 513.245 698.690
150 1  205.266 1361.586 459.778
151 1  231.172 307.802 385.446
152 1  194.821 0.000 1553.060
153 1  959.255 569.768 410.857
154 1  1074.459 1930.380 198.736
155 1  117.446 126.348 440.986
156 1  411.105 148.452 297.903
157 1  4955.610 5999.589 5999.082
158 1  951.685 187.263 649.648
159 1  2755.984 942.831 892.101
160 1  442.752 288.778 375.497
161 1  798.217 742.981 543.181
162 1  807.120 891.069 1225.843
163 1  1651.484 3381.996 2484.052
164 1  914.421 0.000 283.662
165 1  980.015 1470.312 17.260
166 1  618.716 465.660 972.354
167 1  99.823 1247.756 273.356
168 1  1205.435 1523.663 724.954
169 1  659.920 7.629 2089.190
170 1  1647.855 1984.850 1359.448
171 1  423.389 354.741 134.840
172 1  151.016 726.292 603.244
173 1  1052.279 634.222 847.919
174 1  608.993 3051.833 1526.924
175 1  2415.048 985.363 3718.276
176 1  5.535 566.699 1435.125
177 1  815.859 1231.342 56.799
178 1  687.677 1390.423 918.791
179 1  876.729 659.884 683.263
180 1  420.963 576.296 279.197
181 1  3106.464 1618.901 2686.425
182 1  1011.165 0.000 2748.231
183 1  1018.316 0.000 514.024
184 1  204.126 1150.303 689.853
185 1  874.969 1147.631 632.030
186 1  933.964 437.302 588.384
187 1  115.878 829.063 311.139
188 1  690.507 1270.906 967.164
189 1  1943.245 121.785 960.251
190 1  789.122 710.203 994.535
191 1  931.001 284.436 580.834
192 1  511.167 220.689 557.454
193 1  93.806 105.191 1090.312
194 1  322.395 945.306 1060.333
195 1  171.639 953.036 832.636
196 1  0.000 581.441 916.885
197 1  819.559 127.983 1329.720
198 1  487.725 759.524 436.366
199 1  1115.408 712.291 1015.338
200 1  378.103 391.430 370.363
201 1  541.919 1327.369 1479.018
202 1  1201.015 1797.355 4790.702
203 1  143.796 461.359 222.687
204 1  3600.303 0.000 1058.482
205 1  1059.381 889.099 165.392
206 1  3139.369 2942.185 0.000
207 1  757.731 536.278 1205.699
208 1  46.274 940.116 218.741
209 1  2221.095 1737.364 1810.404
210 1  1018.635 821.328 351.628
211 1  2766.198 0.000 830.293
212 1  1693.003 2809.839 231.845
213 1  1673.845 3392.528 1570.047
214 1  427.550 600.053 1120.768
215 1  246.179 844.104 793.109
216 1  0.016 1318.485 1241.220
217 1  267.063 407.556 415.472
218 1  160.402 577.404 78.446
219 1  176.711 772.811 964.623
220 1  493.437 369.982 468.901
221 1  372.516 911.923 788.813
222 1  806.739 72.370 316.359
223 1  571.235 984.021 154.829
224 1  96.780 344.304 765.627
225 1  788.222 289.508 515.725
226 1  816.636 59.839 809.347
227 1  82.182 533.974 149.463
228 1  127.337 650.282 937.380
229 1  293.616 266.490 736.978
230 1  1038.743 606.670 192.582
231 1  3139.871 0.000 2736.359
232 1  385.040 273.534 946.206
233 1  829.927 0.000 900.883
234 1  621.374 546.256 701.568
235 1  1283.479 848.734 0.000
236 1  958.825 0.000 124.595
237 1  435.963 426.296 1001.829
238 1  915.132 449.016 24.289
239 1  741.441 506.418 507.657
240 1  784.669 1689.559 918.287
241 1  178.561 1250.808 420.410
242 1  487.160 482.549 119.935
243 1  807.599 584.743 298.523
244 1  5170.187 3844.607 3485.547
245 1  0.000 948.556 1211.060
246 1  533.657 0.000 97.008
247 1  2277.762 379.498 705.863
248 1  1259.772 1069.334 656.521
249 1  1146.487 464.770 747.577
250 1  761.331 1467.119 884.640
251 1  2957.240 348.996 425.407
252 1  4800.253 5171.581 1021.538
253 1  1566.381 1019.204 734.611
254 1  371.254 924.854 909.329
255 1  2497.410 1147.514 3614.163
256 1  173.582 1551.960 1294.589
257 1  13.016 652.916 1107.281
258 1  147.702 775.330 769.629
259 1  4187.870 1347.292 2700.381
260 1  614.652 783.070 438.866
261 1  1388.068 133.056 488.034
262 1  589.235 157.236 1099.494
263 1  666.102 1177.936 832.541
264 1  702.062 1208.881 180.009
265 1  1238.911 270.274 411.542
266 1  0.000 887.591 1025.337
267 1  810.738 804.744 321.049
268 1  432.148 285.219 724.423
269 1  418.544 307.663 1303.216
270 1  30.750 2127.084 147.556
271 1  794.942 844.101 736.607
272 1  255.804 598.643 300.745
273 1  1691.990 0.000 1279.893
274 1  677.388 478.643 879.737
275 1  859.490 960.691 305.186
276 1  429.130 570.413 151.758
277 1  1415.274 2024.189 669.525
278 1  21.072 445.790 221.466
279 1  285.505 767.890 916.223
280 1  0.000 406.320 677.650
281 1  298.486 633.466 1173.009
282 1  224.725 218.739 121.844
283 1  0.000 232.755 641.855
284 1  293.311 77.728 753.897
285 1  1002.726 909.867 644.063
286 1  128.554 1443.882 129.132
287 1  673.265 1043.027 796.126
288 1  1017.681 653.561 0.000
289 1  1097.241 506.666 1107.385
290 1  1301.533 524.738 808.603
291 1  649.390 278.490 525.281
292 1  1495.762 188.712 915.723
293 1  792.586 569.907 672.789
294 1  697.055 366.349 1288.579
295 1  850.803 240.218 280.942
296 1  183.217 973.604 966.789
297 1  549.523 416.404 1060.182
298 1  2391.536 0.000 1847.671
299 1  390.952 100.624 467.596
300 1  3.210 388.262 477.772
301 1  1574.871 424.175 833.463
302 1  2602.417 811.198 920.401
303 1  365.018 484.488 176.387
304 1  426.979 1381.418 683.322
305 1  1131.246 289.241 516.093
306 1  247.152 497.660 491.935
307 1  951.125 1191.132 118.959
308 1  110.785 397.312 1233.342
309 1  531.057 213.704 726.748
310 1  0.000 777.045 1051.579
311 1  297.736 1207.144 466.671
312 1  375.680 117.514 2384.522
313 1  464.530 1062.610 517.204
314 1  18.052 1326.939 874.584
315 1  561.897 1073.573 590.854
316 1  996.205 906.442 451.332
317 1  176.754 867.671 511.136
318 1  638.149 1189.079 4.567
319 1  699.915 472.607 0.000
320 1  112.911 1434.435 321.146
321 1  301.578 386.146 837.132
322 1  406.290 1178.005 401.859
323 1  343.930 247.637 207.512
324 1  267.614 0.000 304.257
325 1  276.549 1315.925 557.331
326 1  1773.399 486.945 463.913
327 1  1255.553 4266.367 308.788
328 1  451.471 776.904 267.182
329 1  828.722 264.592 911.214
330 1  605.829 0.270 248.442
331 1  434.993 284.140 257.371
332 1  434.056 45.252 638.081
333 1  882.034 744.361 421.481
334 1  215.153 917.744 700.587
335 1  1507.061 3234.054 4265.303
336 1  731.621 835.814 461.987
337 1  937.353 954.572 212.295
338 1  157.412 473.450 813.903
339 1  924.079 866.817 0.000
340 1  116.887 624.423 554.138
341 1  230.136 91.839 162.337
342 1  1004.656 431.982 1174.003
343 1  519.373 671.653 4750.298
344 1  564.067 900.439 634.405
345 1  591.639 1404.138 0.000
346 1  126.241 851.679 854.293
347 1  643.095 627.625 868.889
348 1  561.681 816.842 334.371
349 1  224.406 0.000 462.316
350 1  4126.038 2626.211 1316.416
351 1  755.923 295.729 276.839
352 1  356.373 381.565 739.396
353 1  115.716 587.401 817.579
354 1  14.885 995.037 749.180
355 1  638.935 140.147 852.557
356 1  1042.796 1019.061 199.332
357 1  197.907 1021.643 1103.063
358 1  2411.135 433.290 1028.087
359 1  939.105 667.704 574.692
360 1  1235.893 1447.835 3991.124
361 1  3284.781 3373.343 151.095
362 1  545.748 137.278 454.863
363 1  1700.916 1385.351 1013.464
364 1  398.430 440.368 70.450
365 1  1928.394 1497.382 425.309
366 1  187.815 570.443 412.177
367 1  141.373 283.025 945.879
368 1  326.230 3.863 1847.627
369 1  965.739 856.770 2336.706
370 1  1689.129 1205.964 491.069
371 1  672.018 1144.367 415.943
372 1  496.999 1147.538 317.013
373 1  814.964 509.147 1445.702
374 1  1285.701 1041.549 449.833
375 1  794.573 0.000 692.607
376 1  0.000 177.644 1303.022
377 1  1357.427 1313.980 1497.375
378 1  1189.985 2642.048 2115.256
379 1  1692.009 1425.560 187.610
380 1  1327.054 657.824 454.529
381 1  480.518 1658.590 555.678
382 1  799.876 375.512 996.173
383 1  102.307 1126.657 627.580
384 1  3433.080 424.941 3283.354
385 1  948.589 248.513 1444.325
386 1  538.094 1517.816 2550.829
387 1  784.868 409.419 1225.449
388 1  348.530 651.906 535.790
389 1  1383.854 92.581 357.103
390 1  643.934 116.620 614.279
391 1  53.376 489.419 560.075
392 1  227.049 1153.707 400.946
393 1  307.596 553.784 937.383
394 1  251.815 0.000 1410.389
395 1  1973.719 117.514 2128.240
396 1  490.030 1103.833 1394.697
397 1  339.994 1248.901 269.093
398 1  315.158 1050.865 990.021
399 1  0.000 1061.571 917.736
400 1  583.512 791.247 691.929
401 1  248.462 191.401 845.682
402 1  1102.972 224.628 1132.786
403 1  1040.949 267.187 638.292
404 1  2386.081 506.940 832.121
405 1  262.010 915.472 601.082
406 1  872.892 1066.369 508.048
407 1  429.597 1025.212 946.059
408 1  3326.243 2267.088 934.078
409 1  3328.944 467.433 1311.532
410 1  254.773 155.381 0.001
411 1  55.013 281.030 482.554
412 1  483.200 12.407 874.672
413 1  989.153 1430.133 855.078
414 1  352.618 665.433 213.759
415 1  975.099 1100.080 583.198
416 1  0.000 171.338 129.832
417 1  183.922 672.263 800.920
418 1  229.918 175.489 967.201
419 1  801.879 690.036 86.733
420 1  15.513 572.839 247.168
421 1  2161.024 0.000 2433.513
422 1  268.340 318.089 619.127
423 1  1114.411 1561.426 1104.323
424 1  1.901 2.098 2730.311
425 1  930.306 1194.583 729.638
426 1  0.000 352.431 581.738
427 1  647.371 45.975 137.288
428 1  803.457 405.087 299.047
429 1  562.931 1478.169 207.455
430 1  1017.193 1116.015 468.475
431 1  323.907 809.409 279.331
432 1  898.594 461.719 1159.330
433 1  1528.425 1029.982 500.129
434 1  269.625 883.821 967.235
435 1  1114.644 2760.848 801.154
436 1  685.075 468.154 1107.273
437 1  719.732 652.712 450.835
438 1  0.000 1163.811 652.324
439 1  1214.486 177.418 0.000
440 1  843.780 1147.020 858.836
441 1  1452.146 1383.380 1392.349
442 1  758.263 166.913 983.159
443 1  2607.038 1657.463 1885.831
444 1  2270.306 1559.272 1364.615
445 1  0.000 691.913 752.707
446 1  71.130 723.833 223.901
447 1  1927.821 730.836 1250.123
448 1  655.189 0.000 529.144
449 1  723.410 634.639 0.000
450 1  3576.644 2555.723 1172.769
451 1  65.414 960.561 545.436
452 1  656.934 349.076 81.809
453 1  488.203 726.458 0.000
454 1  588.944 610.727 1099.410
455 1  175.417 43.049 722.441
456 1  891.879 232.541 492.080
457 1  952.138 565.020 104.555
458 1  1033.750 79.784 664.550
459 1  329.634 994.688 467.777
460 1  374.524 480.002 617.504
461 1  1066.143 568.382 596.385
462 1  2321.439 176.274 781.165
463 1  0.000 1503.831 3161.418
464 1  0.038 420.038 1142.759
465 1  403.245 512.468 881.148
466 1  553.966 425.704 567.372
467 1  973.856 1024.537 316.746
468 1  2668.418 3115.700 434.566
469 1  421.095 1327.711 1303.072
470 1  268.227 2867.429 2878.985
471 1  923.288 807.943 1084.404
472 1  873.636 448.354 893.909
473 1  1026.451 355.506 532.196
474 1  419.427 346.257 1.530
475 1  1394.372 237.652 1153.457
476 1  449.048 2271.188 3103.101
477 1  334.298 1415.117 1504.543
478 1  477.580 824.257 768.358
479 1  791.501 155.519 724.051
480 1  474.949 1225.038 1102.741
481 1  1180.918 1029.450 384.196
482 1  1545.723 2024.208 540.857
483 1  790.784 799.864 0.000
484 1  942.095 1840.689 909.131
485 1  3210.220 2335.372 614.588
486 1  577.859 2347.078 1090.251
487 1  3652.353 2291.297 20.931
488 1  293.988 296.665 295.781
489 1  801.863 940.928 2050.136
490 1  0.000 1114.758 1351.830
491 1  243.430 878.462 0.000
492 1  45.940 17.231 1015.976
493 1  1181.914 875.386 38.836
494 1  0.000 1524.826 376.395
495 1  4012.274 2457.602 151.123
496 1  1.667 5999.997 1.107
497 1  2404.042 4984.446 819.798
498 1  1213.893 245.725 2173.829
499 1  0.092 3008.921 775.542
500 1  336.220 177.663 996.274
501 2  2346.445 146.598 4078.899
502 2  4639.202 2579.466 2922.915
503 2  1751.956 4475.942 2025.512
504 2  2.155 3898.384 3636.445
505 2  1916.318 947.855 31.145
506 2  674.225 10.139 2.676
507 2  1683.806 1187.279 3109.271
508 2  1483.104 4577.374 3217.203
509 2  1181.442 2543.902 2618.682
510 2  5.867 3902.287 5963.966
511 2  2068.770 5230.776 2478.643
512 2  4.196 5108.142 5.383
513 2  5997.754 4518.046 14.667
514 2  5146.864 5999.730 5996.467
515 2  4.593 5944.580 2713.863
516 2  2772.457 312.083 5782.773
517 2  3144.435 2751.627 1419.757
518 2  4938.976 5999.650 200.744
519 2  2556.927 3.640 5994.609
520 2  5995.719 3421.605 5995.924
521 2  5581.498 4395.852 275.547
522 2  1876.864 3569.643 3392.083
523 2  3559.846 4573.902 1413.784
524 2  4707.449 5998.070 3569.579
525 2  3.731 2742.380 4158.201
526 2  1.622 1842.063 1384.607
527 2  5211.480 3230.302 1174.348
528 2  4.848 0.238 5997.219
529 2  2852.945 5996.783 3109.561
530 2  5999.539 3745.007 5996.314
531 2  4704.848 1.189 0.475
532 2  2.760 3.047 2875.349
533 2  1270.919 3154.698 166.046
534 2  5864.311 5925.878 5921.302
535 2  686.131 0.000 2469.565
536 2  1476.476 3223.284 0.000
537 2  2653.637 0.000 3999.050
538 2  6000.000 6000.000 3041.234
539 2  596.533 933.760 2913.399
540 2  5999.999 3702.585 4679.511
541 2  4488.331 3359.720 1009.667
542 2  3355.627 4414.429 4343.506
543 2  2818.481 1110.040 1051.072
544 2  3280.952 351.709 328.461
545 2  120.932 141.862 3337.756
546 2  1595.623 6000.000 3373.816
547 2  1979.017 539.703 84.945
548 2  0.000 2857.553 148.896
549 2  1307.941 2435.250 0.000
550 2  166.848 1939.654 1191.033
551 2  3453.696 8.830 16.939
552 2  2751.528 0.000 1383.974
553 2  1050.146 459.641 159.373
554 2  5404.309 576.091 5243.850
555 2  1405.683 0.000 5173.636
556 2  1440.724 3393.658 3456.402
557 2  1816.840 1428.063 326.142
558 2  1670.714 1715.915 102.588
559 2  3924.199 7.883 5994.460
560 2  1535.203 1497.406 446.051
561 2  6000.000 5371.823 2662.582
562 2  1376.963 69.415 5703.616
563 2  2778.425 3328.024 0.000
564 2  1817.016 1292.130 1326.706
565 2  219.533 445.774 652.408
566 2  1931.210 798.530 663.004
567 2  2133.091 4342.443 3701.911
568 2  2672.409 366.293 4662.410
569 2  1919.270 5500.312 3395.274
570 2  5709.529 1901.330 692.021
571 2  176.001 977.569 1348.783
572 2  889.642 197.257 1173.105
573 2  1059.290 339.730 2193.256
574 2  1080.556 1646.931 944.961
575 2  2474.133 3387.338 3725.253
576 2  1434.551 4453.022 2738.253
577 2  1009.918 3633.495 1848.625
578 2  0.000 844.078 587.307
579 2  745.879 0.320 1268.543
580 2  1362.758 455.631 563.404
581 2  2657.740 1734.263 4238.941
582 2  1516.007 707.553 357.673
583 2  548.295 1331.470 1018.552
584 2  5136.645 18.776 13.384
585 2  1387.157 944.023 0.000
586 2  369.499 802.983 133.239
587 2  208.656 809.851 1244.730
588 2  280.409 332.348 1248.673
589 2  1240.240 1148.509 2014.561
590 2  2774.007 985.606 732.238
591 2  268.125 1169.409 166.658
592 2  1024.915 1482.269 1190.414
593 2  296.502 1269.885 701.527
594 2  1270.464 152.611 1195.644
595 2  879.103 175.711 1567.263
596 2  1170.427 896.340 807.178
597 2  1557.921 488.052 1848.247
598 2  1574.724 529.624 156.847
599 2  324.416 113.725 1472.368
600 2  3228.780 2530.896 2017.305
601 2  483.704 362.993 855.624
602 2  409.564 109.680 0.052
603 2  2088.760 0.000 3249.692
604 2  783.510 2336.261 1506.905
605 2  1788.524 852.780 430.202
606 2  2172.140 1990.880 1931.031
607 2  2244.153 1458.311 3893.948
608 2  1394.385 530.459 1022.462
609 2  2663.528 0.000 1610.757
610 2  1913.426 4034.973 1828.875
611 2  1287.676 402.878 196.472
612 2  1179.195 651.274 3.216
613 2  3929.616 3848.974 5950.591
614 2  10.632 1345.691 193.826
615 2  986.054 592.611 1245.769
616 2  719.791 3872.409 207.013
617 2  1520.722 525.525 659.864
618 2  1352.619 2889.747 1892.034
619 2  634.446 1861.912 867.667
620 2  3516.802 3736.836 1444.018
621 2  1131.914 5894.117 898.145
622 2  1414.979 5316.549 3599.021
623 2  4167.666 1525.471 4721.537
624 2  210.788 775.813 1619.744
625 2  1486.785 804.895 680.588
626 2  623.884 283.360 968.896
627 2  189.434 86.547 5999.636
628 2  1592.509 379.908 979.294
629 2  82.207 2084.496 1387.672
630 2  2083.217 547.273 553.742
631 2  314.737 1409.886 1236.180
632 2  1296.938 673.463 1110.155
633 2  140.903 321.194 249.531
634 2  96.988 436.299 1960.068
635 2  873.560 4349.807 602.555
636 2  3817.397 3056.826 0.000
637 2  1209.167 623.292 190.175
638 2  1418.624 251.720 406.027
639 2  365.708 0.000 170.627
640 2  5266.990 2422.055 2036.116
641 2  4531.362 3052.722 5830.981
642 2  270.113 288.322 1459.524
643 2  0.000 856.723 765.883
644 2  1289.742 1280.208 678.868
645 2  827.549 70.506 2406.661
646 2  1201.549 562.549 522.660
647 2  38.408 5956.750 5974.446
648 2  10.011 1566.439 242.905
649 2  894.622 1279.388 835.168
650 2  4112.700 2607.378 1.570
651 2  0.000 2629.283 3368.534
652 2  1556.075 418.702 457.904
653 2  906.197 1560.530 1663.273
654 2  157.531 1426.930 729.780
655 2  193.600 1863.471 8.996
656 2  2707.717 379.614 753.764
657 2  897.475 132.614 963.631
658 2  1166.044 1339.623 302.618
659 2  1616.413 240.199 307.894
660 2  480.405 940.651 423.024
661 2  1157.888 4.590 503.180
662 2  540.412 1418.986 840.152
663 2  1419.617 1892.065 734.877
664 2  815.457 1394.639 354.136
665 2  1052.092 1449.226 986.036
666 2  1178.050 223.745 269.733
667 2  995.909 0.000 807.082
668 2  2279.620 1122.550 1111.467
669 2  230.920 1057.880 293.021
670 2  1196.328 78.912 124.478
671 2  915.939 348.445 220.114
672 2  5997.039 4220.921 4295.541
673 2  527.523 158.107 202.942
674 2  693.796 193.957 182.294
675 2  12.316 600.822 1626.093
676 2  1309.267 1185.886 845.831
677 2  3324.998 0.000 5293.862
678 2  553.737 340.973 1207.899
679 2  244.267 413.675 971.043
680 2  0.000 3221.367 268.580
681 2  646.252 961.532 515.509
682 2  0.000 813.184 1570.728
683 2  1238.770 282.744 703.385
684 2  374.155 1570.578 1324.357
685 2  528.295 0.000 2160.750
686 2  792.708 5052.574 2612.088
687 2  0.000 1501.697 1936.856
688 2  373.010 1613.151 769.386
689 2  2043.321 327.284 70.988
690 2  22.443 648.476 3187.594
691 2  4107.196 2139.449 1848.654
692 2  239.553 2077.533 643.913
693 2  1212.725 869.572 1396.166
694 2  829.939 492.876 1611.629
695 2  1688.946 516.248 815.295
696 2  1755.633 297.373 67.627
697 2  6.196 2329.060 11.916
698 2  2381.060 1725.772 4361.230
699 2  1379.470 324.488 0.000
700 2  1250.701 217.635 542.962
701 2  3182.390 2009.925 2017.120
702 2  1408.945 1025.681 832.706
703 2  1451.980 660.791 559.929
704 2  437.838 302.071 1084.235
705 2  2113.572 29.071 2287.352
706 2  1211.279 2.297 718.122
707 2  276.330 742.396 2.150
708 2  1294.843 195.853 1646.040
709 2  782.710 281.214 1451.551
710 2  548.660 618.475 2857.998
711 2  4694.762 1491.213 0.000
712 2  353.836 471.792 1184.909
713 2  753.707 4223.330 1163.522
714 2  151.170 1052.366 477.609
715 2  800.466 2.814 1434.440
716 2  0.000 4328.450 461.518
717 2  270.757 1284.134 1518.064
718 2  3090.708 2895.716 1051.827
719 2  1161.449 502.866 1499.640
720 2  649.799 1574.846 807.119
721 2  1594.421 929.870 2651.744
722 2  1572.514 636.617 2236.475
723 2  1425.394 1074.544 1375.081
724 2  878.254 0.000 4279.256
725 2  1042.905 2126.945 549.346
726 2  1046.164 1035.685 793.859
727 2  1067.761 459.070 429.235
728 2  676.126 27.695 1601.075
729 2  4349.436 282.832 713.867
730 2  536.903 514.562 1219.486
731 2  688.002 856.281 195.098
732 2  3838.891 448.756 5714.825
733 2  0.000 1983.588 1762.861
734 2  0.000 365.341 1419.609
735 2  353.203 1127.498 607.072
736 2  0.839 2959.397 0.000
737 2  1559.974 1037.664 1048.041
738 2  722.760 633.462 1380.829
739 2  225.314 974.720 4141.604
740 2  50.598 6.235 1522.643
741 2  2838.537 5334.255 2548.253
742 2  1185.690 4114.964 5704.550
743 2  3230.318 2483.683 2410.751
744 2  3718.962 3283.058 3145.915
745 2  440.773 1247.962 0.000
746 2  1074.471 171.037 434.661
747 2  548.846 1231.497 651.333
748 2  678.283 828.843 1377.746
749 2  812.439 1072.632 150.528
750 2  1178.129 0.000 1322.866
751 2  2655.243 865.991 1122.165
752 2  1295.245 0.000 2172.564
753 2  540.513 875.731 1686.900
754 2  2334.294 102.649 312.236
755 2  914.207 123.875 1725.316
756 2  2400.375 2712.044 2727.257
757 2  819.236 1203.170 1296.482
758 2  2305.931 785.705 428.863
759 2  1289.527 2.305 1050.887
760 2  1428.534 750.623 12.846
761 2  917.295 713.297 833.712
762 2  2964.009 537.126 178.640
763 2  608.447 770.278 938.163
764 2  483.325 581.380 0.000
765 2  1704.743 1810.326 1751.076
766 2  941.392 1309.427 241.597
767 2  1091.037 1166.703 343.145
768 2  0.000 3.600 745.506
769 2  1218.276 1282.784 1726.059
770 2  1846.343 5780.761 3402.019
771 2  1391.130 455.184 1275.056
772 2  5.761 1810.233 553.432
773 2  1115.079 332.900 0.000
774 2  1084.395 2116.584 1271.912
775 2  0.000 254.013 325.098
776 2  1677.027 5993.710 2167.605
777 2  73.098 148.746 1421.819
778 2  533.545 1010.261 0.000
779 2  462.840 823.816 1490.337
780 2  331.066 1184.693 1215.059
781 2  172.237 542.078 1487.072
782 2  67.984 58.919 2098.459
783 2  2430.752 422.689 2037.917
784 2  5994.314 3778.560 5232.478
785 2  3504.183 1879.196 0.003
786 2  1551.679 71.799 208.625
787 2  1785.855 81.699 1363.239
788 2  521.384 1159.804 177.974
789 2  328.918 1437.539 504.654
790 2  5999.199 5994.535 3.175
791 2  70.643 38.801 1221.125
792 2  45.980 815.200 1297.641
793 2  3751.684 2507.880 1040.979
794 2  1180.025 1005.774 111.674
795 2  2134.529 5392.292 2161.595
796 2  664.362 487.014 345.835
797 2  2980.897 5015.561 3999.494
798 2  1346.249 240.112 232.605
799 2  666.655 903.738 1202.310
800 2  1069.167 1599.720 2150.035
801 2  305.244 1353.565 862.230
802 2  882.515 1391.897 95.910
803 2  1765.074 1541.650 2186.528
804 2  1946.829 3159.836 2193.034
805 2  953.587 734.951 186.300
806 2  2400.042 52.261 1586.142
807 2  1389.512 407.306 739.713
808 2  3080.574 1002.012 2861.567
809 2  1418.561 642.012 855.186
810 2  3290.680 2540.744 1209.906
811 2  161.640 1261.094 822.956
812 2  319.213 986.193 1211.966
813 2  195.536 253.507 512.508
814 2  3884.157 4905.120 980.354
815 2  1328.695 43.460 6000.000
816 2  2208.099 0.000 1380.019
817 2  116.383 2828.941 25.920
818 2  146.598 270.749 15.398
819 2  1406.696 1153.349 651.355
820 2  759.659 249.617 32.636
821 2  2147.563 2730.521 2652.052
822 2  1158.312 153.583 844.162
823 2  686.371 1806.206 305.180
824 2  1197.365 866.781 396.401
825 2  105.683 900.089 1132.844
826 2  1382.916 943.814 1091.918
827 2  5192.287 5991.701 427.513
828 2  2558.330 1115.742 678.188
829 2  2542.575 3659.201 2187.798
830 2  426.005 2552.829 736.286
831 2  864.471 736.714 2013.877
832 2  728.464 1359.666 0.071
833 2  1390.249 2068.102 933.623
834 2  1449.708 840.838 517.277
835 2  4450.406 3727.299 0.000
836 2  795.171 295.465 1754.578
837 2  2894.015 3052.673 4018.999
838 2  6000.000 0.000 5492.540
839 2  1495.339 1804.372 0.000
840 2  388.806 440.594 1371.044
841 2  1044.951 1359.434 517.312
842 2  164.033 675.530 1094.491
843 2  1550.785 1058.647 1.255
844 2  1838.834 5353.096 0.000
845 2  1692.312 4212.493 4789.910
846 2  2400.875 1694.797 1238.678
847 2  734.871 1146.988 696.924
848 2  417.942 949.527 642.071
849 2  654.418 783.016 26.840
850 2  224.104 715.004 470.216
851 2  30.636 2077.425 582.704
852 2  4220.699 5087.444 856.587
853 2  607.355 629.206 1539.097
854 2  752.092 4550.945 1196.314
855 2  982.499 399.421 992.881
856 2  1.882 1732.343 4.554
857 2  1477.327 53.973 1035.444
858 2  2159.250 1920.510 2091.516
859 2  1678.739 1490.284 3039.618
860 2  136.997 1145.773 1184.765
861 2  2289.225 3806.215 877.057
862 2  852.922 974.993 636.477
863 2  886.813 943.359 851.261
864 2  4547.732 1956.989 1741.857
865 2  1424.634 0.019 463.803
866 2  981.511 501.719 1409.768
867 2  1598.080 3469.081 3563.365
868 2  12.821 958.136 1658.773
869 2  225.464 1385.430 214.309
870 2  296.850 674.574 710.017
871 2  300.811 1604.250 156.562
872 2  0.000 1649.751 634.394
873 2  501.077 1169.521 845.597
874 2  3127.095 2417.408 1472.347
875 2  1578.139 4056.309 4286.890
876 2  19.933 1083.608 223.190
877 2  4.721 451.472 1757.425
878 2  1536.271 1880.887 206.550
879 2  16.050 0.000 4527.375
880 2  0.000 3325.807 2160.298
881 2  423.758 801.024 983.191
882 2  2073.457 109.295 1174.106
883 2  912.147 1241.716 1121.081
884 2  4141.287 1332.004 0.000
885 2  1757.864 2448.208 3409.535
886 2  1560.300 1752.194 2003.227
887 2  1102.685 1208.924 174.823
888 2  591.516 1316.162 1268.831
889 2  3720.064 0.003 164.680
890 2  1363.564 367.460 916.682
891 2  649.745 1085.494 1283.099
892 2  4098.784 10.050 5998.413
893 2  5240.882 4502.333 2293.594
894 2  1506.190 343.299 1141.268
895 2  671.560 0.000 797.754
896 2  96.120 2516.392 631.717
897 2  5806.881 3509.534 912.132
898 2  722.057 289.114 1166.436
899 2  970.930 25.534 1383.814
900 2  209.756 1343.072 1115.280
901 2  0.000 1369.094 1040.672
902 2  489.646 873.319 1148.431
903 2  1212.132 657.789 713.538
904 2  105.539 123.547 2262.457
905 2  2579.428 2156.560 1960.010
906 2  339.172 2625.763 2129.617
907 2  1537.513 0.000 882.495
908 2  7.474 1925.179 5.801
909 2  1946.686 4468.482 2059.826
910 2  729.629 1486.714 122.734
911 2  2916.281 1339.394 3331.888
912 2  5412.062 3675.219 731.020
913 2  1988.765 3.177 190.123
914 2  2076.591 3131.357 2372.459
915 2  1107.800 0.000 267.311