ITEM: TIMESTEP
50200000
ITEM: NUMBER OF ATOMS
1000
ITEM: BOX BOUNDS pp pp pp
1.7333361930694430e+03 2.2666638069310384e+03
1.7333361930694430e+03 2.2666638069310384e+03
1.7333361930694430e+03 2.2666638069310384e+03
ITEM: ATOMS type x y z ix iy iz c_vor[1] c_vor[2]
1 1746.78 2189.61 2008.55 0 -1 -1 122584 14
1 2002.11 1873.34 2140.17 0 0 -1 119546 13
1 2170.36 2002.06 2215.56 0 0 -1 133086 12
1 2052.31 1986.26 2202.76 0 -1 -1 124900 13
1 1826.16 1974.94 1872.66 0 0 0 124575 13
1 2076.43 1762.17 1966.58 0 0 0 164526 12
1 1868.08 1949.21 2160.99 0 0 0 121929 12
1 1820.42 2017.76 2147.05 0 0 0 153437 16
1 2221.4 2028.53 1825.38 -1 0 0 126302 14
1 1837.95 1805.63 1786.19 0 0 0 153811 16
1 2133.63 1983.43 1842.15 -1 -1 0 147671 14
1 1888.81 2141.72 1980.1 0 -2 0 143155 12
1 2252.91 2141.11 2168.4 -1 -1 0 153028 14
1 2211.21 1896.17 2251.69 -1 0 -1 151199 13
1 1943.05 1798.21 2083.72 0 0 0 144199 12
1 2128.62 2185.42 1894.5 -1 0 0 139521 13
1 2092.85 1837.91 1886.32 -1 0 0 165143 12
1 2024.28 1997.59 1931.43 -1 -1 -1 149240 14
1 1745.76 1922.71 1930.81 0 0 0 146334 13
1 1927.36 1777.14 2130.03 0 0 -1 127116 15
1 2109.68 1868.39 2021.52 0 0 0 134136 13
1 1775.93 1801.56 1785.59 0 0 0 130634 12
1 2203.93 2112.39 1861.73 0 0 0 130684 13
1 2171.94 1762.25 1835.85 0 0 0 135340 14
1 1872.11 1780.35 1895.4 0 0 0 127644 12
1 1767.77 1935.36 1752.79 1 0 -1 142274 15
1 2142.1 2115.94 2177.62 -1 -1 -1 123313 14
1 1986.85 1827.02 2089.63 -1 0 0 121726 14
1 1870.01 1815.33 2143.38 0 0 -1 127654 14
1 2065.92 1829.49 2071.37 0 0 -1 127008 14
1 1806.71 1850.38 2080.66 0 0 -1 137359 13
1 1830.33 1912.06 2164.97 0 0 0 127301 13
1 2170.82 2195.46 1863.12 -1 0 0 147584 15
1 1847.68 1896.15 2078.29 0 0 -1 152009 15
1 1867.39 2048.95 1746.1 0 0 0 122715 12
1 2161.76 2201.47 2146.78 0 -1 -1 165394 15
1 2261.33 2240.53 2146.92 -1 -1 0 135350 15
1 2044.34 1860.27 1892.47 0 0 0 174741 15
1 1851.75 2265.09 1888.66 0 -1 0 156354 12
1 1921.15 1993.83 1786.39 -1 -1 0 114679 12
1 1737.83 2048.41 1971.54 0 0 -1 137116 14
1 2220.63 1739.7 2172.22 -1 0 -1 120322 14
1 2198.69 1862.1 1758.03 -1 0 0 167192 11
1 1800.74 1867.59 2168.92 0 0 -1 132630 13
1 2007.81 1860.33 2007.14 -1 0 0 162614 13
1 2192.35 2218.53 2200.27 -1 -1 -1 133341 15
1 1995.03 1870.84 2058.06 -1 0 0 145352 14
1 1954.62 1892.25 2150.39 0 0 -1 123603 14
1 2215.11 2255.99 2016.5 0 -1 0 137075 15
1 2018.94 1745.59 1954.5 0 0 0 154411 14
1 1984.26 1896.64 2193.94 -1 0 0 128082 14
1 2177.05 2042.53 2136.92 -1 -1 -1 122564 12
1 1880.44 1907.71 1890.27 0 0 0 132780 13
1 1951.58 1835.55 1794.3 0 0 1 129889 12
1 2037.27 1881.72 2193.29 0 0 -1 157617 15
1 2107.31 1888.14 2228.14 -1 0 -1 178373 14
1 2191.3 1921.8 1869.92 -1 0 0 155427 12
1 1822.87 2013.88 2199.78 0 -1 -1 147962 15
1 1923.42 1976.4 2152.04 0 0 -1 162801 16
1 1863.05 1920.98 2033.42 0 0 0 152576 13
1 2253.65 2154.3 2102.55 -1 -1 0 135689 14
1 1973.55 1878.36 1870.58 0 0 0 141794 14
1 2069.88 2246.64 1987.64 -1 -1 0 127691 15
1 2187.31 1800.06 1923.12 -1 0 0 129517 13
1 1809.1 1830.5 2234.46 0 0 0 143691 15
1 1929 2044.96 1799.62 0 0 0 116055 13
1 2256.94 2219.21 2047.9 -1 -1 0 127099 15
1 1954.55 1978.83 2212.67 0 0 -1 135282 14
1 1906.38 1951.44 1754.28 0 -1 0 128093 13
1 1892.17 1738.75 1922.32 0 0 0 144559 13
1 1831.91 1745.26 1835.11 0 0 0 151647 15
1 2020.3 2064.22 1845.31 0 0 0 119844 13
1 2189.31 1941.09 2157.82 -1 0 -1 139145 13
1 2217.4 2078.2 2132.32 -1 0 0 135570 17
1 2247.55 2049.45 2166.5 -1 -1 0 138583 11
1 1989.78 2164.75 2236.45 0 -1 -1 222787 16
1 1925.26 2034.43 2211.17 -1 0 -1 130031 15
1 2058.51 1930.89 2130.46 0 0 -1 127206 14
1 2187.87 1936.75 1921.53 -1 0 0 150548 13
1 2232.99 1958.44 1995.61 -1 -1 -1 173937 13
1 1836.26 2146.49 2046.85 0 0 0 138420 14
1 1779.04 1739.13 1974.26 0 0 0 162286 14
1 2251.78 1770.77 1870.56 -1 0 0 145029 12
1 2053.12 1736.22 1768.18 -1 0 0 147491 14
1 2114.05 2188.83 2250.06 -1 0 -1 152095 13
1 1882.88 2227.16 2129.61 0 0 -1 146806 14
1 2265.58 1976.66 1809.45 -1 -1 0 149134 14
1 1866.76 1771.42 2243.48 0 0 -1 144337 13
1 2166.84 2098.39 1779.48 -1 0 0 119829 13
1 2145.35 1787.53 1761.47 -1 0 0 170576 12
1 2084.47 1905.22 2169.84 0 0 -1 137330 13
1 2032 2176.18 2128.3 0 -1 -1 156518 11
1 2239.02 1788.72 2184.42 -1 0 -1 151214 13
1 2114.62 2233.27 1874.38 -1 -1 1 128585 13
1 1823.37 2240.23 1789.2 0 -1 0 152450 13
1 1870.67 2261.67 1801.01 0 -1 1 153576 11
1 1921.77 2219.79 2087.35 0 -1 0 160216 13
1 2212.08 2101.89 1809.17 -1 0 0 114978 13
1 1972.11 2005.69 1922.18 0 0 0 145060 15
1 2223.26 2106.53 1939.5 -1 -1 0 139803 15
1 2218.85 1831.43 1953.04 -1 0 -1 144810 12
1 2037 1763.24 2001.26 0 0 0 162714 13
1 1955.94 2233.11 1825.3 0 -1 0 162802 13
1 1842.01 1888.96 1859.56 0 0 0 134971 13
1 1929.42 2239.85 2038.83 0 -1 -1 171824 14
1 2251.72 2084 2210.87 -1 -1 0 165378 15
1 1956.59 2076.96 2233.58 -1 -1 -1 152332 13
1 2178.08 2108.07 1909.62 -1 -1 0 151608 13
1 2030.57 1795.65 2092.7 0 0 -1 129474 13
1 2140.86 2051.32 1772.37 0 0 0 128919 14
1 1772.72 2104.21 1892.64 0 0 0 125133 12
1 1740.79 2035.07 1830.89 0 -1 0 137575 15
1 1918.99 1873.63 1874.83 0 0 0 137469 16
1 2241.46 2075.27 1844.65 0 0 0 119002 12
1 1961.03 1895.81 2257.84 0 -1 -1 135923 14
1 2139.02 1901.34 2053.58 0 0 -1 144457 17
1 2162.1 1999.52 2052.08 0 0 0 149327 14
1 1842.03 1774.66 1940.15 1 0 -1 155139 16
1 1738.92 1743.96 2259.44 0 0 -1 154211 13
1 1826.8 2250.93 2056.5 0 0 0 132634 14
1 1789.01 1773.21 1934.32 1 0 0 169542 14
1 2256.83 1740.46 2046.37 0 0 -1 129173 13
1 2108.28 1911.75 2121.6 0 0 0 142389 16
1 1868.39 1905.94 2128.02 1 0 0 128308 13
1 2043.88 2228.82 1803 0 -1 0 133034 13
1 2062.33 1958.98 2031.94 0 0 0 137804 14
1 1991.76 1826.87 1871.45 0 0 0 141435 13
1 2232.79 2203.39 2093.65 0 -1 -1 129662 14
1 2001.03 1841.95 2183.22 0 0 0 120216 13
1 1771.07 1967.08 1855.66 1 0 0 129526 14
1 1989.13 1993.19 2175.01 0 0 -1 135177 14
1 2178.38 1804.22 1975 0 0 -1 131276 11
1 2097 1770.95 2015.15 0 0 0 138286 14
1 1869.7 1952.09 1852.09 0 0 0 125621 15
1 2112.47 2214.04 1979.28 0 -1 0 128499 15
1 2118.58 1998.18 1954.85 0 0 0 176326 12
1 2136.45 1989.95 2254.64 0 0 -1 147204 13
1 2064.14 2039.81 1828.76 0 0 0 117978 13
1 1949.23 1751.94 1949.12 0 0 0 146728 13
1 1978.52 1779.12 1913.11 0 0 0 156487 15
1 1983.47 2248.56 1929.45 0 -1 0 129759 12
1 2197.66 1907.67 2025.41 0 0 0 190110 16
1 1791.65 2151.72 1908.12 0 -1 0 136930 14
1 2192.15 2011.43 1866.94 0 0 0 139762 14
1 1776.52 1842.71 2001.7 1 0 0 134722 13
1 2016.33 1866.91 1744.08 0 0 0 142762 12
1 2053.25 2072.14 1887.03 0 0 0 165415 15
1 2085.47 2025.62 2187.7 0 -1 0 123073 13
1 1763.51 1854.62 2221.15 1 0 -1 146749 14
1 1872.82 1845.23 1884.71 0 0 0 139216 15
1 2016.53 2247.22 1847.5 0 -1 0 140880 15
1 1782.9 1838.67 1824.77 1 0 -1 138730 14
1 2007.08 2164.75 2173.66 0 -1 0 174616 13
1 2199.81 1773.56 2012.71 0 0 0 147100 15
1 2092.54 1853.15 2179.25 0 0 0 146214 12
1 2039.63 2175.66 1793.88 0 -1 0 120152 12
1 2251.93 2108.15 1885.03 -1 -1 -1 139675 16
1 1757.68 1925.54 2051.65 0 0 -1 134137 12
1 2085.36 2247.45 1830.7 0 -1 0 138528 15
1 1951.32 1877.51 1918.09 0 0 0 111035 12
1 2001.61 2160.1 2087.96 0 -1 -1 162317 12
1 1904.37 1807.04 1861.77 0 0 0 141627 13
1 1971.49 2233.53 2072.06 0 -1 -1 180251 13
1 1910.98 2072.83 1886.28 1 -1 0 119327 12
1 2015.79 1963.92 2004.29 0 0 0 171483 13
1 2054.43 1783.64 2046.47 0 0 -1 131582 12
1 2233.51 1959.31 1937.69 0 -1 -1 154563 13
1 1788.19 1876.28 1864.03 0 0 0 125917 12
1 1898.71 2083.8 1823.19 0 0 0 134410 15
1 2111.06 1996.79 2070.57 0 0 0 135007 14
1 1888.83 2059.03 2022.19 0 0 0 154336 12
1 1840.14 1886.3 1772.08 0 0 0 142815 14
1 1765.8 2061.23 2204.73 0 0 -1 177624 13
1 1913.95 1892.32 2104.62 1 0 0 135238 13
1 2260.74 1934.99 2249.93 0 0 -1 159470 13
1 1757.3 1884.97 1966.43 1 0 -1 130434 12
1 2136.73 1861.29 1866.89 0 0 0 182830 12
1 1938.85 1828.98 1898.24 1 0 0 123100 14
1 1893.87 1817.63 1926.35 0 0 0 123030 15
1 2182.32 2184.08 1751.41 -1 0 0 131079 13
1 2063.35 2100.14 1762.65 0 -1 0 133637 16
1 2058.32 1847.74 1773.92 0 0 0 190339 13
1 1954.38 1788.6 1866 0 0 -1 116196 12
1 2115.11 2028.48 1820.78 0 0 0 120621 14
1 2231.48 2041.97 1885.58 0 0 0 142114 17
1 2058.05 2006.24 2068.45 0 0 -1 156054 13
1 1878.66 2098.41 2118.98 0 -1 0 140362 14
1 2088.9 1891.13 1887.21 0 0 0 156660 13
1 2121.37 1992.97 1901.91 0 0 0 142658 13
1 2148.73 1876.24 2102.07 0 0 -1 150353 13
1 2183.21 2081.62 2173.14 0 0 -1 138388 15
1 1773.07 1856.38 2122.23 1 0 -1 147765 14
1 2177.43 2205 2014.13 0 -1 0 137869 15
1 2021.13 1735.49 1897.73 0 0 0 128355 12
1 2115.31 2157.06 2158.84 0 -1 0 150949 15
1 1836.49 2050.57 1827.83 0 0 0 121186 14
1 1836.26 1967.36 2036.65 1 0 0 128376 13
1 1864.43 1960.03 2252.62 0 0 -1 130505 14
1 1769.26 2018.08 2023.01 1 0 0 136004 14
1 1867.64 1995.96 2135.26 0 0 0 147302 14
1 1990.13 1859.62 2232.03 0 0 -1 134669 14
1 2184.74 1974.77 2106.86 0 -1 0 136534 16
1 1831.33 2188.25 1906.1 0 -1 0 153619 14
1 2210.6 1976.6 2060.2 0 -1 0 142133 13
1 2004.69 1925.18 2153.07 0 0 0 147341 16
1 1998.26 2202.97 1814.09 0 -1 0 142474 12
1 2256.77 1942.56 1849.13 -1 0 0 138628 14
1 1877.86 2031.21 1796.81 0 -1 0 124347 15
1 2244.43 1832.58 1850.47 0 0 0 168970 14
1 1934.36 2242.47 1909.91 1 0 0 153611 13
1 2113.51 2071.97 2187.62 0 0 -1 129995 15
1 2027.47 1756.97 1818.38 0 0 0 138745 14
1 1826.25 2109.16 1900.32 0 -1 0 146671 14
1 2164.99 2115.6 2225.26 0 0 -1 129428 14
1 2007.71 1831.67 1782.68 0 0 0 122947 12
1 1825.67 1793.67 1735.57 1 0 0 135649 14
1 1969.75 1838.57 1744.31 0 0 0 126572 13
1 1803.96 2118.54 1740.55 1 0 0 174736 11
1 1946.21 1838.03 1846.18 1 0 0 121547 12
1 2170.66 2256.81 2170.79 0 0 0 133336 13
1 1929.16 2153.71 1882.61 0 -1 0 134074 12
1 2131.79 2221.36 1823.54 0 -1 -1 134842 15
1 1777.67 2080.07 2104.13 0 -1 0 136057 13
1 1905.28 2141.26 1929.1 0 -1 0 124436 12
1 1804.01 1846.22 1776.35 1 0 0 129274 14
1 1760.83 2034.62 1925.56 0 0 -1 142820 14
1 1875.26 2158.82 1738.31 0 0 0 154708 13
1 1989.43 2025.1 1865.12 -1 0 0 129740 15
1 2088.4 2005.78 1862 0 0 0 128903 15
1 2245.99 1856.68 2266.21 -1 1 -1 164616 14
1 1955.47 2208.86 1776.13 0 0 0 194741 13
1 2138.59 2142.81 1783.56 -1 0 0 122984 13
1 2071.9 2120.23 2019.4 0 0 -1 160841 13
1 1765.92 1767.84 2029.05 0 1 -1 134906 14
1 2033.75 2161.16 1886.37 0 -1 0 163518 14
1 1782.97 2132.24 1787.74 0 0 0 139690 13
1 2011.51 2156.47 1836.37 0 0 0 130825 12
1 2138.67 2075.89 1819.21 -1 0 0 120471 14
1 1766.28 2047.55 2146.34 0 0 -1 143188 15
1 2101.93 2065.7 1858.06 0 0 0 147919 13
1 1817.75 1952.51 1988.6 0 0 0 156569 13
1 2015.67 2225.43 1966.8 0 0 -1 127804 12
1 1908.1 2059.96 2144.15 0 0 0 139063 16
1 2238.97 2167.61 1745 -1 0 0 151818 14
1 1891.04 2070.72 2074.71 0 0 -1 154597 16
1 2257.22 2045.99 2113.25 -1 0 -1 124857 15
1 1832.79 1815.51 1906.78 0 0 -1 141751 14
1 1873.18 2192.92 2170.17 0 0 -1 159225 11
1 2059.64 2026.94 1776.67 -1 0 0 140849 14
1 2224.27 1929.7 2210.33 -1 0 -1 150931 13
1 1945.84 2139.58 2016.48 0 0 -1 159111 12
1 1810.89 1921.38 2048.56 0 1 -1 143958 13
1 1997.88 2045.59 2153.16 0 0 -1 130071 13
1 2202.42 2126.92 2151.88 -1 0 -1 139847 16
1 2029.28 1886.3 1797.54 0 1 0 170200 13
1 2243.26 2165.06 2215.55 -1 0 -1 153055 14
1 2192.78 2171.92 2112.38 -1 0 0 142390 13
1 1827.82 2012.11 1789.99 0 0 -1 123574 15
1 1740.05 2199.16 1892.2 0 0 0 144713 13
1 1959.99 2026.12 2250.49 -1 0 0 129644 13
1 2138.55 2243.74 2210.53 -1 0 0 173421 15
1 1961.22 2180.61 2195.08 -1 0 -1 169410 11
1 2087.24 2196 1805.14 -1 0 0 119905 13
1 2061.44 1774.89 2265 0 1 -1 149277 14
1 1951.92 2175.88 2073.89 0 0 0 170205 12
1 2227.39 2226.33 1883.85 -1 0 0 174923 14
1 1989.32 2105.79 1827.46 0 0 0 127383 14
1 1747.94 2059.07 1878.88 1 0 0 136904 13
1 2260.37 2254.77 1852.38 -1 0 0 140661 15
1 2135.68 1865.39 1919.47 -1 1 0 142490 13
1 1882.16 1756.31 1970.53 0 1 -1 159597 15
1 2033.38 2228.1 2137.31 0 0 -1 171346 12
1 1854.15 1864.27 2158.82 -1 0 0 115580 12
1 1794.89 2166.98 2018.93 0 0 0 137503 16
1 1934.51 1970.01 1916.47 -1 0 0 132967 12
1 1770.82 1761.38 2219.71 0 1 -1 157607 14
1 2250.04 1839.97 2200.34 -1 1 -1 158177 12
1 2004.62 1978.41 1885.31 0 0 0 121236 13
1 2248.16 2131.52 1836.25 -1 0 0 132221 14
1 2200.53 2030.78 2183.09 -1 1 -1 138626 15
1 1846.32 2258.76 2105.06 0 0 -1 137503 14
1 1765.78 2236.72 2185.16 0 0 0 162593 14
1 2054.64 1868 2144.08 0 0 -1 127794 15
1 2228.07 1773.12 2233.23 -1 1 -1 144703 15
1 2244.04 2213.47 2189.82 -1 0 -1 128935 14
1 2032.06 2123.03 1799.62 0 0 0 118363 13
1 2265.71 1873.82 1878.49 -1 0 0 139847 14
1 1785.81 2208.12 2144.1 0 -1 0 156341 13
1 2187.13 1772.36 2266.33 -1 1 -1 170036 11
1 1794.29 2070.84 1854.71 0 0 0 138114 15
1 2164.52 2122.61 1826.66 -1 0 0 113979 13
1 2255.2 1887.99 2223.38 -1 0 -1 132412 13
1 2216.01 2248.48 2069.52 0 0 0 148498 14
1 2210.56 2175.03 2173.79 -1 0 -1 129281 14
1 1969.58 1920.35 1944.83 -1 0 -1 122116 12
1 2211.03 1977.37 2190.17 -1 0 -1 142267 13
1 1905.4 1942.73 2010.85 0 0 0 143810 13
1 1877.4 1968.1 1801.62 0 0 0 121523 15
1 1855.28 2035.55 1988.18 0 1 -1 152472 14
1 1803.18 2061.3 1907.07 0 0 1 145061 14
1 2046.93 1745.6 2085.4 -1 0 -1 161156 13
1 1945.24 2073.25 2181.02 0 0 -1 124361 12
1 2170.96 1854.1 1957.65 -1 0 0 156135 12
1 2084.76 2146.46 1783.16 0 0 0 123961 15
1 1768.24 1958.8 2152.97 0 0 -1 147344 15
1 2221.01 2009.74 1774.77 -1 0 0 158071 13
1 1966.35 1824.03 2040.51 0 1 -1 163396 13
1 2164.63 2190.78 2235.17 -1 0 0 137632 15
1 1786.34 1805.4 2103.98 0 1 -1 148131 14
1 1808.39 2089.93 1806.31 0 0 0 123605 13
1 1908.64 2184.81 1769.9 0 0 0 162580 13
1 2176.04 2248.26 1807.39 -1 0 0 130150 13
1 2005.57 2045.13 1912.92 -1 0 0 144233 13
1 1773.58 1792.85 1982.91 1 1 -1 134234 14
1 2210.38 2221.99 1776.39 -1 0 0 141100 14
1 1985.09 1950.29 2245.71 0 0 -1 126276 14
1 1905.93 2079.61 1766.07 0 0 0 119973 12
1 2092.66 2066.92 1792.37 -1 0 0 120503 14
1 1803.82 1924.94 1849.16 0 1 0 132186 15
1 2014.63 2176.23 1944.83 0 0 0 150389 14
1 1992.37 1924.36 1803.55 0 0 0 135860 14
1 1913 1923.48 2150.63 -1 0 0 116109 12
1 2028.72 1858.43 1948.4 -1 0 0 147030 12
1 1919.83 1767.7 2181.34 0 0 0 133986 13
1 2020.67 1969.81 1790.31 -1 0 0 137449 14
1 1748.33 2185.07 1775.19 0 0 0 148370 13
1 1750.96 1773.29 2079.65 0 1 -1 142972 14
1 1882.36 1781.04 1806.36 0 0 0 164603 12
1 1741.49 1924.3 2000.86 0 0 0 156024 16
1 2088.48 1804.17 1767.07 -1 1 1 175553 13
1 2247.77 2226.19 1987.12 -1 0 0 129475 13
1 2145 2010.92 2108.56 0 0 -1 138314 15
1 2141.67 2029.81 1867.61 -1 0 0 137535 14
1 2237.85 2022.84 2068.59 -1 0 -1 130643 14
1 1783.82 2042.66 1800.69 0 0 0 130577 13
1 1814.34 2170.24 1953.22 0 0 0 147332 12
1 1918.49 1839.4 2107.93 0 0 -1 141988 15
1 2256.23 2246.63 1767.26 0 -1 0 145932 13
1 1920.65 1919.51 1922.53 -1 0 0 122320 12
1 2024.41 1962.59 2102.98 0 0 0 151791 14
1 2013.99 1821.76 2135.33 0 0 0 118804 12
1 2172.74 1757.33 1951.41 -1 0 0 128423 12
1 2079.45 1855.87 1933.96 -1 0 0 142796 12
1 1757.89 2163.19 1822.73 0 -1 0 127284 14
1 1863 1824.08 2231.51 0 0 0 144762 13
1 1936.59 1839.46 1950.73 0 0 0 125308 13
1 1763.47 1932.54 1813.79 0 0 1 135839 15
1 1800.49 2254.33 1893.47 0 -1 0 169988 15
1 1868.65 2219.31 1769.71 0 -1 1 148730 14
1 1857.86 2076.4 1870.97 0 -1 0 130968 14
1 2160.79 1796.01 2041.8 0 0 0 156310 14
1 1892.09 1742.1 2021.63 0 0 0 143036 13
1 2123.68 1761.16 2060.26 -1 0 0 154071 14
1 1867.95 2010.32 2033.48 0 0 0 132745 13
1 1896.6 1852.77 2200.83 0 0 0 137755 14
1 1918.82 1818.17 2164.46 0 -1 0 127394 14
1 1972.52 1742.15 2155.17 0 0 0 161018 14
1 1773.27 2233.48 1772.39 0 -1 1 149545 12
1 2077.11 2024.48 1975.69 -1 -1 0 163527 14
1 2221.26 2012.71 2137 -1 0 0 130112 13
1 2191.8 2142.99 1963.96 0 0 0 139647 13
1 1890.42 2038.51 1851.49 0 0 0 119870 13
1 1978.76 1870.41 1963.85 0 1 0 125027 12
1 1797.49 2086.08 2169.36 0 -1 0 176491 13
1 1865.56 1759.76 2066.4 0 1 0 135189 12
1 1792.64 1906.21 2000.24 0 0 0 147562 15
1 1823.14 1925.99 2259.77 1 0 0 146264 14
1 2263.04 1826.33 1982.98 -1 0 0 144563 14
1 1748.95 1882.22 1827.69 0 0 0 141442 14
1 2053.24 2137.36 2159.55 -1 -1 0 163065 12
1 2016.21 1907.66 2235.03 0 0 0 136988 13
1 1787.3 2014.69 1755.14 0 0 0 133250 14
1 1883.08 1966.63 2061.49 0 0 0 146669 13
1 1845.9 1932.34 2211.54 0 0 0 129220 12
1 1993.68 1857.32 1826.77 0 0 1 147488 14
1 2091.11 1963.46 2242.31 -1 0 0 142333 14
1 2109.86 2175.48 1943.25 -1 -1 0 135910 13
1 2115.24 2096.17 2237.12 0 -1 0 130259 15
1 2044.91 2200.09 2005.24 1 -1 0 144663 14
1 1921.82 2020.05 1891.67 0 0 1 133268 14
1 1820.21 1831.15 2134.62 0 0 0 124952 13
1 1979.13 2038.57 2202.51 0 0 -1 130835 12
1 1901.09 2111.56 2022.82 0 -1 0 146774 13
1 2258.65 2198.7 1943.36 -1 -1 0 157574 13
1 2018.32 2018.84 1811.41 0 0 1 139559 16
1 1737.1 2002.31 2157.43 0 0 0 135676 14
1 1855.02 2204.54 2088.95 0 -1 0 156176 15
1 1835.67 1879.33 2207.54 0 0 0 155535 15
1 2173.4 2193.12 1803.47 -1 -1 1 126433 14
1 2040.97 2019.11 1883.95 0 -1 1 125371 13
1 2001.28 1918.59 1751.89 0 0 1 144547 15
1 2076.03 2190.89 1753.38 0 -1 1 151153 13
1 2111.74 1999.9 2148.86 0 -1 0 135594 14
1 2235.59 1919.3 1899.94 -1 0 0 145014 13
1 1941.58 1869.67 2053.24 0 -1 0 151321 14
1 2206.83 2085.07 2239.98 -1 0 0 137813 13
1 1868.59 1807.53 1972.14 0 0 0 147561 13
1 2105.41 1864.3 2074.16 -1 0 0 131275 12
1 2101.77 1990.61 2011.63 -1 0 0 167123 13
1 1745.27 2167.11 2057.1 1 0 -1 130030 14
1 2170.96 1907.81 1752.08 0 0 1 205541 12
1 1898.68 1908.01 1785.79 0 0 1 139677 12
1 2109.6 1811.78 2047.12 -1 0 0 139041 13
1 2140.83 2226.19 2046.09 -1 -1 0 144143 12
1 1815.35 2003.26 2002.26 0 0 -1 138877 14
1 2083.7 1959.38 2168.5 -1 0 0 128818 15
1 2029.7 2114.01 1862.47 -1 -1 0 135120 12
1 2018.84 1936.28 2056.71 -1 0 1 180170 15
1 1733.5 1873.1 2012.42 0 -1 0 173165 13
1 1762.53 2166.51 1963.57 1 -1 0 137092 13
1 2041.19 1982.62 1845.51 0 0 1 130089 13
1 1948.81 1979.58 1738.97 0 0 1 120453 14
1 2233.2 2178.3 1797.35 -1 0 1 134202 14
1 2137.86 1936.47 2251.45 -1 0 0 164327 12
1 1875.93 2027.18 2230.67 0 -1 -1 136976 14
1 1833.03 2013.25 2259.99 0 0 -1 130933 13
1 1806.1 2234.8 2009.79 0 -1 0 147017 14
1 2152.34 2092.79 2040.69 -1 -1 0 146125 14
1 2179.78 2029.17 2261.21 -1 0 0 156449 14
1 1933.15 1790.88 1817.25 0 0 0 151311 12
1 2262.53 1960.89 2190.49 -1 0 0 154873 12
1 2098.14 1745.06 2181.63 -1 0 0 145401 12
1 1886.37 2120.21 1882.83 -1 -1 0 132592 14
1 2265.33 1980.42 2033.56 -1 0 0 146675 15
1 2249.4 2184.15 1847.71 0 -1 0 131542 14
1 2158.22 2144.33 1874.58 0 -1 1 136307 12
1 2203 1899.32 2127.44 -1 0 0 161753 12
1 1981.21 2056.73 1807.15 0 0 0 126386 15
1 1986.89 1969.46 1959.08 0 -1 1 151184 15
1 1835.04 1933.29 1906.67 0 -1 1 165336 16
1 2149.27 1847.58 2050.88 -1 -1 0 137656 13
1 1807.53 1875.07 2264.03 0 0 0 145181 14
1 2181.11 2057.79 1892.34 -1 -1 0 149364 13
1 2075.73 2009.57 1923.85 -1 -1 0 142354 13
1 1821.53 1781.23 2216.31 0 0 0 140996 13
1 1769.35 1752.53 1862.78 0 0 1 144428 13
1 1984.25 1804.43 1823.97 0 0 1 124387 13
1 2004.19 1753.37 1754.9 -1 -1 1 140308 12
1 1841.32 2062.82 1944.92 0 0 0 155266 14
1 2203.52 2008.86 2018.5 -1 -1 0 154980 13
1 1973.32 1792.46 1773.38 -1 0 1 141732 14
1 1838.51 2135.84 1994.91 -1 -1 0 139589 13
1 1870.65 2090.55 1981.12 0 -1 1 148705 13
1 1747.31 1872.51 2171.42 0 0 0 163344 13
1 1949.41 1854.88 2187.21 0 0 0 117089 14
1 1784.03 1965.89 2027.51 1 0 0 129596 12
1 2142.56 1768.03 2163.21 -1 0 0 145330 12
1 2159.95 2165.73 2187.62 -1 -1 0 137367 13
1 2244.93 2122.15 2248.66 -1 0 0 141923 12
1 1835.41 2181.22 2133.24 0 -1 0 168729 12
1 1930.53 1872.08 1762.24 0 1 0 153923 14
1 1883.28 1955.14 1914.5 0 0 0 161205 14
1 1815.51 2065.34 2006.97 0 0 -1 140665 15
1 1962.07 1780.59 2256.76 0 0 -1 143056 14
1 2156.32 1905.19 1952.04 0 0 0 147879 13
1 2046.69 2022.03 2151.13 0 0 0 136666 15
1 1852.03 2133.84 1941.65 0 0 0 143604 16
1 2147.77 2148.41 2264.01 0 0 -1 135033 15
1 2211.7 2213.62 2250.6 0 0 -1 158779 14
1 2087.67 2057.13 1740.3 0 0 0 136704 13
1 1752.44 2141.23 1745.35 1 0 0 167106 11
1 2087.04 2071.44 2001.25 0 -1 0 168274 13
1 1745.66 1786.76 1827.25 0 1 0 165960 15
1 1970.94 1937.67 1894.02 0 0 0 138029 16
1 1930.69 1902.1 2203.07 1 0 -1 135847 14
1 2119.97 2146.03 2217.12 0 0 -1 127213 12
1 2137.81 1952.33 1934.7 0 0 0 150345 12
1 2184.15 2204.03 2069.19 0 0 0 166273 17
1 2040.37 2199.35 1848.33 0 0 0 132528 14
1 2159.14 1927.92 2115.11 0 0 -1 129269 12
1 1864.61 2171.27 1795.25 0 0 0 146011 13
1 2065.58 1774.59 2211.96 0 1 -1 168049 12
1 2029.97 2080.02 2128.26 0 0 -1 163069 14
1 1955.27 1982.07 2000.64 0 0 0 175434 12
1 2160.65 1891.16 2235.49 0 0 -1 171512 14
1 1739.96 2019.65 1778.85 1 0 0 145393 14
1 2069.18 2235.67 2175.35 0 0 -1 177803 15
1 2009.78 1803.89 1734.67 0 0 0 146380 14
1 2122.5 2136.44 2047.56 0 0 0 149224 12
1 1774.99 1987.48 2197.98 1 0 0 146875 14
1 1983.48 2002.42 2123.19 0 0 -1 166566 14
1 2162.93 2248.16 1858.65 0 0 0 135834 14
1 2199.44 2151.17 2245.95 0 0 0 137223 16
1 1917.21 2030.46 1748.03 1 0 0 121508 14
1 1745.19 1846.21 1787.98 1 1 0 146775 13
1 1980.75 1794.42 2167.27 0 1 0 134355 14
1 2164.58 1947.85 2065.1 0 0 -1 142185 14
1 1783.34 2259.51 1818.43 1 0 0 134910 14
1 2259.18 1852.8 1926.71 -1 1 0 154387 13
1 1908.27 1986.12 2237.73 0 0 -1 129053 13
1 2092.16 2188.07 1856.43 0 0 0 131131 13
1 1892.02 2076.14 2193.63 1 0 -1 144062 14
1 2115.03 1950.48 2044.8 1 0 0 144573 12
1 1874.75 2042.12 1909.05 0 0 0 148002 13
1 2119.88 2035.1 2227.64 0 0 -1 134145 15
1 1879.99 1901.79 2185.58 0 1 0 121169 12
1 1920.59 2013.46 2026.79 1 0 0 196980 15
1 2233.93 2007.81 1974.03 0 0 0 148604 12
1 1944.12 1853.41 2001.7 0 1 -1 149058 13
1 1818.27 1970.89 1755.54 1 0 0 127934 14
1 2159.31 1760.77 1898.65 0 0 0 148603 15
1 1935.95 1852.33 2238.37 0 0 -1 144816 13
1 2187.06 1778.06 2191.72 0 0 -1 148993 13
1 2220.55 2264.36 2265.86 0 0 -1 144568 13
1 1812.94 2039.78 2099.4 0 0 -1 125730 12
1 1832.43 1825.11 2186.9 1 0 -1 128698 13
1 1995.24 2101.67 2002.27 0 0 0 185346 12
1 1816.07 1971.66 2231.35 0 0 -1 123643 13
1 1742.05 2136.02 1924.17 1 0 0 140164 13
1 2210.41 2217.18 1833.71 0 0 0 125889 13
1 1755.71 1888.04 2263.88 0 0 -1 136389 13
1 2265.21 2246.82 2092.85 0 0 0 138268 15
1 2187.26 2067.06 1840.42 0 0 0 119974 14
1 2146.12 1912.95 1898.59 0 0 0 130766 12
1 1962.65 1835.9 2138.49 0 1 0 125269 14
1 1996.32 2152.51 1771.45 0 0 0 173057 14
1 1877.97 2171.36 2219.69 1 0 -1 162109 13
1 1980.53 2077.32 1876.6 0 0 -1 129030 14
1 2243.29 2258.56 2217.77 0 0 0 137944 14
1 1865.26 1981.7 2203.65 1 0 -1 125025 14
1 1968.03 1968.61 1786.93 0 0 0 120462 15
1 1889.64 1795.71 2097.15 0 1 -1 136009 14
1 2259.36 2100.41 1978.2 0 0 -1 135813 14
1 2155.87 2182.74 1970.74 0 0 0 146570 14
1 2249.06 2006.98 1921.72 -1 0 0 146606 14
1 2228.07 2052.79 1938.72 -1 0 -1 136506 13
1 2154.73 1812.16 1882.31 0 1 0 163342 13
1 2184.41 1817.62 1783.33 0 0 0 175135 13
1 1941.05 2119.84 2206.06 0 0 -1 160644 15
1 1959.05 1923.1 1844.77 0 0 0 137134 14
1 2002.2 1889.89 1915.16 0 1 0 123376 13
1 1799.44 1787.69 1832.41 0 1 0 134279 13
1 1921.78 2258.2 2149.15 0 0 -1 136904 12
1 1776.5 1907.07 2141.6 1 0 -1 139164 12
1 2054.66 2109.26 2244.48 0 0 -1 152419 12
1 2100.83 1941.87 1898.79 0 0 0 139982 16
1 1846.94 1841.38 1745.59 1 1 0 160757 14
1 1986.72 2128.42 2048.09 0 -1 0 157895 13
1 2222.44 1779.77 1825.06 0 0 0 144463 14
1 2066.43 2266.26 2036.93 0 0 0 130926 13
1 1770.59 2121.07 2069.56 0 0 -1 141162 16
1 1734.81 1963.41 1896.78 1 1 0 126522 13
1 1971.18 2091.14 2138.59 0 0 -1 129183 13
1 2087.25 1953.9 1848.75 0 0 0 147006 13
1 2061.87 2152.95 1942.78 0 0 0 140677 11
1 2166.98 2022.31 1821.7 0 0 0 127100 12
1 2099.49 2246.94 2073.06 0 0 0 159509 13
1 2200.83 1787.49 1873.67 0 0 0 119435 12
1 1753.89 2184.81 2180.78 1 0 -1 168243 11
1 2143.97 2029.99 2178.09 0 0 -1 127235 14
1 1882.76 2091.92 1928.08 1 0 0 148398 14
1 2227.02 1847.01 1801.35 0 0 0 162810 13
1 1929.79 2090.69 2105.13 1 0 0 145964 13
1 2063.09 2070.67 2169.18 -1 0 0 141203 12
1 1905.9 1889.35 2015.95 1 1 0 143326 12
1 1897.6 1738.5 2103.93 1 0 -1 116503 12
1 2157.33 1882.57 2001.2 -1 0 0 147507 12
1 2123.82 1735.46 1956.56 0 0 0 146196 14
1 2240.52 2082.69 2025.25 0 1 -1 119822 14
1 1915.61 1806.09 2217.18 1 1 -1 134625 13
1 1789.82 2205.19 1814.02 1 0 0 136497 13
1 1933.9 2167.63 1971.81 0 0 -1 156697 12
1 1760.27 1919.17 1879.58 0 0 0 125531 16
1 1867.33 1975.68 1992.81 0 -1 0 177174 15
1 1921.94 2211.83 2177.82 0 -1 0 168402 13
1 1805.16 2004.33 2059.98 1 0 0 132328 13
1 1847.43 2060.56 2166.31 0 -1 0 150989 13
1 1910.62 1919.93 2059.47 0 0 0 148298 14
1 1908.31 1989.06 1840.19 1 -1 1 126808 14
1 1826.78 1962.51 1820.24 0 0 1 118399 14
1 2222.92 1778.94 1958.73 0 0 0 130581 14
1 1833.54 2232.3 2149.77 0 -1 0 164509 14
1 2049.81 1823.15 2174.51 0 0 0 135597 12
1 1817.25 1820.21 1969.02 0 0 0 151476 13
1 1940.51 2101.33 1851.34 0 -1 0 133885 14
1 1840.03 2134.94 2105.7 0 0 0 158911 12
1 2038.53 1914.98 2012.09 0 -1 0 141688 12
1 2191.49 1770.8 2139.69 0 1 0 174902 12
1 1765.85 1972.02 2076.73 0 0 0 137347 16
1 2180.92 2075.42 1952 0 0 0 175369 12
1 1773.78 1889.67 1780.38 1 0 0 126980 13
1 2216.16 2260.13 1961.86 0 -1 0 152159 13
1 1917.7 1755.67 2241.04 0 1 0 165792 14
1 2073.41 2064.47 2222.37 0 -1 0 126058 12
1 1875.91 1996.58 1755.98 0 -1 1 125909 14
1 1986.95 1838.18 1922.19 0 0 1 143769 12
1 2031.31 2219.64 1917.08 0 0 0 136199 15
1 1857.19 1935.9 1765.77 0 0 1 119489 12
1 1791.59 2038.23 1968.57 1 0 0 160598 13
1 1880.22 2172.39 1892.5 0 -1 0 121482 12
1 2120.32 1987.32 2201.92 0 0 0 124930 15
1 2236.77 1961.67 2144.12 0 -1 0 127957 14
1 1952.89 2055.1 1916.25 0 0 0 169224 14
1 2072.4 2014.56 2244.07 0 0 0 150687 16
1 2159.05 2079.14 2263.97 0 -1 0 134957 15
1 1792.41 1813.04 2043.81 0 0 1 150030 13
1 2251.97 2031.08 2018.4 -1 0 0 127080 13
1 2135.4 1930.28 1848.94 0 0 0 177961 12
1 2097.47 1786.73 1876.83 1 0 0 170042 11
1 2033.64 2136.97 1985.74 0 -1 0 142703 13
1 2216 2161.13 2064 0 0 0 122994 14
1 2082.19 1909.51 2042.47 0 0 0 132189 13
1 2002.29 2258.98 2107.41 0 -1 -1 157574 12
1 2114.41 1934.1 2203.67 0 0 0 125167 11
1 2005.45 1774.59 1864.9 0 0 1 131628 12
1 1811.52 1759.32 1786.56 0 0 0 134957 14
1 1829.75 2199.46 2042.46 0 -1 0 124860 12
1 2104.18 1858.67 2127.14 0 0 0 155920 14
1 2022.68 2247.6 2014.36 0 -1 0 158431 14
1 1773.82 1782.69 1735.44 1 0 1 140284 12
1 1867 2106.17 1741.82 1 -1 0 141689 13
1 2121.98 1748.24 1849.7 0 0 1 141362 14
1 1960.59 2008.29 1821.82 1 0 0 119879 12
1 1934.29 1966.16 2047.51 1 0 0 171891 12
1 2083.89 1782.83 2089.55 0 0 0 137574 12
1 2226.43 2074.62 2079.94 0 -1 0 112528 12
1 1996.26 2253.21 1796.18 0 -1 1 143536 13
1 1943.12 2048.38 1851.29 1 0 0 124854 15
1 2113.34 1912.15 1990.45 0 0 1 163923 16
1 1964.37 1874.15 2101.4 0 0 0 137583 13
1 1924.56 1753.6 2061.86 1 0 0 145461 15
1 2061.19 1928.15 2212.9 0 0 0 141664 14
1 1837.04 2141.13 2238.38 1 -1 0 188255 13
1 2067.13 1889.12 1974.18 0 0 0 143633 14
1 2038.48 1788.34 1777.23 0 0 1 132122 12
1 1749.5 2149.71 1873.44 1 -1 1 122703 11
1 2223.69 1938.75 2096.64 -1 0 0 141511 14
1 1771.5 1878.19 1915.11 0 0 0 132665 12
1 2070.04 1986.58 2117.93 0 0 0 132758 13
1 1855.81 2002.38 1835.36 1 -1 1 105757 12
1 2128.27 1841.89 2216.5 0 -1 0 187861 13
1 1966.1 2019.43 1770.32 0 -1 0 126247 14
1 1950.99 1736.72 2105.28 0 0 0 132244 13
1 2061.62 2238.66 1878.28 0 -1 1 126211 13
1 1979.59 1878.43 1779.93 0 0 1 110370 12
1 1863.75 2046.96 2116.59 0 -1 0 131510 13
1 2122.16 2235.65 2159.65 0 -1 0 144151 13
1 2137.2 1952.97 2159.35 0 0 0 130504 14
1 2004.92 2120.28 2260.5 0 -1 0 166866 13
1 2017.39 1908.33 1964.32 0 0 0 136304 13
1 2167.12 2140.85 2076.87 0 -1 0 137725 13
1 1919.89 1792.6 1967.11 0 0 0 149575 15
1 1893.79 1853.03 1979.57 0 0 0 149221 13
1 2128.7 2180.58 2017.91 0 -1 0 141970 13
1 2097.2 2107.25 2147.56 0 0 0 151671 12
1 2093.91 2035.86 2040.64 0 -1 0 147363 13
1 2147.71 1767.74 1997.73 0 0 0 128457 14
1 2193.47 2053.85 1788.02 0 0 0 122020 14
1 1803.22 2218.16 2093.66 1 -1 0 140691 13
1 2029.49 1857.27 2097.54 0 -1 0 120538 14
1 2193.63 2101.72 1997.64 0 -1 0 139858 14
1 2095.64 2237.23 1773.17 0 -2 1 154090 13
1 2064.49 2148.94 1832.44 0 -1 0 128640 13
1 1918.15 1944.2 1874.11 0 0 1 124119 14
1 2079.66 1766.14 1804.45 0 0 1 155318 15
1 1739.19 1748.21 2179.21 1 0 0 140132 13
1 2126.57 2108.54 2092.5 0 0 0 152363 13
1 2181.74 2150.72 2016.96 0 0 0 146558 15
1 2103.41 1754.75 2129.56 0 0 0 169115 14
1 1942.74 2256.5 2197.84 0 0 0 158219 12
1 2075.86 1946.89 2082.11 0 0 0 131248 14
1 2250.89 1787.45 2018.91 0 0 0 149130 15
1 1771.28 2226.91 1858.97 1 -1 0 140761 14
1 1884.06 2224.04 1902.81 1 -1 0 151197 12
1 1899.75 1909.39 1839.68 0 0 0 127949 13
1 2141.68 2046.81 2065.97 0 0 0 144345 14
1 2103.44 1754.19 1756.52 0 0 0 149725 10
1 2209.88 2193.3 1966.34 0 -1 0 159051 15
1 2188.24 1901.91 2076.94 0 0 0 135627 12
1 2001.86 1989.44 1744.85 0 -1 1 150630 14
1 1892.36 2125.82 1789.29 1 0 1 150061 14
1 2193.52 1823.99 1836.09 0 0 1 162004 12
1 1995.84 2098.42 2091.09 0 -1 0 157364 13
1 1858.26 2079.91 1788.94 1 0 1 112948 12
1 1890.07 1868.02 2063.2 0 0 0 153782 13
1 2255.62 1772.28 2134.75 -1 1 0 167639 14
1 1792.73 2178.53 1861.58 0 0 1 133585 14
1 1811.72 1882.61 1816.6 0 1 0 126886 14
1 1983.37 1779.54 2115.83 0 1 0 137457 12
1 1820.73 1882.54 2121.78 0 0 1 114292 12
1 1913.91 2202.22 1861.58 0 0 0 168242 12
1 1841.69 1807.8 2065.1 0 1 0 161308 14
1 1891.15 1953.42 2112.53 0 0 0 157846 14
1 1929.21 1890.45 1965.93 0 0 0 129178 13
1 1819.06 2098.07 2073.1 0 0 0 129227 17
1 2074.19 2190.06 1905.74 -1 0 0 126037 14
1 1930.66 1950.05 1965.45 0 0 1 156474 13
1 1737.97 2220.83 1812.85 0 0 1 132887 14
1 2090.55 2218.33 2028.25 -1 0 0 128431 13
1 1753.2 2197.61 2101.84 0 0 0 139679 14
1 2223.51 2265.5 2119.68 0 0 0 142095 13
1 2012.88 1949.94 2200.36 -1 0 -1 127121 13
1 2211.01 1737.37 1860.87 -1 1 1 122926 14
1 2154.78 2136.7 2129.05 -1 0 0 141801 15
1 2067 1819.12 2124.55 0 0 0 143993 13
1 1853.44 1915.94 1814.89 0 0 1 121970 12
1 1783.03 1899.11 2089.67 0 1 0 137580 12
1 1791.94 2056.59 2053.09 0 0 0 118500 14
1 2227.16 2186.78 2017.4 -1 0 0 135052 15
1 1850.59 2097.26 2030.15 0 0 1 117105 13
1 1857.26 1847.09 2099.88 0 0 -1 138865 15
1 2094.89 2139.53 2264.22 -1 0 0 128720 14