LAMMPS (23 Jun 2022 - Update 1)
OMP_NUM_THREADS environment is not set. Defaulting to 1 thread. (src/comm.cpp:98)
  using 1 OpenMP thread(s) per MPI task
# Read restart
read_restart ${read_res}
read_restart ./pgnpmf/010/equpmf89.res
Reading restart file ...
  restart file = 23 Jun 2022, LAMMPS = 23 Jun 2022
  restoring atom style atomic from restart
  orthogonal box = (1310.7641 1310.7641 1310.7641) to (2689.2359 2689.2359 2689.2359)
  1 by 2 by 2 MPI processor grid
  restoring pair style table from restart
  1000 atoms
  read_restart CPU = 0.005 seconds

# Settings

pair_style table spline 9941

pair_coeff 1 1 ./pgnpmf/N20.txt DE_GNP 75.6
pair_coeff 2 2 ./pgnpmf/N100.txt DE_GNP 115.92
WARNING: 3 of 9941 force values in table DE_GNP are inconsistent with -dE/dr.
WARNING:  Should only be flagged at inflection points (src/pair_table.cpp:463)
pair_coeff 1 2 ./pgnpmf/mixed_potential.txt DE_GNP 95.66
WARNING: 1562 of 9941 force values in table DE_GNP are inconsistent with -dE/dr.
WARNING:  Should only be flagged at inflection points (src/pair_table.cpp:463)

#Neigh_list Calc Frequency

neigh_modify delay 0 every 1 check yes

# Saving Frequency (50 frames)

variable ts_save equal ${steps_equ}
variable ts_save equal 5000

# Dump
#dump 1 all custom ${ts_save} ./pgnpmf/${folder}/equilibration/trajectory/trajectory_${usic}_${trial}.equ.custom type x y z ix iy iz
#dump_modify 1 first no sort id
dump 2 all cfg 50000 ./pgnpmf/${folder}/equilibration/trajectory/dumpgen.tens_*.cfg mass type xs ys zs fx fy fz
dump 2 all cfg 50000 ./pgnpmf/010/equilibration/trajectory/dumpgen.tens_*.cfg mass type xs ys zs fx fy fz
dump_modify 2 element N20 N100

# thermo_style
thermo_style custom step temp press pe density ke etotal lx ly lz xlo xhi ylo yhi zlo zhi vol dt time cpu tpcpu spcpu cpuremain

# run info
timestep ${ts}
timestep 0.5
thermo 200

# fix

fix 1 all momentum 1000 linear 1 1 1 angular
variable T equal ${temp}
variable T equal 300
fix 2 all nvt temp ${T} 370000 100.0
fix 2 all nvt temp 300 370000 100.0

run 100000
Generated 0 of 1 mixed pair_coeff terms from geometric mixing rule
Unused restart file global fix info:
  fix style: npt, fix ID: 5
Neighbor list info ...
  update every 1 steps, delay 0 steps, check yes
  max neighbors/atom: 2000, page size: 100000
  master list distance cutoff = 117.92
  ghost atom cutoff = 117.92
  binsize = 58.96, bins = 24 24 24
  1 neighbor lists, perpetual/occasional/extra = 1 0 0
  (1) pair table, perpetual
      attributes: half, newton on
      pair build: half/bin/atomonly/newton
      stencil: half/bin/3d
      bin: standard
Per MPI rank memory allocation (min/avg/max) = 3.094 | 3.102 | 3.11 Mbytes
   Step          Temp          Press          PotEng        Density         KinEng         TotEng           Lx             Ly             Lz            Xlo            Xhi            Ylo            Yhi            Zlo            Zhi           Volume           Dt            Time           CPU           T/CPU          S/CPU         CPULeft    
  62710000   303.75994      1.2203709     -41955393       0.26755948     904.54524     -41954489       1378.4718      1378.4718      1378.4718      1310.7641      2689.2359      1310.7641      2689.2359      1310.7641      2689.2359      2.6193507e+09  0.5            31560000       0              0              0              0            
  62710200   370.55021      1.187769      -41955427       0.26755948     1103.4353     -41954324       1378.4718      1378.4718      1378.4718      1310.7641      2689.2359      1310.7641      2689.2359      1310.7641      2689.2359      2.6193507e+09  0.5            31560100       0.014360826    6963.0513      13925.382      7.167116     
  62710400   529.82426      1.1546521     -41955466       0.26755948     1577.7262     -41953888       1378.4718      1378.4718      1378.4718      1310.7641      2689.2359      1310.7641      2689.2359      1310.7641      2689.2359      2.6193507e+09  0.5            31560200       0.02841797     7113.8843      14227.821      7.0765578    
  62710600   802.79579      1.1152968     -41955512       0.26755948     2390.5888     -41953122       1378.4718      1378.4718      1378.4718      1310.7641      2689.2359      1310.7641      2689.2359      1310.7641      2689.2359      2.6193507e+09  0.5            31560300       0.042199164    7256.2558      14512.553      6.99292      
  62710800   1244.8288      1.0842108     -41955568       0.26755948     3706.8877     -41951861       1378.4718      1378.4718      1378.4718      1310.7641      2689.2359      1310.7641      2689.2359      1310.7641      2689.2359      2.6193507e+09  0.5            31560400       0.056002393    7244.7095      14489.4        6.9445294    
  62711000   1932.193       1.0528703     -41955632       0.26755948     5753.7408     -41949879       1378.4718      1378.4718      1378.4718      1310.7641      2689.2359      1310.7641      2689.2359      1310.7641      2689.2359      2.6193507e+09  0.5            31560500       0.069848293    7222.3692      14444.774      6.9151599    
  62711200   2942.3456      1.007108      -41955708       0.26755948     8761.8029     -41946946       1378.4718      1378.4718      1378.4718      1310.7641      2689.2359      1310.7641      2689.2359      1310.7641      2689.2359      2.6193507e+09  0.5            31560600       0.083654407    7243.1342      14486.263      6.8877007    
  62711400   4295.494       0.97595943    -41955795       0.26755948     12791.248     -41943004       1378.4718      1378.4718      1378.4718      1310.7641      2689.2359      1310.7641      2689.2359      1310.7641      2689.2359      2.6193507e+09  0.5            31560700       0.097534065    7204.8051      14409.645      6.8693112    
  62711600   5849.566       0.95105928    -41955887       0.26755948     17419.009     -41938468       1378.4718      1378.4718      1378.4718      1310.7641      2689.2359      1310.7641      2689.2359      1310.7641      2689.2359      2.6193507e+09  0.5            31560800       0.11129001     7269.6201      14539.205      6.844445     
  62711800   7220.4248      0.88395007    -41955979       0.26755948     21501.192     -41934478       1378.4718      1378.4718      1378.4718      1310.7641      2689.2359      1310.7641      2689.2359      1310.7641      2689.2359      2.6193507e+09  0.5            31560900       0.12508962     7246.621       14493.204      6.8244277    
  62712000   7965.8621      0.78587066    -41956065       0.26755948     23720.977     -41932344       1378.4718      1378.4718      1378.4718      1310.7641      2689.2359      1310.7641      2689.2359      1310.7641      2689.2359      2.6193507e+09  0.5            31561000       0.13888425     7249.1851      14498.4        6.805416     
  62712200   8241.4928      0.54899961    -41970897       0.26755948     24541.758     -41946355       1378.4718      1378.4718      1378.4718      1310.7641      2689.2359      1310.7641      2689.2359      1310.7641      2689.2359      2.6193507e+09  0.5            31561100       0.15297492     7096.9188      14193.843      6.8005082    
  62712400   8839.5053      0.49831424    -41963580       0.26755948     26322.537     -41937257       1378.4718      1378.4718      1378.4718      1310.7641      2689.2359      1310.7641      2689.2359      1310.7641      2689.2359      2.6193507e+09  0.5            31561200       0.16673709     7266.2764      14532.551      6.7807117    
  62712600   9965.6545      0.38348387    -41963627       0.26755948     29676.017     -41933951       1378.4718      1378.4718      1378.4718      1310.7641      2689.2359      1310.7641      2689.2359      1310.7641      2689.2359      2.6193507e+09  0.5            31561300       0.18050564     7262.921       14525.848      6.7620839    
  62712800   10955.571      0.27929619    -41963657       0.26755948     32623.821     -41931034       1378.4718      1378.4718      1378.4718      1310.7641      2689.2359      1310.7641      2689.2359      1310.7641      2689.2359      2.6193507e+09  0.5            31561400       0.19444879     7172.0175      14344.001      6.750209     
  62713000   11423.251      0.16080201    -41963661       0.26755948     34016.49      -41929645       1378.4718      1378.4718      1378.4718      1310.7641      2689.2359      1310.7641      2689.2359      1310.7641      2689.2359      2.6193507e+09  0.5            31561500       0.20822534     7258.6755      14517.369      6.7326755    
  62713200   11841.076      0.052202883   -41963644       0.26755948     35260.702     -41928383       1378.4718      1378.4718      1378.4718      1310.7641      2689.2359      1310.7641      2689.2359      1310.7641      2689.2359      2.6193507e+09  0.5            31561600       0.22340927     6585.9185      13171.835      6.7581828    
  62713400   12746.737      0.021289584   -41956220       0.26755948     37957.605     -41918262       1378.4718      1378.4718      1378.4718      1310.7641      2689.2359      1310.7641      2689.2359      1310.7641      2689.2359      2.6193507e+09  0.5            31561700       0.23746975     7112.1262      14224.232      6.7469844    
  62713600   13849.479     -0.064747256   -41956150       0.26755948     41241.383     -41914908       1378.4718      1378.4718      1378.4718      1310.7641      2689.2359      1310.7641      2689.2359      1310.7641      2689.2359      2.6193507e+09  0.5            31561800       0.2512509      7256.2811      14512.612      6.7279872    
  62713800   14543.706     -0.12952984    -41948677       0.26755948     43308.672     -41905368       1378.4718      1378.4718      1378.4718      1310.7641      2689.2359      1310.7641      2689.2359      1310.7641      2689.2359      2.6193507e+09  0.5            31561900       0.2650135      7266.0415      14532.028      6.7090719    
  62714000   14913.596     -0.23898036    -41948558       0.26755948     44410.142     -41904148       1378.4718      1378.4718      1378.4718      1310.7641      2689.2359      1310.7641      2689.2359      1310.7641      2689.2359      2.6193507e+09  0.5            31562000       0.27880131     7252.835       14505.669      6.6912728    
  62714200   15582.92      -0.2978473     -41948410       0.26755948     46403.274     -41902006       1378.4718      1378.4718      1378.4718      1310.7641      2689.2359      1310.7641      2689.2359      1310.7641      2689.2359      2.6193507e+09  0.5            31562100       0.29287664     7104.6271      14209.287      6.6804157    
  62714400   16668.27      -0.35858076    -41948234       0.26755948     49635.261     -41898598       1378.4718      1378.4718      1378.4718      1310.7641      2689.2359      1310.7641      2689.2359      1310.7641      2689.2359      2.6193507e+09  0.5            31562200       0.3071405      7010.6754      14021.393      6.6733642    
  62714600   17584.923     -0.41939011    -41948031       0.26755948     52364.898     -41895666       1378.4718      1378.4718      1378.4718      1310.7641      2689.2359      1310.7641      2689.2359      1310.7641      2689.2359      2.6193507e+09  0.5            31562300       0.32093632     7248.5955      14497.146      6.6559764    
  62714800   18038.262     -0.41602079    -41933050       0.26755948     53714.864     -41879335       1378.4718      1378.4718      1378.4718      1310.7641      2689.2359      1310.7641      2689.2359      1310.7641      2689.2359      2.6193507e+09  0.5            31562400       0.33474097     7243.9475      14487.927      6.6390633    
  62715000   18512.807     -0.5230329     -41932806       0.26755948     55127.979     -41877678       1378.4718      1378.4718      1378.4718      1310.7641      2689.2359      1310.7641      2689.2359      1310.7641      2689.2359      2.6193507e+09  0.5            31562500       0.34855077     7241.2455      14482.496      6.6224968    
  62715200   19456.332     -0.62503428    -41932537       0.26755948     57937.634     -41874599       1378.4718      1378.4718      1378.4718      1310.7641      2689.2359      1310.7641      2689.2359      1310.7641      2689.2359      2.6193507e+09  0.5            31562600       0.36264424     7095.4771      14190.896      6.6113155    
  62715400   20524.812     -0.71489708    -41932246       0.26755948     61119.386     -41871127       1378.4718      1378.4718      1378.4718      1310.7641      2689.2359      1310.7641      2689.2359      1310.7641      2689.2359      2.6193507e+09  0.5            31562700       0.37649137     7221.735       14443.461      6.5956017    
  62715600   21163.765     -0.74033588    -41931935       0.26755948     63022.078     -41868913       1378.4718      1378.4718      1378.4718      1310.7641      2689.2359      1310.7641      2689.2359      1310.7641      2689.2359      2.6193507e+09  0.5            31562800       0.39051236     7132.1421      14264.305      6.5829518    
  62715800   21544.214     -0.79555825    -41931612       0.26755948     64154.99      -41867457       1378.4718      1378.4718      1378.4718      1310.7641      2689.2359      1310.7641      2689.2359      1310.7641      2689.2359      2.6193507e+09  0.5            31562900       0.40429388     7256.1121      14512.229      6.5663182    
  62716000   22274.087     -0.82171659    -41923904       0.26755948     66328.428     -41857576       1378.4718      1378.4718      1378.4718      1310.7641      2689.2359      1310.7641      2689.2359      1310.7641      2689.2359      2.6193507e+09  0.5            31563000       0.41849934     7039.5413      14079.094      6.5565168    
  62716200   23372.182     -0.88107653    -41923561       0.26755948     69598.368     -41853962       1378.4718      1378.4718      1378.4718      1310.7641      2689.2359      1310.7641      2689.2359      1310.7641      2689.2359      2.6193507e+09  0.5            31563100       0.43241568     7185.7953      14371.577      6.5420568    
  62716400   24233.141     -0.96643836    -41923204       0.26755948     72162.154     -41851042       1378.4718      1378.4718      1378.4718      1310.7641      2689.2359      1310.7641      2689.2359      1310.7641      2689.2359      2.6193507e+09  0.5            31563200       0.44627061     7217.6438      14435.27       6.5267336    
  62716600   24653.442     -1.0814385     -41930229       0.26755948     73413.741     -41856816       1378.4718      1378.4718      1378.4718      1310.7641      2689.2359      1310.7641      2689.2359      1310.7641      2689.2359      2.6193507e+09  0.5            31563300       0.46042971     7062.5773      14125.195      6.5158026    
  62716800   25169.329     -1.1592101     -41929874       0.26755948     74949.962     -41854924       1378.4718      1378.4718      1378.4718      1310.7641      2689.2359      1310.7641      2689.2359      1310.7641      2689.2359      2.6193507e+09  0.5            31563400       0.47433269     7192.7171      14385.444      6.5011716    
  62717000   26159.269     -1.2038389     -41929505       0.26755948     77897.836     -41851607       1378.4718      1378.4718      1378.4718      1310.7641      2689.2359      1310.7641      2689.2359      1310.7641      2689.2359      2.6193507e+09  0.5            31563500       0.48839245     7112.5106      14225.004      6.4886648    
  62717200   27202.637     -1.2499043     -41936493       0.26755948     81004.809     -41855488       1378.4718      1378.4718      1378.4718      1310.7641      2689.2359      1310.7641      2689.2359      1310.7641      2689.2359      2.6193507e+09  0.5            31563600       0.50263994     7018.7639      14037.547      6.4784922    
  62717400   27786.383     -1.380926      -41950849       0.26755948     82743.105     -41868106       1378.4718      1378.4718      1378.4718      1310.7641      2689.2359      1310.7641      2689.2359      1310.7641      2689.2359      2.6193507e+09  0.5            31563700       0.51655002     7189.0369      14378.014      6.4638777    
  62717600   28168.502     -1.5018736     -41957817       0.26755948     83880.988     -41873936       1378.4718      1378.4718      1378.4718      1310.7641      2689.2359      1310.7641      2689.2359      1310.7641      2689.2359      2.6193507e+09  0.5            31563800       0.5304117      7214.1172      14428.282      6.4487108    
  62717800   28950.693     -1.4775817     -41957378       0.26755948     86210.22      -41871168       1378.4718      1378.4718      1378.4718      1310.7641      2689.2359      1310.7641      2689.2359      1310.7641      2689.2359      2.6193507e+09  0.5            31563900       0.54454611     7074.9468      14149.855      6.4368349    
  62718000   30067.467     -1.5319137     -41964298       0.26755948     89535.783     -41874762       1378.4718      1378.4718      1378.4718      1310.7641      2689.2359      1310.7641      2689.2359      1310.7641      2689.2359      2.6193507e+09  0.5            31564000       0.55846629     7183.8296      14367.697      6.4223816    
  62718200   30881.354     -1.4770956     -41956438       0.26755948     91959.399     -41864479       1378.4718      1378.4718      1378.4718      1310.7641      2689.2359      1310.7641      2689.2359      1310.7641      2689.2359      2.6193507e+09  0.5            31564100       0.57239168     7181.1181      14362.234      6.4080139    
  62718400   31257.924     -1.4160785     -41948538       0.26755948     93080.761     -41855457       1378.4718      1378.4718      1378.4718      1310.7641      2689.2359      1310.7641      2689.2359      1310.7641      2689.2359      2.6193507e+09  0.5            31564200       0.58675466     6962.3314      13924.636      6.398439     
  62718600   31808.129     -1.4923532     -41955351       0.26755948     94719.177     -41860632       1378.4718      1378.4718      1378.4718      1310.7641      2689.2359      1310.7641      2689.2359      1310.7641      2689.2359      2.6193507e+09  0.5            31564300       0.6006227      7210.8113      14421.66       6.3833808    
  62718800   32856.724     -1.4079002     -41954740       0.26755948     97841.714     -41856899       1378.4718      1378.4718      1378.4718      1310.7641      2689.2359      1310.7641      2689.2359      1310.7641      2689.2359      2.6193507e+09  0.5            31564400       0.61450252     7204.7106      14409.395      6.368499     
  62719000   33880.824     -1.4005669     -41954080       0.26755948     100891.31     -41853189       1378.4718      1378.4718      1378.4718      1310.7641      2689.2359      1310.7641      2689.2359      1310.7641      2689.2359      2.6193507e+09  0.5            31564500       0.62867434     7056.2383      14112.515      6.3566139    
  62719200   34401.272     -1.4123173     -41953376       0.26755948     102441.12     -41850935       1378.4718      1378.4718      1378.4718      1310.7641      2689.2359      1310.7641      2689.2359      1310.7641      2689.2359      2.6193507e+09  0.5            31564600       0.6427785      7090.1284      14180.22       6.343962     
  62719400   34787.088     -1.4801905     -41960014       0.26755948     103590.01     -41856424       1378.4718      1378.4718      1378.4718      1310.7641      2689.2359      1310.7641      2689.2359      1310.7641      2689.2359      2.6193507e+09  0.5            31564700       0.6570867      6988.9661      13976.897      6.3332255    
  62719600   35642.213     -1.4255278     -41959246       0.26755948     106136.42     -41853110       1378.4718      1378.4718      1378.4718      1310.7641      2689.2359      1310.7641      2689.2359      1310.7641      2689.2359      2.6193507e+09  0.5            31564800       0.6709449      7215.9756      14433.06       6.3180812    
  62719800   36774.242     -1.2759985     -41958450       0.26755948     109507.41     -41848943       1378.4718      1378.4718      1378.4718      1310.7641      2689.2359      1310.7641      2689.2359      1310.7641      2689.2359      2.6193507e+09  0.5            31564900       0.68488987     7171.047       14342.077      6.3037984    
  62720000   37521.607     -1.1107735     -41957637       0.26755948     111732.94     -41845905       1378.4718      1378.4718      1378.4718      1310.7641      2689.2359      1310.7641      2689.2359      1310.7641      2689.2359      2.6193507e+09  0.5            31565000       0.69921117     6982.62        13965.201      6.2929166    
  62720200   37870.735     -1.0000217     -41949427       0.26755948     112772.58     -41836654       1378.4718      1378.4718      1378.4718      1310.7641      2689.2359      1310.7641      2689.2359      1310.7641      2689.2359      2.6193507e+09  0.5            31565100       0.71313387     7182.5144      14365.117      6.2783896    
  62720400   38483.408     -0.91628471    -41948578       0.26755948     114597.02     -41833981       1378.4718      1378.4718      1378.4718      1310.7641      2689.2359      1310.7641      2689.2359      1310.7641      2689.2359      2.6193507e+09  0.5            31565200       0.72699355     7215.1712      14430.293      6.263344     
  62720600   39580.162     -0.69862571    -41940334       0.26755948     117862.96     -41822471       1378.4718      1378.4718      1378.4718      1310.7641      2689.2359      1310.7641      2689.2359      1310.7641      2689.2359      2.6193507e+09  0.5            31565300       0.74112638     7075.7202      14151.452      6.2506466    
  62720800   40555.003     -0.5308383     -41932070       0.26755948     120765.87     -41811304       1378.4718      1378.4718      1378.4718      1310.7641      2689.2359      1310.7641      2689.2359      1310.7641      2689.2359      2.6193507e+09  0.5            31565400       0.75496467     7226.3452      14452.701      6.2354629    
  62721000   41014.829     -0.38249171    -41923802       0.26755948     122135.16     -41801667       1378.4718      1378.4718      1378.4718      1310.7641      2689.2359      1310.7641      2689.2359      1310.7641      2689.2359      2.6193507e+09  0.5            31565500       0.7691185      7065.2055      14130.44       6.2228819    
  62721200   41432.901     -0.26944069    -41922900       0.26755948     123380.1      -41799520       1378.4718      1378.4718      1378.4718      1310.7641      2689.2359      1310.7641      2689.2359      1310.7641      2689.2359      2.6193507e+09  0.5            31565600       0.78302685     7189.9312      14379.8        6.2082983    
  62721400   42362.583     -0.07678948    -41921990       0.26755948     126148.54     -41795842       1378.4718      1378.4718      1378.4718      1310.7641      2689.2359      1310.7641      2689.2359      1310.7641      2689.2359      2.6193507e+09  0.5            31565700       0.79706803     7121.8949      14243.848      6.1947703    
  62721600   43482.695      0.18702881    -41913692       0.26755948     129484.04     -41784208       1378.4718      1378.4718      1378.4718      1310.7641      2689.2359      1310.7641      2689.2359      1310.7641      2689.2359      2.6193507e+09  0.5            31565800       0.81156214     6899.3476      13798.651      6.184677     
  62721800   44152.549      0.34998348    -41920141       0.26755948     131478.75     -41788662       1378.4718      1378.4718      1378.4718      1310.7641      2689.2359      1310.7641      2689.2359      1310.7641      2689.2359      2.6193507e+09  0.5            31565900       0.82589271     6978.0949      13956.121      6.1732124    
  62722000   44488.314      0.47646625    -41911818       0.26755948     132478.6      -41779339       1378.4718      1378.4718      1378.4718      1310.7641      2689.2359      1310.7641      2689.2359      1310.7641      2689.2359      2.6193507e+09  0.5            31566000       0.83981125     7184.6983      14369.479      6.1586284    
  62722200   45184.658      0.5084827     -41910848       0.26755948     134552.2      -41776296       1378.4718      1378.4718      1378.4718      1310.7641      2689.2359      1310.7641      2689.2359      1310.7641      2689.2359      2.6193507e+09  0.5            31566100       0.85402984     7033.0051      14066.046      6.1462273    
  62722400   46324.761      0.7195426     -41902465       0.26755948     137947.23     -41764518       1378.4718      1378.4718      1378.4718      1310.7641      2689.2359      1310.7641      2689.2359      1310.7641      2689.2359      2.6193507e+09  0.5            31566200       0.8678913      7214.2676      14428.483      6.1312444    
  62722600   47222.733      0.99280344    -41901411       0.26755948     140621.24     -41760790       1378.4718      1378.4718      1378.4718      1310.7641      2689.2359      1310.7641      2689.2359      1310.7641      2689.2359      2.6193507e+09  0.5            31566300       0.8819839      7095.9197      14191.885      6.1179002    
  62722800   47630.042      1.0326854     -41900310       0.26755948     141834.13     -41758476       1378.4718      1378.4718      1378.4718      1310.7641      2689.2359      1310.7641      2689.2359      1310.7641      2689.2359      2.6193507e+09  0.5            31566400       0.8960093      7129.9021      14259.768      6.1040756    
  62723000   48124.3        1.0669554     -41906512       0.26755948     143305.95     -41763206       1378.4718      1378.4718      1378.4718      1310.7641      2689.2359      1310.7641      2689.2359      1310.7641      2689.2359      2.6193507e+09  0.5            31566500       0.90985997     7219.896       14439.741      6.0890747    
  62723200   49182.303      1.1673649     -41912631       0.26755948     146456.5      -41766175       1378.4718      1378.4718      1378.4718      1310.7641      2689.2359      1310.7641      2689.2359      1310.7641      2689.2359      2.6193507e+09  0.5            31566600       0.92403436     7054.9534      14109.986      6.0762375    
  62723400   50250.224      1.207069      -41926031       0.26755948     149636.59     -41776395       1378.4718      1378.4718      1378.4718      1310.7641      2689.2359      1310.7641      2689.2359      1310.7641      2689.2359      2.6193507e+09  0.5            31566700       0.93784876     7238.8374      14477.705      6.0610336    
  62723600   50832.582      1.2006123     -41946723       0.26755948     151370.75     -41795352       1378.4718      1378.4718      1378.4718      1310.7641      2689.2359      1310.7641      2689.2359      1310.7641      2689.2359      2.6193507e+09  0.5            31566800       0.95198435     7074.3526      14148.676      6.0479112    
  62723800   51484.374      1.3549775     -41937826       0.26755948     153311.68     -41784514       1378.4718      1378.4718      1378.4718      1310.7641      2689.2359      1310.7641      2689.2359      1310.7641      2689.2359      2.6193507e+09  0.5            31566900       0.96584833     7212.9256      14425.77       6.0330643    
  62724000   53112.215      1.4685417     -41943581       0.26755948     158159.11     -41785422       1378.4718      1378.4718      1378.4718      1310.7641      2689.2359      1310.7641      2689.2359      1310.7641      2689.2359      2.6193507e+09  0.5            31567000       0.98006209     7035.4133      14070.88       6.0203923    
  62724200   54204.618      1.6210003     -41941861       0.26755948     161412.1      -41780449       1378.4718      1378.4718      1378.4718      1310.7641      2689.2359      1310.7641      2689.2359      1310.7641      2689.2359      2.6193507e+09  0.5            31567100       0.99423936     7053.5835      14107.202      6.0074564    
  62724400   53133.585      1.7623363     -41932708       0.26755948     158222.74     -41774485       1378.4718      1378.4718      1378.4718      1310.7641      2689.2359      1310.7641      2689.2359      1310.7641      2689.2359      2.6193507e+09  0.5            31567200       1.0080589      7236.1298      14472.252      5.9923603    
  62724600   51398.516      1.779825      -41930939       0.26755948     153056        -41777883       1378.4718      1378.4718      1378.4718      1310.7641      2689.2359      1310.7641      2689.2359      1310.7641      2689.2359      2.6193507e+09  0.5            31567300       1.0221729      7085.1767      14170.345      5.979021     
  62724800   54113.431      1.9500119     -41936537       0.26755948     161140.56     -41775396       1378.4718      1378.4718      1378.4718      1310.7641      2689.2359      1310.7641      2689.2359      1310.7641      2689.2359      2.6193507e+09  0.5            31567400       1.0359861      7239.4264      14478.853      5.9639299    
  62725000   55805.008      2.0903539     -41934736       0.26755948     166177.78     -41768558       1378.4718      1378.4718      1378.4718      1310.7641      2689.2359      1310.7641      2689.2359      1310.7641      2689.2359      2.6193507e+09  0.5            31567500       1.0501154      7077.511       14154.982      5.950664     
  62725200   56496.418      2.0966077     -41940333       0.26755948     168236.69     -41772096       1378.4718      1378.4718      1378.4718      1310.7641      2689.2359      1310.7641      2689.2359      1310.7641      2689.2359      2.6193507e+09  0.5            31567600       1.0639894      7207.7277      14415.493      5.9359503    
  62725400   57516.517      2.0932351     -41938619       0.26755948     171274.37     -41767345       1378.4718      1378.4718      1378.4718      1310.7641      2689.2359      1310.7641      2689.2359      1310.7641      2689.2359      2.6193507e+09  0.5            31567700       1.078115       7079.3298      14158.671      5.9226412    
  62725600   59246.161      2.0928128     -41944364       0.26755948     176424.95     -41767939       1378.4718      1378.4718      1378.4718      1310.7641      2689.2359      1310.7641      2689.2359      1310.7641      2689.2359      2.6193507e+09  0.5            31567800       1.0921318      7134.3077      14268.596      5.9087223    
  62725800   60810.778      2.1078495     -41942835       0.26755948     181084.11     -41761751       1378.4718      1378.4718      1378.4718      1310.7641      2689.2359      1310.7641      2689.2359      1310.7641      2689.2359      2.6193507e+09  0.5            31567900       1.1063004      7057.8364      14115.684      5.8956103    
  62726000   60150.033      1.9949206     -41941452       0.26755948     179116.53     -41762336       1378.4718      1378.4718      1378.4718      1310.7641      2689.2359      1310.7641      2689.2359      1310.7641      2689.2359      2.6193507e+09  0.5            31568000       1.1201481      7221.4367      14442.867      5.8807863    
  62726200   57367.486      1.6490868     -41940266       0.26755948     170830.58     -41769435       1378.4718      1378.4718      1378.4718      1310.7641      2689.2359      1310.7641      2689.2359      1310.7641      2689.2359      2.6193507e+09  0.5            31568100       1.1343098      7061.2702      14122.522      5.8676118    
  62726400   59184.636      1.7975615     -41917185       0.26755948     176241.74     -41740943       1378.4718      1378.4718      1378.4718      1310.7641      2689.2359      1310.7641      2689.2359      1310.7641      2689.2359      2.6193507e+09  0.5            31568200       1.1481314      7235.1021      14470.199      5.8526784    
  62726600   61986.523      1.7232697     -41909069       0.26755948     184585.28     -41724484       1378.4718      1378.4718      1378.4718      1310.7641      2689.2359      1310.7641      2689.2359      1310.7641      2689.2359      2.6193507e+09  0.5            31568300       1.1622165      7099.7046      14199.428      5.8390961    
  62726800   62512.899      1.5176829     -41908552       0.26755948     186152.74     -41722400       1378.4718      1378.4718      1378.4718      1310.7641      2689.2359      1310.7641      2689.2359      1310.7641      2689.2359      2.6193507e+09  0.5            31568400       1.1759057      7305.0096      14610.004      5.8235413    
  62727000   62988.805      1.2532183     -41908257       0.26755948     187569.9      -41720687       1378.4718      1378.4718      1378.4718      1310.7641      2689.2359      1310.7641      2689.2359      1310.7641      2689.2359      2.6193507e+09  0.5            31568500       1.1900365      7076.6976      14153.398      5.8101872    
  62727200   64976.735      1.0039585     -41908156       0.26755948     193489.62     -41714666       1378.4718      1378.4718      1378.4718      1310.7641      2689.2359      1310.7641      2689.2359      1310.7641      2689.2359      2.6193507e+09  0.5            31568600       1.2037798      7276.3411      14552.674      5.7949482    
  62727400   67235          0.80974511    -41908233       0.26755948     200214.35     -41708019       1378.4718      1378.4718      1378.4718      1310.7641      2689.2359      1310.7641      2689.2359      1310.7641      2689.2359      2.6193507e+09  0.5            31568700       1.2177897      7137.7863      14275.598      5.78101      
  62727600   64860.289      0.25672426    -41915851       0.26755948     193142.86     -41722708       1378.4718      1378.4718      1378.4718      1310.7641      2689.2359      1310.7641      2689.2359      1310.7641      2689.2359      2.6193507e+09  0.5            31568800       1.2315273      7279.3094      14558.627      5.7657946    
  62727800   62711.482     -0.24545286    -41916207       0.26755948     186744.09     -41729463       1378.4718      1378.4718      1378.4718      1310.7641      2689.2359      1310.7641      2689.2359      1310.7641      2689.2359      2.6193507e+09  0.5            31568900       1.2455329      7139.9981      14279.989      5.7518506    
  62728000   65649.227     -0.44639728    -41916672       0.26755948     195492.19     -41721180       1378.4718      1378.4718      1378.4718      1310.7641      2689.2359      1310.7641      2689.2359      1310.7641      2689.2359      2.6193507e+09  0.5            31569000       1.259282       7273.1711      14546.341      5.7367369    
  62728200   67527.594     -0.69063491    -41917231       0.26755948     201085.65     -41716145       1378.4718      1378.4718      1378.4718      1310.7641      2689.2359      1310.7641      2689.2359      1310.7641      2689.2359      2.6193507e+09  0.5            31569100       1.2733652      7100.6453      14201.288      5.7231548    
  62728400   68553.041     -0.98212013    -41910441       0.26755948     204139.25     -41706301       1378.4718      1378.4718      1378.4718      1310.7641      2689.2359      1310.7641      2689.2359      1310.7641      2689.2359      2.6193507e+09  0.5            31569200       1.287252       7201.0747      14402.142      5.7086906    
  62728600   69385.335     -1.4880295     -41925762       0.26755948     206617.68     -41719145       1378.4718      1378.4718      1378.4718      1310.7641      2689.2359      1310.7641      2689.2359      1310.7641      2689.2359      2.6193507e+09  0.5            31569300       1.3012898      7123.6726      14247.383      5.6948992    
  62728800   70477.261     -1.8421275     -41926289       0.26755948     209869.25     -41716420       1378.4718      1378.4718      1378.4718      1310.7641      2689.2359      1310.7641      2689.2359      1310.7641      2689.2359      2.6193507e+09  0.5            31569400       1.3150425      7271.2873      14542.566      5.6798717    
  62729000   71490.81      -2.1930142     -41926717       0.26755948     212887.42     -41713830       1378.4718      1378.4718      1378.4718      1310.7641      2689.2359      1310.7641      2689.2359      1310.7641      2689.2359      2.6193507e+09  0.5            31569500       1.3290819      7122.8049      14245.584      5.6660934    
  62729200   71052.759     -2.4978805     -41912278       0.26755948     211582.98     -41700695       1378.4718      1378.4718      1378.4718      1310.7641      2689.2359      1310.7641      2689.2359      1310.7641      2689.2359      2.6193507e+09  0.5            31569600       1.3428758      7249.5866      14499.204      5.6512761    
  62729400   70341.192     -3.0008387     -41919853       0.26755948     209464.06     -41710389       1378.4718      1378.4718      1378.4718      1310.7641      2689.2359      1310.7641      2689.2359      1310.7641      2689.2359      2.6193507e+09  0.5            31569700       1.3568895      7135.9063      14271.778      5.6373932    
  62729600   72890.774     -3.3529211     -41934697       0.26755948     217056.28     -41717640       1378.4718      1378.4718      1378.4718      1310.7641      2689.2359      1310.7641      2689.2359      1310.7641      2689.2359      2.6193507e+09  0.5            31569800       1.3706478      7268.3235      14536.671      5.62246      
  62729800   75868.276     -3.5913294     -41927266       0.26755948     225922.77     -41701343       1378.4718      1378.4718      1378.4718      1310.7641      2689.2359      1310.7641      2689.2359      1310.7641      2689.2359      2.6193507e+09  0.5            31569900       1.3846867      7123.053       14246.046      5.6086875    
  62730000   74304.743     -3.9288951     -41912295       0.26755948     221266.84     -41691029       1378.4718      1378.4718      1378.4718      1310.7641      2689.2359      1310.7641      2689.2359      1310.7641      2689.2359      2.6193507e+09  0.5            31570000       1.3987322      7119.6942      14239.436      5.5949357    
  62730200   71315.865     -4.477114      -41919314       0.26755948     212366.47     -41706948       1378.4718      1378.4718      1378.4718      1310.7641      2689.2359      1310.7641      2689.2359      1310.7641      2689.2359      2.6193507e+09  0.5            31570100       1.4128202      7098.2255      14196.458      5.5813462    
  62730400   73560.117     -4.746556      -41918819       0.26755948     219049.47     -41699770       1378.4718      1378.4718      1378.4718      1310.7641      2689.2359      1310.7641      2689.2359      1310.7641      2689.2359      2.6193507e+09  0.5            31570200       1.4269338      7085.4147      14170.835      5.5678462    
  62730600   78140.803     -4.9365126     -41925548       0.26755948     232689.97     -41692858       1378.4718      1378.4718      1378.4718      1310.7641      2689.2359      1310.7641      2689.2359      1310.7641      2689.2359      2.6193507e+09  0.5            31570300       1.4406835      7272.8823      14545.708      5.5529324    
  62730800   77822.642     -5.2835204     -41917384       0.26755948     231742.54     -41685641       1378.4718      1378.4718      1378.4718      1310.7641      2689.2359      1310.7641      2689.2359      1310.7641      2689.2359      2.6193507e+09  0.5            31570400       1.4547103      7129.19        14258.383      5.5391315    
  62731000   76034.787     -5.6024664     -41916505       0.26755948     226418.61     -41690087       1378.4718      1378.4718      1378.4718      1310.7641      2689.2359      1310.7641      2689.2359      1310.7641      2689.2359      2.6193507e+09  0.5            31570500       1.4685276      7237.3443      14474.713      5.5244672    
  62731200   77459.496     -5.797087      -41908165       0.26755948     230661.15     -41677504       1378.4718      1378.4718      1378.4718      1310.7641      2689.2359      1310.7641      2689.2359      1310.7641      2689.2359      2.6193507e+09  0.5            31570600       1.4825995      7106.322       14212.627      5.5108009    
  62731400   81487.97      -5.8080648     -41899747       0.26755948     242657.26     -41657089       1378.4718      1378.4718      1378.4718      1310.7641      2689.2359      1310.7641      2689.2359      1310.7641      2689.2359      2.6193507e+09  0.5            31570700       1.4966066      7139.2661      14278.566      5.4968884    
  62731600   80830.982     -6.1167057     -41898673       0.26755948     240700.86     -41657972       1378.4718      1378.4718      1378.4718      1310.7641      2689.2359      1310.7641      2689.2359      1310.7641      2689.2359      2.6193507e+09  0.5            31570800       1.5107221      7084.3676      14168.733      5.483368     
  62731800   79287.096     -6.2808495     -41882862       0.26755948     236103.43     -41646759       1378.4718      1378.4718      1378.4718      1310.7641      2689.2359      1310.7641      2689.2359      1310.7641      2689.2359      2.6193507e+09  0.5            31570900       1.5244816      7267.7239      14535.443      5.4685594    
  62732000   81735.896     -6.3886725     -41881799       0.26755948     243395.54     -41638404       1378.4718      1378.4718      1378.4718      1310.7641      2689.2359      1310.7641      2689.2359      1310.7641      2689.2359      2.6193507e+09  0.5            31571000       1.5385031      7131.9102      14263.799      5.454699     
  62732200   86442.919     -6.2235004     -41880663       0.26755948     257412.25     -41623251       1378.4718      1378.4718      1378.4718      1310.7641      2689.2359      1310.7641      2689.2359      1310.7641      2689.2359      2.6193507e+09  0.5            31571100       1.5525977      7094.9294      14189.888      5.4410915    
  62732400   83115.131     -6.6687231     -41886882       0.26755948     247502.67     -41639379       1378.4718      1378.4718      1378.4718      1310.7641      2689.2359      1310.7641      2689.2359      1310.7641      2689.2359      2.6193507e+09  0.5            31571200       1.5663901      7250.3356      14500.674      5.4264288    
  62732600   81132.424     -6.916601      -41878381       0.26755948     241598.5      -41636782       1378.4718      1378.4718      1378.4718      1310.7641      2689.2359      1310.7641      2689.2359      1310.7641      2689.2359      2.6193507e+09  0.5            31571300       1.5804499      7112.4671      14224.924      5.4126973    
  62732800   84090.977     -6.9050631     -41877241       0.26755948     250408.57     -41626832       1378.4718      1378.4718      1378.4718      1310.7641      2689.2359      1310.7641      2689.2359      1310.7641      2689.2359      2.6193507e+09  0.5            31571400       1.5943821      7177.6524      14355.278      5.3985278    
  62733000   86557.388     -6.7037367     -41861310       0.26755948     257753.12     -41603557       1378.4718      1378.4718      1378.4718      1310.7641      2689.2359      1310.7641      2689.2359      1310.7641      2689.2359      2.6193507e+09  0.5            31571500       1.6084909      7087.7464      14175.505      5.3849537    
  62733200   85814.136     -6.9374851     -41860120       0.26755948     255539.84     -41604580       1378.4718      1378.4718      1378.4718      1310.7641      2689.2359      1310.7641      2689.2359      1310.7641      2689.2359      2.6193507e+09  0.5            31571600       1.6228693      6954.9024      13909.818      5.3722626    
  62733400   85704.677     -6.9475969     -41844148       0.26755948     255213.89     -41588934       1378.4718      1378.4718      1378.4718      1310.7641      2689.2359      1310.7641      2689.2359      1310.7641      2689.2359      2.6193507e+09  0.5            31571700       1.6366179      7273.4477      14546.873      5.3574815    
  62733600   88650.774     -6.7986503     -41835523       0.26755948     263986.87     -41571536       1378.4718      1378.4718      1378.4718      1310.7641      2689.2359      1310.7641      2689.2359      1310.7641      2689.2359      2.6193507e+09  0.5            31571800       1.6506564      7123.2945      14246.617      5.3436559    
  62733800   92303.782     -6.5010237     -41819438       0.26755948     274864.9      -41544573       1378.4718      1378.4718      1378.4718      1310.7641      2689.2359      1310.7641      2689.2359      1310.7641      2689.2359      2.6193507e+09  0.5            31571900       1.664695       7123.2098      14246.436      5.3298271    
  62734000   88110.292     -6.5705527     -41788551       0.26755948     262377.4      -41526174       1378.4718      1378.4718      1378.4718      1310.7641      2689.2359      1310.7641      2689.2359      1310.7641      2689.2359      2.6193507e+09  0.5            31572000       1.6785898      7196.9473      14393.883      5.3155396    
  62734200   83950.426     -6.8319728     -41787174       0.26755948     249990.03     -41537184       1378.4718      1378.4718      1378.4718      1310.7641      2689.2359      1310.7641      2689.2359      1310.7641      2689.2359      2.6193507e+09  0.5            31572100       1.6929228      6976.8884      13953.77       5.3026313    
  62734400   87546.4       -6.7114491     -41793135       0.26755948     260698.23     -41532436       1378.4718      1378.4718      1378.4718      1310.7641      2689.2359      1310.7641      2689.2359      1310.7641      2689.2359      2.6193507e+09  0.5            31572200       1.7067184      7248.6659      14497.287      5.2880348    
  62734600   91381         -6.6635395     -41776876       0.26755948     272117.02     -41504759       1378.4718      1378.4718      1378.4718      1310.7641      2689.2359      1310.7641      2689.2359      1310.7641      2689.2359      2.6193507e+09  0.5            31572300       1.7207213      7141.3901      14282.806      5.2740862    
  62734800   93147.577     -6.6792839     -41767898       0.26755948     277377.58     -41490521       1378.4718      1378.4718      1378.4718      1310.7641      2689.2359      1310.7641      2689.2359      1310.7641      2689.2359      2.6193507e+09  0.5            31572400       1.7347528      7126.8238      14253.634      5.2602235    
  62735000   92861.742     -6.6385894     -41751456       0.26755948     276526.41     -41474930       1378.4718      1378.4718      1378.4718      1310.7641      2689.2359      1310.7641      2689.2359      1310.7641      2689.2359      2.6193507e+09  0.5            31572500       1.7485443      7250.875       14501.706      5.2456381    
  62735200   92138.722     -6.875628      -41764471       0.26755948     274373.38     -41490098       1378.4718      1378.4718      1378.4718      1310.7641      2689.2359      1310.7641      2689.2359      1310.7641      2689.2359      2.6193507e+09  0.5            31572600       1.7626194      7104.7478      14209.567      5.231907     
  62735400   94713.72      -6.8344847     -41762649       0.26755948     282041.28     -41480608       1378.4718      1378.4718      1378.4718      1310.7641      2689.2359      1310.7641      2689.2359      1310.7641      2689.2359      2.6193507e+09  0.5            31572700       1.7766492      7127.6655      14255.335      5.2180376    
  62735600   97611.944     -6.7197621     -41768108       0.26755948     290671.7      -41477436       1378.4718      1378.4718      1378.4718      1310.7641      2689.2359      1310.7641      2689.2359      1310.7641      2689.2359      2.6193507e+09  0.5            31572800       1.7906226      7156.4677      14312.886      5.2040019    
  62735800   95619.4       -6.8281665     -41758742       0.26755948     284738.24     -41474004       1378.4718      1378.4718      1378.4718      1310.7641      2689.2359      1310.7641      2689.2359      1310.7641      2689.2359      2.6193507e+09  0.5            31572900       1.8047277      7089.5996      14179.234      5.190346     
  62736000   91213.34      -7.1235999     -41764123       0.26755948     271617.75     -41492505       1378.4718      1378.4718      1378.4718      1310.7641      2689.2359      1310.7641      2689.2359      1310.7641      2689.2359      2.6193507e+09  0.5            31573000       1.8189285      7041.8796      14083.799      5.176955     
  62736200   94560.584     -6.9154228     -41762118       0.26755948     281585.27     -41480532       1378.4718      1378.4718      1378.4718      1310.7641      2689.2359      1310.7641      2689.2359      1310.7641      2689.2359      2.6193507e+09  0.5            31573100       1.8327464      7236.9855      14473.947      5.1624735    
  62736400   99070.778     -6.6928163     -41760041       0.26755948     295015.86     -41465025       1378.4718      1378.4718      1378.4718      1310.7641      2689.2359      1310.7641      2689.2359      1310.7641      2689.2359      2.6193507e+09  0.5            31573200       1.8467748      7128.3845      14256.778      5.148589     
  62736600   98907.312     -6.7830179     -41750565       0.26755948     294529.09     -41456036       1378.4718      1378.4718      1378.4718      1310.7641      2689.2359      1310.7641      2689.2359      1310.7641      2689.2359      2.6193507e+09  0.5            31573300       1.8605433      7262.9727      14525.906      5.1339851    
  62736800   98254.242     -6.859838      -41748481       0.26755948     292584.36     -41455896       1378.4718      1378.4718      1378.4718      1310.7641      2689.2359      1310.7641      2689.2359      1310.7641      2689.2359      2.6193507e+09  0.5            31573400       1.8745829      7122.708       14245.415      5.120134     
  62737000   100559.97     -6.8600098     -41739039       0.26755948     299450.42     -41439589       1378.4718      1378.4718      1378.4718      1310.7641      2689.2359      1310.7641      2689.2359      1310.7641      2689.2359      2.6193507e+09  0.5            31573500       1.8888902      6989.4204      13978.884      5.1070041    
  62737200   104181.95     -6.8830821     -41751754       0.26755948     310236.07     -41441518       1378.4718      1378.4718      1378.4718      1310.7641      2689.2359      1310.7641      2689.2359      1310.7641      2689.2359      2.6193507e+09  0.5            31573600       1.9027363      7222.2623      14444.521      5.0926223    
  62737400   102012.77     -7.1587204     -41757131       0.26755948     303776.61     -41453355       1378.4718      1378.4718      1378.4718      1310.7641      2689.2359      1310.7641      2689.2359      1310.7641      2689.2359      2.6193507e+09  0.5            31573700       1.9168198      7100.5253      14201.013      5.0788773    
  62737600   95597.195     -7.5420367     -41740503       0.26755948     284672.12     -41455831       1378.4718      1378.4718      1378.4718      1310.7641      2689.2359      1310.7641      2689.2359      1310.7641      2689.2359      2.6193507e+09  0.5            31573800       1.9309185      7092.8234      14185.653      5.0651677    
  62737800   99432.335     -7.5717271     -41746131       0.26755948     296092.51     -41450039       1378.4718      1378.4718      1378.4718      1310.7641      2689.2359      1310.7641      2689.2359      1310.7641      2689.2359      2.6193507e+09  0.5            31573900       1.9447195      7245.9001      14491.8        5.0506786    
  62738000   103169.46     -7.5310638     -41751820       0.26755948     307221.02     -41444599       1378.4718      1378.4718      1378.4718      1310.7641      2689.2359      1310.7641      2689.2359      1310.7641      2689.2359      2.6193507e+09  0.5            31574000       1.9588249      7089.4362      14178.876      5.0369828    
  62738200   104990.07     -7.6643472     -41757564       0.26755948     312642.49     -41444922       1378.4718      1378.4718      1378.4718      1310.7641      2689.2359      1310.7641      2689.2359      1310.7641      2689.2359      2.6193507e+09  0.5            31574100       1.9726705      7222.5236      14445.039      5.0226194    
  62738400   106431.16     -7.6665244     -41755998       0.26755948     316933.81     -41439064       1378.4718      1378.4718      1378.4718      1310.7641      2689.2359      1310.7641      2689.2359      1310.7641      2689.2359      2.6193507e+09  0.5            31574200       1.9867039      7125.8782      14251.738      5.0087366    
  62738600   106464.64     -7.8346984     -41761860       0.26755948     317033.51     -41444827       1378.4718      1378.4718      1378.4718      1310.7641      2689.2359      1310.7641      2689.2359      1310.7641      2689.2359      2.6193507e+09  0.5            31574300       2.0006158      7188.0618      14376.125      4.9945488    
  62738800   105737.11     -8.0241963     -41760394       0.26755948     314867.07     -41445527       1378.4718      1378.4718      1378.4718      1310.7641      2689.2359      1310.7641      2689.2359      1310.7641      2689.2359      2.6193507e+09  0.5            31574400       2.0147181      7091.0399      14182.133      4.980835     
  62739000   107311.43     -8.0325278     -41758954       0.26755948     319555.12     -41439398       1378.4718      1378.4718      1378.4718      1310.7641      2689.2359      1310.7641      2689.2359      1310.7641      2689.2359      2.6193507e+09  0.5            31574500       2.0286244      7190.9993      14381.95       4.9666365    
  62739200   111171.55     -7.9746119     -41764887       0.26755948     331049.9      -41433837       1378.4718      1378.4718      1378.4718      1310.7641      2689.2359      1310.7641      2689.2359      1310.7641      2689.2359      2.6193507e+09  0.5            31574600       2.0426947      7107.164       14214.273      4.9528394    
  62739400   110614.27     -8.1400862     -41763422       0.26755948     329390.41     -41434032       1378.4718      1378.4718      1378.4718      1310.7641      2689.2359      1310.7641      2689.2359      1310.7641      2689.2359      2.6193507e+09  0.5            31574700       2.056442       7274.1467      14548.35       4.9382629    
  62739600   104695.51     -8.6402593     -41761960       0.26755948     311765.36     -41450195       1378.4718      1378.4718      1378.4718      1310.7641      2689.2359      1310.7641      2689.2359      1310.7641      2689.2359      2.6193507e+09  0.5            31574800       2.0704981      7114.357       14228.723      4.924432     
  62739800   105485.35     -8.6186302     -41753122       0.26755948     314117.37     -41439005       1378.4718      1378.4718      1378.4718      1310.7641      2689.2359      1310.7641      2689.2359      1310.7641      2689.2359      2.6193507e+09  0.5            31574900       2.0843174      7236.2597      14472.539      4.9100403    
  62740000   112183.38     -8.3615397     -41751584       0.26755948     334062.96     -41417521       1378.4718      1378.4718      1378.4718      1310.7641      2689.2359      1310.7641      2689.2359      1310.7641      2689.2359      2.6193507e+09  0.5            31575000       2.0985159      7042.9767      14085.949      4.8965412    
  62740200   112256.35     -8.2989409     -41742576       0.26755948     334280.23     -41408295       1378.4718      1378.4718      1378.4718      1310.7641      2689.2359      1310.7641      2689.2359      1310.7641      2689.2359      2.6193507e+09  0.5            31575100       2.1123237      7242.2975      14484.655      4.8821295    
  62740400   111685.06     -8.1798679     -41726118       0.26755948     332579.02     -41393539       1378.4718      1378.4718      1378.4718      1310.7641      2689.2359      1310.7641      2689.2359      1310.7641      2689.2359      2.6193507e+09  0.5            31575200       2.1263838      7112.3153      14224.572      4.8683038    
  62740600   113552.28     -8.2305816     -41739107       0.26755948     338139.3      -41400968       1378.4718      1378.4718      1378.4718      1310.7641      2689.2359      1310.7641      2689.2359      1310.7641      2689.2359      2.6193507e+09  0.5            31575300       2.1401574      7260.2718      14520.548      4.8538249    
  62740800   117699.66     -7.8696466     -41729861       0.26755948     350489.48     -41379371       1378.4718      1378.4718      1378.4718      1310.7641      2689.2359      1310.7641      2689.2359      1310.7641      2689.2359      2.6193507e+09  0.5            31575400       2.1541859      7128.3733      14256.756      4.839928     
  62741000   116800.97     -7.7678517     -41720514       0.26755948     347813.33     -41372701       1378.4718      1378.4718      1378.4718      1310.7641      2689.2359      1310.7641      2689.2359      1310.7641      2689.2359      2.6193507e+09  0.5            31575500       2.1679666      7256.5286      14513.071      4.8254777    
  62741200   109310.03     -8.1216714     -41718501       0.26755948     325506.6      -41392994       1378.4718      1378.4718      1378.4718      1310.7641      2689.2359      1310.7641      2689.2359      1310.7641      2689.2359      2.6193507e+09  0.5            31575600       2.1820779      7086.5223      14172.997      4.8117653    
  62741400   111394.99     -7.8744892     -41723854       0.26755948     331715.25     -41392138       1378.4718      1378.4718      1378.4718      1310.7641      2689.2359      1310.7641      2689.2359      1310.7641      2689.2359      2.6193507e+09  0.5            31575700       2.1960156      7174.7782      14349.546      4.7976685    
  62741600   116103.87     -7.6644791     -41729128       0.26755948     345737.5      -41383391       1378.4718      1378.4718      1378.4718      1310.7641      2689.2359      1310.7641      2689.2359      1310.7641      2689.2359      2.6193507e+09  0.5            31575800       2.2100533      7123.6249      14247.296      4.7837901    
  62741800   118003.43     -7.5660944     -41741701       0.26755948     351394.06     -41390307       1378.4718      1378.4718      1378.4718      1310.7641      2689.2359      1310.7641      2689.2359      1310.7641      2689.2359      2.6193507e+09  0.5            31575900       2.2238942      7225.0164      14449.997      4.7694875    
  62742000   119708.13     -7.3975953     -41732093       0.26755948     356470.36     -41375623       1378.4718      1378.4718      1378.4718      1310.7641      2689.2359      1310.7641      2689.2359      1310.7641      2689.2359      2.6193507e+09  0.5            31576000       2.2379757      7101.4859      14203.009      4.755702     
  62742200   120506.01     -7.1431656     -41722460       0.26755948     358846.33     -41363614       1378.4718      1378.4718      1378.4718      1310.7641      2689.2359      1310.7641      2689.2359      1310.7641      2689.2359      2.6193507e+09  0.5            31576100       2.2518708      7196.7681      14393.532      4.7415205    
  62742400   120374.88     -7.0038067     -41720220       0.26755948     358455.84     -41361764       1378.4718      1378.4718      1378.4718      1310.7641      2689.2359      1310.7641      2689.2359      1310.7641      2689.2359      2.6193507e+09  0.5            31576200       2.2659331      7111.2446      14222.474      4.7276911    
  62742600   120279.58     -6.7758663     -41710611       0.26755948     358172.05     -41352439       1378.4718      1378.4718      1378.4718      1310.7641      2689.2359      1310.7641      2689.2359      1310.7641      2689.2359      2.6193507e+09  0.5            31576300       2.2798117      7205.3439      14410.651      4.7134793    
  62742800   122187.48     -6.6634461     -41708401       0.26755948     363853.44     -41344547       1378.4718      1378.4718      1378.4718      1310.7641      2689.2359      1310.7641      2689.2359      1310.7641      2689.2359      2.6193507e+09  0.5            31576400       2.2941317      6983.2285      13966.497      4.7001758    
  62743000   124896.45     -6.4553801     -41706237       0.26755948     371920.29     -41334316       1378.4718      1378.4718      1378.4718      1310.7641      2689.2359      1310.7641      2689.2359      1310.7641      2689.2359      2.6193507e+09  0.5            31576500       2.3079383      7242.9039      14485.833      4.6858176    
  62743200   124261.2      -6.5633918     -41711499       0.26755948     370028.63     -41341470       1378.4718      1378.4718      1378.4718      1310.7641      2689.2359      1310.7641      2689.2359      1310.7641      2689.2359      2.6193507e+09  0.5            31576600       2.3221379      7042.4703      14084.876      4.6722568    
  62743400   119203.79     -6.7488758     -41709483       0.26755948     354968.52     -41354515       1378.4718      1378.4718      1378.4718      1310.7641      2689.2359      1310.7641      2689.2359      1310.7641      2689.2359      2.6193507e+09  0.5            31576700       2.3359283      7251.4034      14502.822      4.6578725    
  62743600   119862.48     -6.851884      -41722369       0.26755948     356930.01     -41365439       1378.4718      1378.4718      1378.4718      1310.7641      2689.2359      1310.7641      2689.2359      1310.7641      2689.2359      2.6193507e+09  0.5            31576800       2.3500116      7100.5944      14201.298      4.6440739    
  62743800   127227.33     -6.24604       -41705836       0.26755948     378861.26     -41326975       1378.4718      1378.4718      1378.4718      1310.7641      2689.2359      1310.7641      2689.2359      1310.7641      2689.2359      2.6193507e+09  0.5            31576900       2.3638494      7226.6131      14453.108      4.6297913    
  62744000   127095.15     -6.2543631     -41711512       0.26755948     378467.64     -41333044       1378.4718      1378.4718      1378.4718      1310.7641      2689.2359      1310.7641      2689.2359      1310.7641      2689.2359      2.6193507e+09  0.5            31577000       2.3779861      7073.7657      14147.529      4.6160941    
  62744200   124795.52     -6.3309006     -41709890       0.26755948     371619.76     -41338270       1378.4718      1378.4718      1378.4718      1310.7641      2689.2359      1310.7641      2689.2359      1310.7641      2689.2359      2.6193507e+09  0.5            31577100       2.3921392      7065.6043      14131.235      4.6024231    
  62744400   125733.48     -6.2700861     -41700969       0.26755948     374412.82     -41326556       1378.4718      1378.4718      1378.4718      1310.7641      2689.2359      1310.7641      2689.2359      1310.7641      2689.2359      2.6193507e+09  0.5            31577200       2.406283       7070.2227      14140.453      4.588729     
  62744600   133038.53     -5.8479478     -41684725       0.26755948     396166.03     -41288559       1378.4718      1378.4718      1378.4718      1310.7641      2689.2359      1310.7641      2689.2359      1310.7641      2689.2359      2.6193507e+09  0.5            31577300       2.4201443      7214.3227      14428.63       4.5744958    
  62744800   131516.82     -5.7000933     -41661114       0.26755948     391634.64     -41269479       1378.4718      1378.4718      1378.4718      1310.7641      2689.2359      1310.7641      2689.2359      1310.7641      2689.2359      2.6193507e+09  0.5            31577400       2.4342657      7081.4564      14162.941      4.5607539    
  62745000   126045.93     -6.0091032     -41667084       0.26755948     375343.25     -41291741       1378.4718      1378.4718      1378.4718      1310.7641      2689.2359      1310.7641      2689.2359      1310.7641      2689.2359      2.6193507e+09  0.5            31577500       2.4483988      7075.5955      14151.188      4.5470294    
  62745200   127209.64     -6.0413916     -41687869       0.26755948     378808.58     -41309061       1378.4718      1378.4718      1378.4718      1310.7641      2689.2359      1310.7641      2689.2359      1310.7641      2689.2359      2.6193507e+09  0.5            31577600       2.4624224      7130.8768      14261.717      4.5330989    
  62745400   130385.11     -5.8925616     -41686513       0.26755948     388264.59     -41298249       1378.4718      1378.4718      1378.4718      1310.7641      2689.2359      1310.7641      2689.2359      1310.7641      2689.2359      2.6193507e+09  0.5            31577700       2.4765449      7080.8702      14161.77       4.5193478    
  62745600   131385.98     -5.8832371     -41685143       0.26755948     391245.01     -41293898       1378.4718      1378.4718      1378.4718      1310.7641      2689.2359      1310.7641      2689.2359      1310.7641      2689.2359      2.6193507e+09  0.5            31577800       2.4906343      7097.5383      14195.056      4.5055325    
  62745800   133213.2      -5.641112      -41676400       0.26755948     396686.16     -41279714       1378.4718      1378.4718      1378.4718      1310.7641      2689.2359      1310.7641      2689.2359      1310.7641      2689.2359      2.6193507e+09  0.5            31577900       2.5047543      7082.1324      14164.256      4.4917693    
  62746000   135347.36     -5.4658532     -41682439       0.26755948     403041.32     -41279397       1378.4718      1378.4718      1378.4718      1310.7641      2689.2359      1310.7641      2689.2359      1310.7641      2689.2359      2.6193507e+09  0.5            31578000       2.5186831      7179.3838      14358.788      4.477662     
  62746200   135846.51     -5.2918724     -41673698       0.26755948     404527.72     -41269170       1378.4718      1378.4718      1378.4718      1310.7641      2689.2359      1310.7641      2689.2359      1310.7641      2689.2359      2.6193507e+09  0.5            31578100       2.5328495      7058.9684      14117.963      4.4639753    
  62746400   132633        -5.4945305     -41679695       0.26755948     394958.43     -41284737       1378.4718      1378.4718      1378.4718      1310.7641      2689.2359      1310.7641      2689.2359      1310.7641      2689.2359      2.6193507e+09  0.5            31578200       2.5470437      7045.0993      14090.155      4.4503322    
  62746600   131295.36     -5.4798413     -41685699       0.26755948     390975.15     -41294724       1378.4718      1378.4718      1378.4718      1310.7641      2689.2359      1310.7641      2689.2359      1310.7641      2689.2359      2.6193507e+09  0.5            31578300       2.5608673      7234.0391      14468.132      4.4360408    
  62746800   138291.44     -4.8018731     -41691652       0.26755948     411808.29     -41279844       1378.4718      1378.4718      1378.4718      1310.7641      2689.2359      1310.7641      2689.2359      1310.7641      2689.2359      2.6193507e+09  0.5            31578400       2.575012       7069.7209      14139.373      4.4223064    
  62747000   140351.16     -4.4673825     -41675411       0.26755948     417941.78     -41257469       1378.4718      1378.4718      1378.4718      1310.7641      2689.2359      1310.7641      2689.2359      1310.7641      2689.2359      2.6193507e+09  0.5            31578500       2.5888828      7209.4493      14418.866      4.4081009    
  62747200   136529.27     -4.6057333     -41681267       0.26755948     406560.84     -41274707       1378.4718      1378.4718      1378.4718      1310.7641      2689.2359      1310.7641      2689.2359      1310.7641      2689.2359      2.6193507e+09  0.5            31578600       2.6033286      6922.4359      13844.939      4.3948694    
  62747400   134526.53     -4.5165485     -41672368       0.26755948     400597.02     -41271771       1378.4718      1378.4718      1378.4718      1310.7641      2689.2359      1310.7641      2689.2359      1310.7641      2689.2359      2.6193507e+09  0.5            31578700       2.6176895      6963.3272      13926.605      4.3814833    
  62747600   144091.93     -3.9951166     -41678235       0.26755948     429081.16     -41249154       1378.4718      1378.4718      1378.4718      1310.7641      2689.2359      1310.7641      2689.2359      1310.7641      2689.2359      2.6193507e+09  0.5            31578800       2.6315327      7223.7909      14447.655      4.3672273    
  62747800   144658.33     -3.912421      -41676699       0.26755948     430767.79     -41245931       1378.4718      1378.4718      1378.4718      1310.7641      2689.2359      1310.7641      2689.2359      1310.7641      2689.2359      2.6193507e+09  0.5            31578900       2.6456403      7088.3699      14176.719      4.353411     
  62748000   137769.98     -4.3811202     -41682559       0.26755948     410255.49     -41272303       1378.4718      1378.4718      1378.4718      1310.7641      2689.2359      1310.7641      2689.2359      1310.7641      2689.2359      2.6193507e+09  0.5            31579000       2.6595683      7179.7993      14359.575      4.3392984    
  62748200   137372.99     -4.3595365     -41681104       0.26755948     409073.31     -41272030       1378.4718      1378.4718      1378.4718      1310.7641      2689.2359      1310.7641      2689.2359      1310.7641      2689.2359      2.6193507e+09  0.5            31579100       2.6737024      7075.0654      14150.166      4.3255213    
  62748400   144064.03     -3.8411054     -41672329       0.26755948     428998.09     -41243331       1378.4718      1378.4718      1378.4718      1310.7641      2689.2359      1310.7641      2689.2359      1310.7641      2689.2359      2.6193507e+09  0.5            31579200       2.6879005      7043.2029      14086.4        4.3118432    
  62748600   145043.68     -3.7626235     -41678345       0.26755948     431915.32     -41246430       1378.4718      1378.4718      1378.4718      1310.7641      2689.2359      1310.7641      2689.2359      1310.7641      2689.2359      2.6193507e+09  0.5            31579300       2.7019449      7120.2559      14240.498      4.2979151    
  62748800   143045.16     -3.6238099     -41654940       0.26755948     425964.06     -41228976       1378.4718      1378.4718      1378.4718      1310.7641      2689.2359      1310.7641      2689.2359      1310.7641      2689.2359      2.6193507e+09  0.5            31579400       2.7161377      7045.8454      14091.695      4.2842198    
  62749000   142745.85     -3.6787694     -41653719       0.26755948     425072.76     -41228646       1378.4718      1378.4718      1378.4718      1310.7641      2689.2359      1310.7641      2689.2359      1310.7641      2689.2359      2.6193507e+09  0.5            31579500       2.7302369      7092.5909      14185.157      4.2703733    
  62749200   148086.21     -3.2955664     -41652522       0.26755948     440975.44     -41211546       1378.4718      1378.4718      1378.4718      1310.7641      2689.2359      1310.7641      2689.2359      1310.7641      2689.2359      2.6193507e+09  0.5            31579600       2.7440776      7225.0718      14450.122      4.2561231    
  62749400   153743.49     -2.8838543     -41658654       0.26755948     457821.85     -41200832       1378.4718      1378.4718      1378.4718      1310.7641      2689.2359      1310.7641      2689.2359      1310.7641      2689.2359      2.6193507e+09  0.5            31579700       2.7581527      7104.7311      14209.522      4.2422375    
  62749600   145044.43     -3.1897805     -41649999       0.26755948     431917.53     -41218082       1378.4718      1378.4718      1378.4718      1310.7641      2689.2359      1310.7641      2689.2359      1310.7641      2689.2359      2.6193507e+09  0.5            31579800       2.7723414      7047.8879      14095.753      4.2285233    
  62749800   142188.44     -2.9641475     -41626594       0.26755948     423412.9      -41203181       1378.4718      1378.4718      1378.4718      1310.7641      2689.2359      1310.7641      2689.2359      1310.7641      2689.2359      2.6193507e+09  0.5            31579900       2.7862379      7196.0405      14392.098      4.2143625    
  62750000   146881.38     -2.5501529     -41610532       0.26755948     437387.68     -41173145       1378.4718      1378.4718      1378.4718      1310.7641      2689.2359      1310.7641      2689.2359      1310.7641      2689.2359      2.6193507e+09  0.5            31580000       2.804241       5554.5687      11109.128      4.2063642    
  62750200   151103.92     -2.1003132     -41601725       0.26755948     449961.67     -41151764       1378.4718      1378.4718      1378.4718      1310.7641      2689.2359      1310.7641      2689.2359      1310.7641      2689.2359      2.6193507e+09  0.5            31580100       2.8185479      6989.6925      13979.366      4.192768     
  62750400   150784.25     -1.9679595     -41600161       0.26755948     449009.76     -41151151       1378.4718      1378.4718      1378.4718      1310.7641      2689.2359      1310.7641      2689.2359      1310.7641      2689.2359      2.6193507e+09  0.5            31580200       2.8324551      7190.5169      14381.044      4.1785749    
  62750600   145813.08     -2.1331262     -41598465       0.26755948     434206.44     -41164258       1378.4718      1378.4718      1378.4718      1310.7641      2689.2359      1310.7641      2689.2359      1310.7641      2689.2359      2.6193507e+09  0.5            31580300       2.8466321      7053.6576      14107.327      4.1647796    
  62750800   142430.96     -2.1943035     -41604029       0.26755948     424135.08     -41179894       1378.4718      1378.4718      1378.4718      1310.7641      2689.2359      1310.7641      2689.2359      1310.7641      2689.2359      2.6193507e+09  0.5            31580400       2.8607852      7065.6088      14131.183      4.1509458    
  62751000   152124.61     -1.4144535     -41602048       0.26755948     453001.12     -41149047       1378.4718      1378.4718      1378.4718      1310.7641      2689.2359      1310.7641      2689.2359      1310.7641      2689.2359      2.6193507e+09  0.5            31580500       2.8747207      7175.9264      14351.897      4.1367956    
  62751200   154775.1      -1.2596237     -41629348       0.26755948     460893.82     -41168454       1378.4718      1378.4718      1378.4718      1310.7641      2689.2359      1310.7641      2689.2359      1310.7641      2689.2359      2.6193507e+09  0.5            31580600       2.8890971      6955.8119      13911.641      4.123277     
  62751400   152692.43     -1.0947428     -41619571       0.26755948     454691.98     -41164880       1378.4718      1378.4718      1378.4718      1310.7641      2689.2359      1310.7641      2689.2359      1310.7641      2689.2359      2.6193507e+09  0.5            31580700       2.9034592      6962.7735      13925.553      4.1097298    
  62751600   150712.51     -0.84773426    -41609628       0.26755948     448796.11     -41160831       1378.4718      1378.4718      1378.4718      1310.7641      2689.2359      1310.7641      2689.2359      1310.7641      2689.2359      2.6193507e+09  0.5            31580800       2.9173859      7180.471       14360.856      4.0955635    
  62751800   156559.21     -0.26870509    -41614269       0.26755948     466206.59     -41148062       1378.4718      1378.4718      1378.4718      1310.7641      2689.2359      1310.7641      2689.2359      1310.7641      2689.2359      2.6193507e+09  0.5            31580900       2.9315444      7062.923       14125.895      4.081722     
  62752000   160874.62      0.45138454    -41589187       0.26755948     479057.16     -41110129       1378.4718      1378.4718      1378.4718      1310.7641      2689.2359      1310.7641      2689.2359      1310.7641      2689.2359      2.6193507e+09  0.5            31581000       2.945789       7020.1815      14040.326      4.0679968    
  62752200   155145.64      0.2863454     -41600880       0.26755948     461997.23     -41138882       1378.4718      1378.4718      1378.4718      1310.7641      2689.2359      1310.7641      2689.2359      1310.7641      2689.2359      2.6193507e+09  0.5            31581100       2.9597352      7170.3652      14340.795      4.0538578    
  62752400   150353.87      0.43222419    -41597806       0.26755948     447728.16     -41150078       1378.4718      1378.4718      1378.4718      1310.7641      2689.2359      1310.7641      2689.2359      1310.7641      2689.2359      2.6193507e+09  0.5            31581200       2.9739254      7047.1503      14094.278      4.040052     
  62752600   161586.33      1.241388      -41602068       0.26755948     481176.49     -41120892       1378.4718      1378.4718      1378.4718      1310.7641      2689.2359      1310.7641      2689.2359      1310.7641      2689.2359      2.6193507e+09  0.5            31581300       2.9881123      7048.7726      14097.55       4.0262381    
  62752800   162730.48      1.5202227     -41620993       0.26755948     484583.59     -41136409       1378.4718      1378.4718      1378.4718      1310.7641      2689.2359      1310.7641      2689.2359      1310.7641      2689.2359      2.6193507e+09  0.5            31581400       3.0024297      6984.4767      13968.958      4.0125953    
  62753000   156082.87      1.5759649     -41603107       0.26755948     464788.14     -41138319       1378.4718      1378.4718      1378.4718      1310.7641      2689.2359      1310.7641      2689.2359      1310.7641      2689.2359      2.6193507e+09  0.5            31581500       3.0163538      7181.834       14363.595      3.9984248    
  62753200   155015.24      1.8336622     -41592759       0.26755948     461608.9      -41131150       1378.4718      1378.4718      1378.4718      1310.7641      2689.2359      1310.7641      2689.2359      1310.7641      2689.2359      2.6193507e+09  0.5            31581600       3.0306604      6989.7482      13979.612      3.9847594    
  62753400   163538.19      2.3809723     -41582529       0.26755948     486988.82     -41095540       1378.4718      1378.4718      1378.4718      1310.7641      2689.2359      1310.7641      2689.2359      1310.7641      2689.2359      2.6193507e+09  0.5            31581700       3.0448189      7062.9265      14125.832      3.970895     
  62753600   164235.44      2.6731691     -41572424       0.26755948     489065.1      -41083358       1378.4718      1378.4718      1378.4718      1310.7641      2689.2359      1310.7641      2689.2359      1310.7641      2689.2359      2.6193507e+09  0.5            31581800       3.0587077      7200.0098      14399.976      3.9566792    
  62753800   160875.4       2.8581524     -41577321       0.26755948     479059.46     -41098262       1378.4718      1378.4718      1378.4718      1310.7641      2689.2359      1310.7641      2689.2359      1310.7641      2689.2359      2.6193507e+09  0.5            31581900       3.0728868      7052.6467      14105.3        3.9428387    
  62754000   160571.99      3.1348555     -41560379       0.26755948     478155.98     -41082223       1378.4718      1378.4718      1378.4718      1310.7641      2689.2359      1310.7641      2689.2359      1310.7641      2689.2359      2.6193507e+09  0.5            31582000       3.0870376      7066.7358      14133.47       3.9289592    
  62754200   169789.04      3.5656609     -41558495       0.26755948     505602.76     -41052892       1378.4718      1378.4718      1378.4718      1310.7641      2689.2359      1310.7641      2689.2359      1310.7641      2689.2359      2.6193507e+09  0.5            31582100       3.1013763      6974.1242      13948.267      3.9153144    
  62754400   173271.08      3.5751808     -41571647       0.26755948     515971.68     -41055675       1378.4718      1378.4718      1378.4718      1310.7641      2689.2359      1310.7641      2689.2359      1310.7641      2689.2359      2.6193507e+09  0.5            31582200       3.1152735      7195.7505      14391.497      3.9011103    
  62754600   165892.97      3.2306417     -41570408       0.26755948     494000.93     -41076407       1378.4718      1378.4718      1378.4718      1310.7641      2689.2359      1310.7641      2689.2359      1310.7641      2689.2359      2.6193507e+09  0.5            31582300       3.1294137      7071.9837      14143.957      3.8872111    
  62754800   163412.76      3.1280861     -41562121       0.26755948     486615.29     -41075506       1378.4718      1378.4718      1378.4718      1310.7641      2689.2359      1310.7641      2689.2359      1310.7641      2689.2359      2.6193507e+09  0.5            31582400       3.1435464      7075.7808      14151.559      3.8733004    
[...]
  63399400   304.28067      0.70405027    -42183152       0.27114684     906.09587     -42182245       1372.3656      1372.3656      1372.3656      1313.8172      2686.1828      1313.8172      2686.1828      1313.8172      2686.1828      2.5846959e+09  0.5            31904700       24.76087       5835.9942      11671.993      0.90692898   
  63399600   304.32936      1.3835449     -42190577       0.27117184     906.24087     -42189671       1372.3234      1372.3234      1372.3234      1313.8383      2686.1617      1313.8383      2686.1617      1313.8383      2686.1617      2.5844575e+09  0.5            31904800       24.777992      5840.5589      11681.11       0.88981746   
  63399800   304.3131       1.0061549     -42190632       0.27116102     906.19246     -42189725       1372.3417      1372.3417      1372.3417      1313.8292      2686.1708      1313.8292      2686.1708      1313.8292      2686.1708      2.5845607e+09  0.5            31904900       24.795145      5829.7841      11659.564      0.87270705   
  63400000   304.21668      0.39619773    -42190685       0.27114264     905.90531     -42189779       1372.3727      1372.3727      1372.3727      1313.8137      2686.1863      1313.8137      2686.1863      1313.8137      2686.1863      2.5847359e+09  0.5            31905000       24.815229      4979.0606      9958.1087      0.85569764   
  63400200   304.28134      1.3286164     -42190733       0.27117365     906.09787     -42189827       1372.3204      1372.3204      1372.3204      1313.8398      2686.1602      1313.8398      2686.1602      1313.8398      2686.1602      2.5844403e+09  0.5            31905100       24.832721      5717.1534      11434.335      0.83859642   
  63400400   304.36797      1.6154815     -42190783       0.27118416     906.35583     -42189876       1372.3026      1372.3026      1372.3026      1313.8487      2686.1513      1313.8487      2686.1513      1313.8487      2686.1513      2.5843401e+09  0.5            31905200       24.849949      5804.3951      11608.765      0.82148598   
  63400600   304.32852      0.52917499    -42190841       0.27115083     906.23836     -42189934       1372.3588      1372.3588      1372.3588      1313.8206      2686.1794      1313.8206      2686.1794      1313.8206      2686.1794      2.5846578e+09  0.5            31905300       24.866994      5866.6789      11733.376      0.80436946   
  63400800   304.29223      0.12890173    -42190893       0.27113926     906.13031     -42189987       1372.3784      1372.3784      1372.3784      1313.8108      2686.1892      1313.8108      2686.1892      1313.8108      2686.1892      2.5847681e+09  0.5            31905400       24.884122      5838.3674      11676.717      0.78725566   
  63401000   304.25576      0.84908306    -42190944       0.2711633      906.0217      -42190038       1372.3378      1372.3378      1372.3378      1313.8311      2686.1689      1313.8311      2686.1689      1313.8311      2686.1689      2.5845389e+09  0.5            31905500       24.901188      5859.6599      11719.318      0.77013991   
  63401200   304.26209      1.8233581     -42190989       0.27119554     906.04055     -42190083       1372.2834      1372.2834      1372.2834      1313.8583      2686.1417      1313.8583      2686.1417      1313.8583      2686.1417      2.5842317e+09  0.5            31905600       24.918272      5853.4373      11706.899      0.75302477   
  63401400   304.27286      1.8986267     -42191040       0.27119935     906.07263     -42190134       1372.277       1372.277       1372.277       1313.8615      2686.1385      1313.8615      2686.1385      1313.8615      2686.1385      2.5841954e+09  0.5            31905700       24.935322      5865.3386      11730.672      0.73590866   
  63401600   304.21834      0.64357142    -42191098       0.27116087     905.91027     -42190192       1372.3419      1372.3419      1372.3419      1313.8291      2686.1709      1313.8291      2686.1709      1313.8291      2686.1709      2.5845621e+09  0.5            31905800       24.952581      5794.105       11588.184      0.71879867   
  63401800   304.20263      0.072881062   -42191150       0.27114426     905.86349     -42190244       1372.3699      1372.3699      1372.3699      1313.815       2686.185       1313.815       2686.185       1313.815       2686.185       2.5847204e+09  0.5            31905900       24.969692      5844.0678      11688.16       0.70168434   
  63402000   304.25787      1.6477002     -42191194       0.27119643     906.02798     -42190288       1372.2819      1372.2819      1372.2819      1313.859       2686.141       1313.859       2686.141       1313.859       2686.141       2.5842232e+09  0.5            31906000       24.986869      5821.715       11643.393      0.68457181   
  63402200   304.31492      1.1583075     -42191248       0.27118265     906.19786     -42190342       1372.3052      1372.3052      1372.3052      1313.8474      2686.1526      1313.8474      2686.1526      1313.8474      2686.1526      2.5843545e+09  0.5            31906100       25.004081      5809.7799      11619.579      0.66746013   
  63402400   304.35236      0.40226421    -42191303       0.27116011     906.30936     -42190397       1372.3432      1372.3432      1372.3432      1313.8284      2686.1716      1313.8284      2686.1716      1313.8284      2686.1716      2.5845694e+09  0.5            31906200       25.021223      5833.6145      11667.238      0.65034649   
  63402600   304.35704      1.5549516     -42191350       0.27119839     906.3233      -42190443       1372.2786      1372.2786      1372.2786      1313.8607      2686.1393      1313.8607      2686.1393      1313.8607      2686.1393      2.5842045e+09  0.5            31906300       25.038549      5771.7606      11543.532      0.63323745   
  63402800   304.31408      0.77580091    -42191406       0.27117442     906.19537     -42190500       1372.319       1372.319       1372.319       1313.8405      2686.1595      1313.8405      2686.1595      1313.8405      2686.1595      2.584433e+09   0.5            31906400       25.055685      5835.5917      11671.146      0.61612346   
  63403000   304.28426      0.87594472    -42191458       0.27117854     906.10658     -42190552       1372.3121      1372.3121      1372.3121      1313.8439      2686.1561      1313.8439      2686.1561      1313.8439      2686.1561      2.5843937e+09  0.5            31906500       25.072839      5829.6359      11659.287      0.59900985   
  63403200   304.2957       1.3043287     -42191508       0.27119334     906.14062     -42190602       1372.2871      1372.2871      1372.2871      1313.8564      2686.1436      1313.8564      2686.1436      1313.8564      2686.1436      2.5842527e+09  0.5            31906600       25.090025      5818.5549      11637.1        0.58189695   
  63403400   304.32353      0.73885955    -42191562       0.27117657     906.22351     -42190656       1372.3154      1372.3154      1372.3154      1313.8423      2686.1577      1313.8423      2686.1577      1313.8423      2686.1577      2.5844125e+09  0.5            31906700       25.107154      5838.3609      11676.715      0.56478264   
  63403600   304.33504      0.90650103    -42184236       0.27118171     906.25777     -42183330       1372.3068      1372.3068      1372.3068      1313.8466      2686.1534      1313.8466      2686.1534      1313.8466      2686.1534      2.5843635e+09  0.5            31906800       25.124282      5838.0991      11676.202      0.54766832   
  63403800   304.32952      0.6995693     -42184289       0.2711765      906.24133     -42183383       1372.3155      1372.3155      1372.3155      1313.8422      2686.1578      1313.8422      2686.1578      1313.8422      2686.1578      2.5844131e+09  0.5            31906900       25.141588      5778.6283      11557.276      0.53055771   
  63404000   304.24805      1.4230061     -42184337       0.27120128     905.99874     -42183431       1372.2737      1372.2737      1372.2737      1313.8631      2686.1369      1313.8631      2686.1369      1313.8631      2686.1369      2.584177e+09   0.5            31907000       25.158795      5811.2965      11622.586      0.51344484   
  63404200   304.29306      0.66017762    -42184392       0.27117859     906.13277     -42183486       1372.312       1372.312       1372.312       1313.844       2686.156       1313.844       2686.156       1313.844       2686.156       2.5843932e+09  0.5            31907100       25.17596       5826.0269      11652.02       0.49633099   
  63404400   304.41849      1.2002819     -42184442       0.27119774     906.50627     -42183536       1372.2797      1372.2797      1372.2797      1313.8601      2686.1399      1313.8601      2686.1399      1313.8601      2686.1399      2.5842108e+09  0.5            31907200       25.193065      5846.146       11692.327      0.47921595   
  63404600   304.34834      0.96828015    -42184496       0.27119182     906.29739     -42183589       1372.2897      1372.2897      1372.2897      1313.8552      2686.1448      1313.8552      2686.1448      1313.8552      2686.1448      2.5842671e+09  0.5            31907300       25.210189      5839.9184      11679.835      0.46210125   
  63404800   304.31368      0.84972661    -42184549       0.27118934     906.19417     -42183642       1372.2939      1372.2939      1372.2939      1313.8531      2686.1469      1313.8531      2686.1469      1313.8531      2686.1469      2.5842908e+09  0.5            31907400       25.227313      5839.6135      11679.232      0.44498656   
  63405000   304.32785      1.3067921     -42184598       0.27120541     906.23637     -42183692       1372.2668      1372.2668      1372.2668      1313.8666      2686.1334      1313.8666      2686.1334      1313.8666      2686.1334      2.5841376e+09  0.5            31907500       25.244651      5767.6437      11535.264      0.42787548   
  63405200   304.33493      0.58125057    -42184654       0.2711837      906.25746     -42183747       1372.3034      1372.3034      1372.3034      1313.8483      2686.1517      1313.8483      2686.1517      1313.8483      2686.1517      2.5843446e+09  0.5            31907600       25.261829      5821.4188      11642.859      0.41076148   
  63405400   304.39172      1.5037807     -42184702       0.27121505     906.42656     -42183795       1372.2505      1372.2505      1372.2505      1313.8747      2686.1253      1313.8747      2686.1253      1313.8747      2686.1253      2.5840458e+09  0.5            31907700       25.278975      5832.1049      11664.219      0.39364691   
  63405600   304.33265      0.45807182    -42184759       0.27118303     906.25067     -42183853       1372.3045      1372.3045      1372.3045      1313.8477      2686.1523      1313.8477      2686.1523      1313.8477      2686.1523      2.5843509e+09  0.5            31907800       25.296091      5842.5668      11685.145      0.37653183   
  63405800   304.35142      1.5088793     -42184806       0.27121833     906.30655     -42183900       1372.245       1372.245       1372.245       1313.8775      2686.1225      1313.8775      2686.1225      1313.8775      2686.1225      2.5840146e+09  0.5            31907900       25.313242      5830.5737      11661.115      0.35941726   
  63406000   304.3116       0.62546202    -42184863       0.2711912      906.18798     -42183957       1372.2907      1372.2907      1372.2907      1313.8546      2686.1454      1313.8546      2686.1454      1313.8546      2686.1454      2.584273e+09   0.5            31908000       25.3307        5727.9795      11455.984      0.34230679   
  63406200   304.27683      1.1606791     -42184913       0.27120954     906.08444     -42184007       1372.2598      1372.2598      1372.2598      1313.8701      2686.1299      1313.8701      2686.1299      1313.8701      2686.1299      2.5840983e+09  0.5            31908100       25.348049      5764.0416      11528.055      0.32519445   
  63406400   304.30819      1.008788      -42184965       0.27120588     906.17782     -42184059       1372.266       1372.266       1372.266       1313.867       2686.133       1313.867       2686.133       1313.867       2686.133       2.5841332e+09  0.5            31908200       25.365217      5824.9396      11649.847      0.30807958   
  63406600   304.36043      0.93239228    -42185018       0.27120473     906.3334      -42184111       1372.2679      1372.2679      1372.2679      1313.866       2686.134       1313.866       2686.134       1313.866       2686.134       2.5841441e+09  0.5            31908300       25.382345      5838.441       11676.928      0.29096419   
  63406800   304.36572      0.99986037    -42185069       0.27120823     906.34914     -42184163       1372.262       1372.262       1372.262       1313.869       2686.131       1313.869       2686.131       1313.869       2686.131       2.5841108e+09  0.5            31908400       25.399481      5835.452       11670.894      0.27384888   
  63407000   304.34537      1.0744807     -42185122       0.27121178     906.28854     -42184215       1372.256       1372.256       1372.256       1313.872       2686.128       1313.872       2686.128       1313.872       2686.128       2.5840769e+09  0.5            31908500       25.416672      5817.1465      11634.303      0.25673408   
  63407200   304.30438      0.94504078    -42185175       0.27120861     906.16648     -42184268       1372.2614      1372.2614      1372.2614      1313.8693      2686.1307      1313.8693      2686.1307      1313.8693      2686.1307      2.5841072e+09  0.5            31908600       25.433851      5821.1087      11642.242      0.23961907   
  63407400   304.30626      1.0771321     -42185226       0.27121394     906.17209     -42184320       1372.2524      1372.2524      1372.2524      1313.8738      2686.1262      1313.8738      2686.1262      1313.8738      2686.1262      2.5840564e+09  0.5            31908700       25.45117       5773.8164      11547.626      0.22250521   
  63407600   304.2918      -0.4114792     -42177903       0.27116536     906.12903     -42176996       1372.3343      1372.3343      1372.3343      1313.8328      2686.1672      1313.8328      2686.1672      1313.8328      2686.1672      2.5845193e+09  0.5            31908800       25.468311      5834.1978      11668.4        0.20538962   
  63407800   304.25511     -0.20823549    -42177955       0.27117287     906.01976     -42177049       1372.3217      1372.3217      1372.3217      1313.8392      2686.1608      1313.8392      2686.1608      1313.8392      2686.1608      2.5844478e+09  0.5            31908900       25.485462      5830.385       11660.764      0.18827408   
  63408000   304.2703       1.1465193     -42185381       0.27121926     906.065       -42184475       1372.2434      1372.2434      1372.2434      1313.8783      2686.1217      1313.8783      2686.1217      1313.8783      2686.1217      2.5840057e+09  0.5            31909000       25.502592      5837.636       11675.241      0.17115835   
  63408200   304.35215      1.4203541     -42178054       0.2712275      906.30873     -42177148       1372.2295      1372.2295      1372.2295      1313.8852      2686.1148      1313.8852      2686.1148      1313.8852      2686.1148      2.5839271e+09  0.5            31909100       25.519797      5812.4233      11624.87       0.15404305   
  63408400   304.337        0.60900676    -42178110       0.27120243     906.26362     -42177204       1372.2718      1372.2718      1372.2718      1313.8641      2686.1359      1313.8641      2686.1359      1313.8641      2686.1359      2.584166e+09   0.5            31909200       25.536944      5831.7464      11663.51       0.13692733   
  63408600   304.33886      1.3811234     -42178158       0.27122848     906.26916     -42177252       1372.2279      1372.2279      1372.2279      1313.8861      2686.1139      1313.8861      2686.1139      1313.8861      2686.1139      2.5839178e+09  0.5            31909300       25.554236      5783.0622      11566.091      0.11981224   
  63408800   304.35613      0.62767981    -42178214       0.27120548     906.32058     -42177308       1372.2667      1372.2667      1372.2667      1313.8667      2686.1333      1313.8667      2686.1333      1313.8667      2686.1333      2.584137e+09   0.5            31909400       25.571346      5844.7202      11689.483      0.10269618   
  63409000   304.34902      1.360902      -42178263       0.27123052     906.2994      -42177357       1372.2244      1372.2244      1372.2244      1313.8878      2686.1122      1313.8878      2686.1122      1313.8878      2686.1122      2.5838984e+09  0.5            31909500       25.588477      5837.2032      11674.396      0.085580198  
  63409200   304.34159      0.65317672    -42178319       0.27120923     906.27729     -42177413       1372.2603      1372.2603      1372.2603      1313.8698      2686.1302      1313.8698      2686.1302      1313.8698      2686.1302      2.5841013e+09  0.5            31909600       25.605635      5828.144       11656.287      0.068464271  
  63409400   304.4294       1.3255067     -42178369       0.27123253     906.53876     -42177462       1372.221       1372.221       1372.221       1313.8895      2686.1105      1313.8895      2686.1105      1313.8895      2686.1105      2.5838793e+09  0.5            31909700       25.62276       5839.5525      11679.099      0.051348221  
  63409600   304.44275      0.73415564    -42178425       0.27121518     906.57851     -42177518       1372.2503      1372.2503      1372.2503      1313.8748      2686.1252      1313.8748      2686.1252      1313.8748      2686.1252      2.5840446e+09  0.5            31909800       25.640053      5782.7244      11565.451      0.034232383  
  63409800   304.44092      1.1105172     -42178477       0.27122889     906.57307     -42177570       1372.2272      1372.2272      1372.2272      1313.8864      2686.1136      1313.8864      2686.1136      1313.8864      2686.1136      2.5839139e+09  0.5            31909900       25.657211      5828.2884      11656.585      0.017116219  
  63410000   304.42407      1.1772296     -42178530       0.27123256     906.52288     -42177623       1372.221       1372.221       1372.221       1313.8895      2686.1105      1313.8895      2686.1105      1313.8895      2686.1105      2.583879e+09   0.5            31910000       25.674351      5834.1832      11668.311      0            
Loop time of 25.6744 on 4 procs for 300000 steps with 1000 atoms

Performance: 504.783 ns/day, 0.048 hours/ns, 11684.797 timesteps/s
99.6% CPU use with 4 MPI tasks x 1 OpenMP threads

MPI task timing breakdown:
Section |  min time  |  avg time  |  max time  |%varavg| %total
---------------------------------------------------------------
Pair    | 1.3527     | 7.0224     | 15.9       | 214.1 | 27.35
Neigh   | 0.0041124  | 0.01551    | 0.032481   |   8.9 |  0.06
Comm    | 3.5005     | 12.101     | 17.496     | 158.9 | 47.13
Output  | 0.053055   | 0.06226    | 0.072434   |   3.3 |  0.24
Modify  | 4.0783     | 4.7126     | 5.4815     |  26.0 | 18.36
Other   |            | 1.76       |            |       |  6.86

Nlocal:            250 ave         497 max          93 min
Histogram: 1 1 0 0 1 0 0 0 0 1
Nghost:         318.75 ave         437 max         220 min
Histogram: 1 0 1 0 0 1 0 0 0 1
Neighs:           1184 ave        2671 max         215 min
Histogram: 1 1 0 0 1 0 0 0 0 1

Total # of neighbors = 4736
Ave neighs/atom = 4.736
Neighbor list builds = 129
Dangerous builds = 16

# run_style
run_style verlet

# write restart
write_restart ${write_res}
write_restart ./pgnpmf/010/equpmf90.res
System init for write_restart ...
Generated 0 of 1 mixed pair_coeff terms from geometric mixing rule

Total wall time: 0:00:54
