LAMMPS (23 Jun 2022 - Update 1)
OMP_NUM_THREADS environment is not set. Defaulting to 1 thread. (src/comm.cpp:98)
  using 1 OpenMP thread(s) per MPI task
# Read restart
read_restart ${read_res}
read_restart ./pgnpmf/trial2/010/equpmf71.res
Reading restart file ...
  restart file = 23 Jun 2022, LAMMPS = 23 Jun 2022
  restoring atom style atomic from restart
  orthogonal box = (1251.0145 1251.0145 1251.0145) to (2748.9855 2748.9855 2748.9855)
  1 by 2 by 2 MPI processor grid
  restoring pair style table from restart
  1000 atoms
  read_restart CPU = 0.018 seconds

# Settings

pair_style table spline 9941

pair_coeff 1 1 ./pgnpmf/N20.txt DE_GNP 75.6
pair_coeff 2 2 ./pgnpmf/N100.txt DE_GNP 115.92
WARNING: 3 of 9941 force values in table DE_GNP are inconsistent with -dE/dr.
WARNING:  Should only be flagged at inflection points (src/pair_table.cpp:463)
pair_coeff 1 2 ./pgnpmf/mixed_potential.txt DE_GNP 95.66
WARNING: 1562 of 9941 force values in table DE_GNP are inconsistent with -dE/dr.
WARNING:  Should only be flagged at inflection points (src/pair_table.cpp:463)

#Neigh_list Calc Frequency

neigh_modify delay 0 every 1 check yes

# computes
compute vor all voronoi/atom

# Saving Frequency (50 frames)
variable ts_save equal ${steps_equ}
variable ts_save equal 5000

# Dump
dump 1 all custom 100000 ./pgnpmf/${folder}/voronoi/voronoi_${usic}_${trial}.custom type x y z ix iy iz c_vor[1] c_vor[2]
dump 1 all custom 100000 ./pgnpmf/trial2/010/voronoi/voronoi_${usic}_${trial}.custom type x y z ix iy iz c_vor[1] c_vor[2]
dump 1 all custom 100000 ./pgnpmf/trial2/010/voronoi/voronoi_1_${trial}.custom type x y z ix iy iz c_vor[1] c_vor[2]
dump 1 all custom 100000 ./pgnpmf/trial2/010/voronoi/voronoi_1_1.custom type x y z ix iy iz c_vor[1] c_vor[2]
dump_modify 1 first no sort id
#dump 2 all cfg 50000 ./pgnpmf/${folder}/equilibration/trajectory/dumpgen.tens_*.cfg mass type xs ys zs fx fy fz
#dump_modify 2 element N20 N100

# thermo_style
thermo_style custom step temp press pe density ke etotal lx ly lz xlo xhi ylo yhi zlo zhi vol dt time cpu tpcpu spcpu cpuremain

# run info
timestep ${ts}
timestep 0.5
thermo 200

# fix

fix 1 all momentum 1000 linear 1 1 1 angular
variable T equal ${temp}
variable T equal 300
fix 2 all nvt temp ${T} ${T} 100.0
fix 2 all nvt temp 300 ${T} 100.0
fix 2 all nvt temp 300 300 100.0

run 100000
Generated 0 of 1 mixed pair_coeff terms from geometric mixing rule
Unused restart file global fix info:
  fix style: npt, fix ID: 5
Neighbor list info ...
  update every 1 steps, delay 0 steps, check yes
  max neighbors/atom: 2000, page size: 100000
  master list distance cutoff = 117.92
  ghost atom cutoff = 117.92
  binsize = 58.96, bins = 26 26 26
  1 neighbor lists, perpetual/occasional/extra = 1 0 0
  (1) pair table, perpetual
      attributes: half, newton on
      pair build: half/bin/atomonly/newton
      stencil: half/bin/3d
      bin: standard
Per MPI rank memory allocation (min/avg/max) = 3.117 | 3.12 | 3.125 Mbytes
   Step          Temp          Press          PotEng        Density         KinEng         TotEng           Lx             Ly             Lz            Xlo            Xhi            Ylo            Yhi            Zlo            Zhi           Volume           Dt            Time           CPU           T/CPU          S/CPU         CPULeft    
  50110000   306.39065      1.0567798     -32808368       0.20849887     912.37904     -32807455       1497.9711      1497.9711      1497.9711      1251.0145      2748.9855      1251.0145      2748.9855      1251.0145      2748.9855      3.3613234e+09  0.5            25260000       0              0              0              0            
  50110200   318.40136      1.0246396     -32808446       0.20849887     948.14487     -32807498       1497.9711      1497.9711      1497.9711      1251.0145      2748.9855      1251.0145      2748.9855      1251.0145      2748.9855      3.3613234e+09  0.5            25260100       0.034285052    2916.602       5832.9241      17.110539    
  50110400   322.62259      0.99003452    -32808526       0.20849887     960.71497     -32807565       1497.9711      1497.9711      1497.9711      1251.0145      2748.9855      1251.0145      2748.9855      1251.0145      2748.9855      3.3613234e+09  0.5            25260200       0.062814627    3505.2022      7010.494       15.641685    
  50110600   320.42834      0.95329006    -32808606       0.20849887     954.18088     -32807652       1497.9711      1497.9711      1497.9711      1251.0145      2748.9855      1251.0145      2748.9855      1251.0145      2748.9855      3.3613234e+09  0.5            25260300       0.087613872    4032.3813      8064.8023      14.515205    
  50110800   317.17949      0.91497201    -32808686       0.20849887     944.50636     -32807742       1497.9711      1497.9711      1497.9711      1251.0145      2748.9855      1251.0145      2748.9855      1251.0145      2748.9855      3.3613234e+09  0.5            25260400       0.11004563     4457.99        8915.9955      13.646021    
  50111000   314.4373       0.87459762    -32808766       0.20849887     936.34059     -32807830       1497.9711      1497.9711      1497.9711      1251.0145      2748.9855      1251.0145      2748.9855      1251.0145      2748.9855      3.3613234e+09  0.5            25260500       0.13085022     4806.6642      9613.4032      12.954413    
  50111200   312.81072      0.83281505    -32808846       0.20849887     931.4969      -32807915       1497.9711      1497.9711      1497.9711      1251.0145      2748.9855      1251.0145      2748.9855      1251.0145      2748.9855      3.3613234e+09  0.5            25260600       0.15047268     5096.2096      10192.444      12.389119    
  50111400   312.09912      0.79021278    -32808926       0.20849887     929.3779      -32807997       1497.9711      1497.9711      1497.9711      1251.0145      2748.9855      1251.0145      2748.9855      1251.0145      2748.9855      3.3613234e+09  0.5            25260700       0.17007606     5101.158       10202.328      11.978383    
  50111600   311.97875      0.74813572    -32809007       0.20849887     929.01946     -32808078       1497.9711      1497.9711      1497.9711      1251.0145      2748.9855      1251.0145      2748.9855      1251.0145      2748.9855      3.3613234e+09  0.5            25260800       0.18974025     5085.397       10170.766      11.669175    
  50111800   312.17172      0.70933047    -32809088       0.20849887     929.59408     -32808158       1497.9711      1497.9711      1497.9711      1251.0145      2748.9855      1251.0145      2748.9855      1251.0145      2748.9855      3.3613234e+09  0.5            25260900       0.20933251     5104.0548      10208.13       11.420383    
  50112000   312.46013      0.67545879    -32809169       0.20849887     930.45292     -32808239       1497.9711      1497.9711      1497.9711      1251.0145      2748.9855      1251.0145      2748.9855      1251.0145      2748.9855      3.3613234e+09  0.5            25261000       0.22896957     5092.4125      10184.807      11.219626    
  50112200   312.76748      0.64613479    -32809251       0.20849887     931.36815     -32808319       1497.9711      1497.9711      1497.9711      1251.0145      2748.9855      1251.0145      2748.9855      1251.0145      2748.9855      3.3613234e+09  0.5            25261100       0.24858808     5097.2247      10194.481      11.050974    
  50112400   313.02299      0.62039377    -32809332       0.20849887     932.129       -32808400       1497.9711      1497.9711      1497.9711      1251.0145      2748.9855      1251.0145      2748.9855      1251.0145      2748.9855      3.3613234e+09  0.5            25261200       0.26820375     5097.965       10195.911      10.907049    
  50112600   313.20349      0.59717336    -32809414       0.20849887     932.66651     -32808481       1497.9711      1497.9711      1497.9711      1251.0145      2748.9855      1251.0145      2748.9855      1251.0145      2748.9855      3.3613234e+09  0.5            25261300       0.28784554     5091.1865      10182.378      10.783226    
  50112800   313.30873      0.57417442    -32809496       0.20849887     932.97989     -32808563       1497.9711      1497.9711      1497.9711      1251.0145      2748.9855      1251.0145      2748.9855      1251.0145      2748.9855      3.3613234e+09  0.5            25261400       0.30747095     5095.437       10190.876      10.673715    
  50113000   313.36955      0.54774062    -32809578       0.20849887     933.161       -32808645       1497.9711      1497.9711      1497.9711      1251.0145      2748.9855      1251.0145      2748.9855      1251.0145      2748.9855      3.3613234e+09  0.5            25261500       0.32734852     5030.7948      10061.583      10.584346    
  50113200   313.48033      0.51777883    -32809660       0.20849887     933.4909      -32808727       1497.9711      1497.9711      1497.9711      1251.0145      2748.9855      1251.0145      2748.9855      1251.0145      2748.9855      3.3613234e+09  0.5            25261600       0.3469396      5104.3633      10208.729      10.494994    
  50113400   313.60349      0.4871844     -32809743       0.20849887     933.85764     -32808809       1497.9711      1497.9711      1497.9711      1251.0145      2748.9855      1251.0145      2748.9855      1251.0145      2748.9855      3.3613234e+09  0.5            25261700       0.36644972     5125.5546      10251.102      10.411548    
  50113600   313.67685      0.45785454    -32809826       0.20849887     934.07608     -32808892       1497.9711      1497.9711      1497.9711      1251.0145      2748.9855      1251.0145      2748.9855      1251.0145      2748.9855      3.3613234e+09  0.5            25261800       0.38598062     5120.0941      10240.189      10.335765    
  50113800   313.67342      0.428495      -32809909       0.20849887     934.06587     -32808975       1497.9711      1497.9711      1497.9711      1251.0145      2748.9855      1251.0145      2748.9855      1251.0145      2748.9855      3.3613234e+09  0.5            25261900       0.40544935     5136.4398      10272.872      10.264331    
  50114000   313.64384      0.39664325    -32809993       0.20849887     933.97779     -32809059       1497.9711      1497.9711      1497.9711      1251.0145      2748.9855      1251.0145      2748.9855      1251.0145      2748.9855      3.3613234e+09  0.5            25262000       0.42491702     5136.7028      10273.427      10.198066    
  50114200   313.72366      0.36387113    -32810077       0.20849887     934.21548     -32809142       1497.9711      1497.9711      1497.9711      1251.0145      2748.9855      1251.0145      2748.9855      1251.0145      2748.9855      3.3613234e+09  0.5            25262100       0.44436134     5142.9009      10285.81       10.135724    
  50114400   313.87049      0.33510252    -32810161       0.20849887     934.65272     -32809227       1497.9711      1497.9711      1497.9711      1251.0145      2748.9855      1251.0145      2748.9855      1251.0145      2748.9855      3.3613234e+09  0.5            25262200       0.46377851     5150.0845      10300.166      10.076693    
  50114600   313.98772      0.3119982     -32810246       0.20849887     935.00181     -32809311       1497.9711      1497.9711      1497.9711      1251.0145      2748.9855      1251.0145      2748.9855      1251.0145      2748.9855      3.3613234e+09  0.5            25262300       0.48327756     5128.4558      10256.889      10.022805    
  50114800   313.99637      0.2937337     -32810331       0.20849887     935.02756     -32809396       1497.9711      1497.9711      1497.9711      1251.0145      2748.9855      1251.0145      2748.9855      1251.0145      2748.9855      3.3613234e+09  0.5            25262400       0.50270391     5147.6445      10295.291      9.9703414    
  50115000   313.85637      0.27752081    -32810416       0.20849887     934.61068     -32809481       1497.9711      1497.9711      1497.9711      1251.0145      2748.9855      1251.0145      2748.9855      1251.0145      2748.9855      3.3613234e+09  0.5            25262500       0.52217273     5136.416       10272.83       9.9213276    
  50115200   313.65994      0.25972118    -32810500       0.20849887     934.02573     -32809566       1497.9711      1497.9711      1497.9711      1251.0145      2748.9855      1251.0145      2748.9855      1251.0145      2748.9855      3.3613234e+09  0.5            25262600       0.54164812     5134.7022      10269.42       9.8747035    
  50115400   313.47799      0.23822533    -32810584       0.20849887     933.48391     -32809651       1497.9711      1497.9711      1497.9711      1251.0145      2748.9855      1251.0145      2748.9855      1251.0145      2748.9855      3.3613234e+09  0.5            25262700       0.56111527     5136.8611      10273.722      9.8299479    
  50115600   313.40178      0.21160447    -32810668       0.20849887     933.257       -32809735       1497.9711      1497.9711      1497.9711      1251.0145      2748.9855      1251.0145      2748.9855      1251.0145      2748.9855      3.3613234e+09  0.5            25262800       0.58062254     5126.2819      10252.544      9.7876771    
  50115800   313.46081      0.18190054    -32810753       0.20849887     933.43277     -32809819       1497.9711      1497.9711      1497.9711      1251.0145      2748.9855      1251.0145      2748.9855      1251.0145      2748.9855      3.3613234e+09  0.5            25262900       0.60008434     5138.2674      10276.549      9.7462357    
  50116000   313.57744      0.15169937    -32810837       0.20849887     933.78007     -32809904       1497.9711      1497.9711      1497.9711      1251.0145      2748.9855      1251.0145      2748.9855      1251.0145      2748.9855      3.3613234e+09  0.5            25263000       0.61959588     5125.1776      10250.342      9.7070386    
  50116200   313.79235      0.081908841   -32818301       0.20849887     934.42002     -32817366       1497.9711      1497.9711      1497.9711      1251.0145      2748.9855      1251.0145      2748.9855      1251.0145      2748.9855      3.3613234e+09  0.5            25263100       0.63905637     5138.6025      10277.202      9.6683407    
  50116400   314.00128      0.055499098   -32818386       0.20849887     935.0422      -32817451       1497.9711      1497.9711      1497.9711      1251.0145      2748.9855      1251.0145      2748.9855      1251.0145      2748.9855      3.3613234e+09  0.5            25263200       0.65853603     5133.5582      10267.135      9.6311246    
  50116600   314.00613      0.034691691   -32818472       0.20849887     935.05664     -32817537       1497.9711      1497.9711      1497.9711      1251.0145      2748.9855      1251.0145      2748.9855      1251.0145      2748.9855      3.3613234e+09  0.5            25263300       0.67804216     5126.6027      10253.211      9.5953567    
  50116800   313.85443      0.015421954   -32818557       0.20849887     934.60489     -32817622       1497.9711      1497.9711      1497.9711      1251.0145      2748.9855      1251.0145      2748.9855      1251.0145      2748.9855      3.3613234e+09  0.5            25263400       0.69754138     5128.4084      10256.814      9.5604522    
  50117000   313.69632     -0.0072156975  -32818642       0.20849887     934.13407     -32817708       1497.9711      1497.9711      1497.9711      1251.0145      2748.9855      1251.0145      2748.9855      1251.0145      2748.9855      3.3613234e+09  0.5            25263500       0.7170378      5129.1405      10258.268      9.5263912    
  50117200   313.67893     -0.031531006   -32818727       0.20849887     934.0823      -32817793       1497.9711      1497.9711      1497.9711      1251.0145      2748.9855      1251.0145      2748.9855      1251.0145      2748.9855      3.3613234e+09  0.5            25263600       0.73650464     5136.9495      10273.91       9.4927568    
  50117400   313.72483     -0.051135287   -32818812       0.20849887     934.21897     -32817878       1497.9711      1497.9711      1497.9711      1251.0145      2748.9855      1251.0145      2748.9855      1251.0145      2748.9855      3.3613234e+09  0.5            25263700       0.75636799     5034.3833      10068.744      9.4648521    
  50117600   313.71739     -0.066851378   -32818897       0.20849887     934.19683     -32817963       1497.9711      1497.9711      1497.9711      1251.0145      2748.9855      1251.0145      2748.9855      1251.0145      2748.9855      3.3613234e+09  0.5            25263800       0.77594163     5108.9423      10217.97       9.4338421    
  50117800   313.68271     -0.083150012   -32818982       0.20849887     934.09354     -32818048       1497.9711      1497.9711      1497.9711      1251.0145      2748.9855      1251.0145      2748.9855      1251.0145      2748.9855      3.3613234e+09  0.5            25263900       0.79253019     6028.2472      12056.488      9.3681382    
  50118000   313.64834     -0.10055967    -32819067       0.20849887     933.9912      -32818134       1497.9711      1497.9711      1497.9711      1251.0145      2748.9855      1251.0145      2748.9855      1251.0145      2748.9855      3.3613234e+09  0.5            25264000       0.80906513     6047.814       12095.638      9.3042721    
  50118200   313.62238     -0.11840705    -32819152       0.20849887     933.91391     -32818219       1497.9711      1497.9711      1497.9711      1251.0145      2748.9855      1251.0145      2748.9855      1251.0145      2748.9855      3.3613234e+09  0.5            25264100       0.82557761     6056.0306      12112.093      9.2424637    
  50118400   313.59388     -0.095779036   -32811859       0.20849887     933.82902     -32810926       1497.9711      1497.9711      1497.9711      1251.0145      2748.9855      1251.0145      2748.9855      1251.0145      2748.9855      3.3613234e+09  0.5            25264200       0.84208758     6056.9286      12113.809      9.1827868    
  50118600   313.58017     -0.11588179    -32811944       0.20849887     933.7882      -32811011       1497.9711      1497.9711      1497.9711      1251.0145      2748.9855      1251.0145      2748.9855      1251.0145      2748.9855      3.3613234e+09  0.5            25264300       0.85859447     6058.0903      12116.212      9.1250826    
  50118800   313.63021     -0.1362585     -32812029       0.20849887     933.93722     -32811095       1497.9711      1497.9711      1497.9711      1251.0145      2748.9855      1251.0145      2748.9855      1251.0145      2748.9855      3.3613234e+09  0.5            25264400       0.87512505     6049.3777      12098.735      9.0694989    
  50119000   313.65646     -0.15166553    -32812114       0.20849887     934.01537     -32811180       1497.9711      1497.9711      1497.9711      1251.0145      2748.9855      1251.0145      2748.9855      1251.0145      2748.9855      3.3613234e+09  0.5            25264500       0.89201102     5922.0775      11844.118      9.019244     
  50119200   313.60297     -0.16231616    -32812199       0.20849887     933.8561      -32811265       1497.9711      1497.9711      1497.9711      1251.0145      2748.9855      1251.0145      2748.9855      1251.0145      2748.9855      3.3613234e+09  0.5            25264600       0.90851718     6058.3502      12116.755      8.9666892    
  50119400   313.49584     -0.17227917    -32812284       0.20849887     933.53707     -32811350       1497.9711      1497.9711      1497.9711      1251.0145      2748.9855      1251.0145      2748.9855      1251.0145      2748.9855      3.3613234e+09  0.5            25264700       0.92509921     6030.6229      12061.221      8.9164014    
  50119600   313.44451     -0.18511547    -32812368       0.20849887     933.38424     -32811435       1497.9711      1497.9711      1497.9711      1251.0145      2748.9855      1251.0145      2748.9855      1251.0145      2748.9855      3.3613234e+09  0.5            25264800       0.94159004     6063.971       12127.941      8.8666592    
  50119800   313.43429     -0.19704166    -32812453       0.20849887     933.3538      -32811519       1497.9711      1497.9711      1497.9711      1251.0145      2748.9855      1251.0145      2748.9855      1251.0145      2748.9855      3.3613234e+09  0.5            25264900       0.95810067     6056.7187      12113.47       8.8184551    
  50120000   313.36395     -0.20883103    -32812537       0.20849887     933.14432     -32811604       1497.9711      1497.9711      1497.9711      1251.0145      2748.9855      1251.0145      2748.9855      1251.0145      2748.9855      3.3613234e+09  0.5            25265000       0.97463153     6049.2723      12098.55       8.7717019    
  50120200   313.28939     -0.22389337    -32812621       0.20849887     932.92232     -32811688       1497.9711      1497.9711      1497.9711      1251.0145      2748.9855      1251.0145      2748.9855      1251.0145      2748.9855      3.3613234e+09  0.5            25265100       0.99124039     6020.8952      12041.777      8.7268203    
  50120400   313.26142     -0.2417967     -32812705       0.20849887     932.83901     -32811772       1497.9711      1497.9711      1497.9711      1251.0145      2748.9855      1251.0145      2748.9855      1251.0145      2748.9855      3.3613234e+09  0.5            25265200       1.007773       6048.6364      12097.284      8.6823692    
  50120600   313.27361     -0.26078466    -32812788       0.20849887     932.87532     -32811855       1497.9711      1497.9711      1497.9711      1251.0145      2748.9855      1251.0145      2748.9855      1251.0145      2748.9855      3.3613234e+09  0.5            25265300       1.024312       6046.3382      12092.63       8.6390254    
  50120800   313.24213     -0.27703632    -32812872       0.20849887     932.78157     -32811939       1497.9711      1497.9711      1497.9711      1251.0145      2748.9855      1251.0145      2748.9855      1251.0145      2748.9855      3.3613234e+09  0.5            25265400       1.0408366      6051.5899      12103.237      8.5965552    
  50121000   313.09229     -0.29194407    -32812955       0.20849887     932.33537     -32812022       1497.9711      1497.9711      1497.9711      1251.0145      2748.9855      1251.0145      2748.9855      1251.0145      2748.9855      3.3613234e+09  0.5            25265500       1.0573596      6052.1811      12104.338      8.555016     
  50121200   312.91335     -0.30963552    -32813037       0.20849887     931.80251     -32812105       1497.9711      1497.9711      1497.9711      1251.0145      2748.9855      1251.0145      2748.9855      1251.0145      2748.9855      3.3613234e+09  0.5            25265600       1.0738695      6056.9572      12113.892      8.5142665    
  50121400   312.8289      -0.33142261    -32813119       0.20849887     931.55105     -32812187       1497.9711      1497.9711      1497.9711      1251.0145      2748.9855      1251.0145      2748.9855      1251.0145      2748.9855      3.3613234e+09  0.5            25265700       1.0904344      6036.872       12073.756      8.474795     
  50121600   312.87258     -0.35242821    -32813201       0.20849887     931.68112     -32812269       1497.9711      1497.9711      1497.9711      1251.0145      2748.9855      1251.0145      2748.9855      1251.0145      2748.9855      3.3613234e+09  0.5            25265800       1.1069196      6066.0515      12132.128      8.4355051    
  50121800   312.91505     -0.36469192    -32813283       0.20849887     931.80757     -32812351       1497.9711      1497.9711      1497.9711      1251.0145      2748.9855      1251.0145      2748.9855      1251.0145      2748.9855      3.3613234e+09  0.5            25265900       1.1234053      6065.8392      12131.681      8.3969931    
  50122000   312.81419     -0.36812142    -32813364       0.20849887     931.50723     -32812433       1497.9711      1497.9711      1497.9711      1251.0145      2748.9855      1251.0145      2748.9855      1251.0145      2748.9855      3.3613234e+09  0.5            25266000       1.1399337      6050.2155      12100.435      8.3595274    
  50122200   312.66436     -0.37157257    -32813445       0.20849887     931.06109     -32812514       1497.9711      1497.9711      1497.9711      1251.0145      2748.9855      1251.0145      2748.9855      1251.0145      2748.9855      3.3613234e+09  0.5            25266100       1.1564274      6062.9         12125.725      8.3225002    
  50122400   312.59779     -0.37882906    -32813526       0.20849887     930.86284     -32812595       1497.9711      1497.9711      1497.9711      1251.0145      2748.9855      1251.0145      2748.9855      1251.0145      2748.9855      3.3613234e+09  0.5            25266200       1.1729054      6068.708       12137.42       8.286023     
  50122600   312.61351     -0.38957443    -32813606       0.20849887     930.90965     -32812675       1497.9711      1497.9711      1497.9711      1251.0145      2748.9855      1251.0145      2748.9855      1251.0145      2748.9855      3.3613234e+09  0.5            25266300       1.1894595      6040.801       12081.66       8.2507085    
  50122800   312.62469     -0.40370459    -32813686       0.20849887     930.94294     -32812755       1497.9711      1497.9711      1497.9711      1251.0145      2748.9855      1251.0145      2748.9855      1251.0145      2748.9855      3.3613234e+09  0.5            25266400       1.2059489      6064.4973      12128.983      8.2155402    
  50123000   312.56102     -0.42221712    -32813766       0.20849887     930.75334     -32812835       1497.9711      1497.9711      1497.9711      1251.0145      2748.9855      1251.0145      2748.9855      1251.0145      2748.9855      3.3613234e+09  0.5            25266500       1.2224443      6062.3042      12124.599      8.1809864    
  50123200   312.50447     -0.44769535    -32813845       0.20849887     930.58495     -32812915       1497.9711      1497.9711      1497.9711      1251.0145      2748.9855      1251.0145      2748.9855      1251.0145      2748.9855      3.3613234e+09  0.5            25266600       1.2389094      6073.4527      12146.925      8.1467805    
  50123400   312.51894     -0.47494276    -32813925       0.20849887     930.62803     -32812994       1497.9711      1497.9711      1497.9711      1251.0145      2748.9855      1251.0145      2748.9855      1251.0145      2748.9855      3.3613234e+09  0.5            25266700       1.2557264      5946.3482      11892.622      8.1153801    
  50123600   312.53205     -0.49657502    -32814004       0.20849887     930.66707     -32813074       1497.9711      1497.9711      1497.9711      1251.0145      2748.9855      1251.0145      2748.9855      1251.0145      2748.9855      3.3613234e+09  0.5            25266800       1.2722008      6070.0201      12140.115      8.0822292    
  50123800   312.47575     -0.51330725    -32814083       0.20849887     930.49943     -32813153       1497.9711      1497.9711      1497.9711      1251.0145      2748.9855      1251.0145      2748.9855      1251.0145      2748.9855      3.3613234e+09  0.5            25266900       1.2887292      6050.1829      12100.328      8.0499007    
  50124000   312.39856     -0.52900026    -32814162       0.20849887     930.26956     -32813231       1497.9711      1497.9711      1497.9711      1251.0145      2748.9855      1251.0145      2748.9855      1251.0145      2748.9855      3.3613234e+09  0.5            25267000       1.305266       6047.1111      12094.238      8.0180756    
  50124200   312.4276      -0.54642517    -32814240       0.20849887     930.35604     -32813310       1497.9711      1497.9711      1497.9711      1251.0145      2748.9855      1251.0145      2748.9855      1251.0145      2748.9855      3.3613234e+09  0.5            25267100       1.3217336      6072.5569      12145.12       7.9862616    
  50124400   312.56805     -0.56232829    -32814319       0.20849887     930.77427     -32813388       1497.9711      1497.9711      1497.9711      1251.0145      2748.9855      1251.0145      2748.9855      1251.0145      2748.9855      3.3613234e+09  0.5            25267200       1.3382331      6060.8029      12121.611      7.9550635    
  50124600   312.68127     -0.57273075    -32814398       0.20849887     931.11143     -32813467       1497.9711      1497.9711      1497.9711      1251.0145      2748.9855      1251.0145      2748.9855      1251.0145      2748.9855      3.3613234e+09  0.5            25267300       1.3547241      6063.9306      12127.827      7.9242195    
  50124800   312.72809     -0.54057055    -32807099       0.20849887     931.25085     -32806168       1497.9711      1497.9711      1497.9711      1251.0145      2748.9855      1251.0145      2748.9855      1251.0145      2748.9855      3.3613234e+09  0.5            25267400       1.3712168      6063.2809      12126.579      7.8937726    
  50125000   312.67081     -0.54844503    -32807178       0.20849887     931.08029     -32806247       1497.9711      1497.9711      1497.9711      1251.0145      2748.9855      1251.0145      2748.9855      1251.0145      2748.9855      3.3613234e+09  0.5            25267500       1.3877791      6037.8037      12075.625      7.8640925    
  50125200   312.55453     -0.5552093     -32807257       0.20849887     930.73401     -32806326       1497.9711      1497.9711      1497.9711      1251.0145      2748.9855      1251.0145      2748.9855      1251.0145      2748.9855      3.3613234e+09  0.5            25267600       1.4042749      6062.133       12124.217      7.8343871    
  50125400   312.42406     -0.56022445    -32807335       0.20849887     930.34549     -32806404       1497.9711      1497.9711      1497.9711      1251.0145      2748.9855      1251.0145      2748.9855      1251.0145      2748.9855      3.3613234e+09  0.5            25267700       1.4207628      6065.0865      12130.225      7.80498      
  50125600   312.29772     -0.56385918    -32807412       0.20849887     929.96929     -32806482       1497.9711      1497.9711      1497.9711      1251.0145      2748.9855      1251.0145      2748.9855      1251.0145      2748.9855      3.3613234e+09  0.5            25267800       1.4372738      6056.532       12113.045      7.7760305    
  50125800   312.17728     -0.56776696    -32807489       0.20849887     929.61064     -32806560       1497.9711      1497.9711      1497.9711      1251.0145      2748.9855      1251.0145      2748.9855      1251.0145      2748.9855      3.3613234e+09  0.5            25267900       1.4537539      6067.9446      12135.905      7.7472305    
  50126000   312.05812     -0.57392739    -32807566       0.20849887     929.2558      -32806637       1497.9711      1497.9711      1497.9711      1251.0145      2748.9855      1251.0145      2748.9855      1251.0145      2748.9855      3.3613234e+09  0.5            25268000       1.4702706      6054.4657      12108.963      7.7189306    
  50126200   311.97182     -0.58283147    -32807643       0.20849887     928.99879     -32806714       1497.9711      1497.9711      1497.9711      1251.0145      2748.9855      1251.0145      2748.9855      1251.0145      2748.9855      3.3613234e+09  0.5            25268100       1.486768       6061.5425      12123.046      7.6908226    
  50126400   311.92142     -0.59472053    -32807719       0.20849887     928.84873     -32806790       1497.9711      1497.9711      1497.9711      1251.0145      2748.9855      1251.0145      2748.9855      1251.0145      2748.9855      3.3613234e+09  0.5            25268200       1.5032578      6064.3502      12128.7        7.6629591    
  50126600   311.90736     -0.60756758    -32807794       0.20849887     928.80685     -32806866       1497.9711      1497.9711      1497.9711      1251.0145      2748.9855      1251.0145      2748.9855      1251.0145      2748.9855      3.3613234e+09  0.5            25268300       1.5197067      6079.4535      12158.917      7.6351627    
  50126800   311.90427     -0.6197695     -32807870       0.20849887     928.79766     -32806941       1497.9711      1497.9711      1497.9711      1251.0145      2748.9855      1251.0145      2748.9855      1251.0145      2748.9855      3.3613234e+09  0.5            25268400       1.5361675      6075.0389      12150.045      7.6076965    
  50127000   311.89548     -0.63262168    -32807945       0.20849887     928.77147     -32807017       1497.9711      1497.9711      1497.9711      1251.0145      2748.9855      1251.0145      2748.9855      1251.0145      2748.9855      3.3613234e+09  0.5            25268500       1.5526404      6070.5938      12141.247      7.5805476    
  50127200   311.95294     -0.64789871    -32808021       0.20849887     928.94258     -32807092       1497.9711      1497.9711      1497.9711      1251.0145      2748.9855      1251.0145      2748.9855      1251.0145      2748.9855      3.3613234e+09  0.5            25268600       1.5691363      6062.0933      12124.135      7.5537587    
  50127400   312.07139     -0.66322238    -32808096       0.20849887     929.2953      -32807167       1497.9711      1497.9711      1497.9711      1251.0145      2748.9855      1251.0145      2748.9855      1251.0145      2748.9855      3.3613234e+09  0.5            25268700       1.5856908      6040.6499      12081.337      7.5274839    
  50127600   312.19104     -0.67582224    -32808172       0.20849887     929.6516      -32807243       1497.9711      1497.9711      1497.9711      1251.0145      2748.9855      1251.0145      2748.9855      1251.0145      2748.9855      3.3613234e+09  0.5            25268800       1.6022014      6056.7378      12113.466      7.5012245    
  50127800   312.24473     -0.6851904     -32808248       0.20849887     929.8115      -32807318       1497.9711      1497.9711      1497.9711      1251.0145      2748.9855      1251.0145      2748.9855      1251.0145      2748.9855      3.3613234e+09  0.5            25268900       1.6186771      6069.5471      12139.102      7.475023     
  50128000   312.19395     -0.69279968    -32808323       0.20849887     929.66027     -32807394       1497.9711      1497.9711      1497.9711      1251.0145      2748.9855      1251.0145      2748.9855      1251.0145      2748.9855      3.3613234e+09  0.5            25269000       1.6352068      6049.7074      12099.44       7.4492839    
  50128200   312.0908      -0.70042616    -32808399       0.20849887     929.35311     -32807469       1497.9711      1497.9711      1497.9711      1251.0145      2748.9855      1251.0145      2748.9855      1251.0145      2748.9855      3.3613234e+09  0.5            25269100       1.6516952      6064.8908      12129.768      7.4235613    
  50128400   311.97119     -0.70913932    -32808473       0.20849887     928.99693     -32807544       1497.9711      1497.9711      1497.9711      1251.0145      2748.9855      1251.0145      2748.9855      1251.0145      2748.9855      3.3613234e+09  0.5            25269200       1.6682116      6054.5687      12109.11       7.3981643    
  50128600   311.88294     -0.71865521    -32808548       0.20849887     928.73413     -32807619       1497.9711      1497.9711      1497.9711      1251.0145      2748.9855      1251.0145      2748.9855      1251.0145      2748.9855      3.3613234e+09  0.5            25269300       1.6847397      6050.311       12100.612      7.3730091    
  50128800   311.84309     -0.72696673    -32808623       0.20849887     928.61547     -32807694       1497.9711      1497.9711      1497.9711      1251.0145      2748.9855      1251.0145      2748.9855      1251.0145      2748.9855      3.3613234e+09  0.5            25269400       1.7012415      6059.9299      12119.905      7.3479237    
  50129000   311.82597     -0.73257609    -32808697       0.20849887     928.56449     -32807768       1497.9711      1497.9711      1497.9711      1251.0145      2748.9855      1251.0145      2748.9855      1251.0145      2748.9855      3.3613234e+09  0.5            25269500       1.7177205      6068.3375      12136.657      7.3229219    
  50129200   311.84503     -0.7356644     -32808771       0.20849887     928.62125     -32807843       1497.9711      1497.9711      1497.9711      1251.0145      2748.9855      1251.0145      2748.9855      1251.0145      2748.9855      3.3613234e+09  0.5            25269600       1.7345399      5945.4838      11890.929      7.299531     
  50129400   311.87734     -0.73750904    -32808846       0.20849887     928.71745     -32807917       1497.9711      1497.9711      1497.9711      1251.0145      2748.9855      1251.0145      2748.9855      1251.0145      2748.9855      3.3613234e+09  0.5            25269700       1.7510373      6061.5836      12123.199      7.2749364    
  50129600   311.91788     -0.73959575    -32808920       0.20849887     928.83819     -32807991       1497.9711      1497.9711      1497.9711      1251.0145      2748.9855      1251.0145      2748.9855      1251.0145      2748.9855      3.3613234e+09  0.5            25269800       1.7675371      6060.6843      12121.374      7.2505173    
  50129800   311.95845     -0.74197002    -32808994       0.20849887     928.959       -32808065       1497.9711      1497.9711      1497.9711      1251.0145      2748.9855      1251.0145      2748.9855      1251.0145      2748.9855      3.3613234e+09  0.5            25269900       1.7840923      6040.408       12080.791      7.2264826    
  50130000   311.96625     -0.74515465    -32809069       0.20849887     928.98222     -32808140       1497.9711      1497.9711      1497.9711      1251.0145      2748.9855      1251.0145      2748.9855      1251.0145      2748.9855      3.3613234e+09  0.5            25270000       1.8005992      6058.0353      12116.085      7.2024048    
  50130200   311.97252     -0.75081357    -32809143       0.20849887     929.00089     -32808214       1497.9711      1497.9711      1497.9711      1251.0145      2748.9855      1251.0145      2748.9855      1251.0145      2748.9855      3.3613234e+09  0.5            25270100       1.8170974      6061.3029      12122.6        7.1784422    
  50130400   311.97605     -0.75974824    -32809217       0.20849887     929.01141     -32808288       1497.9711      1497.9711      1497.9711      1251.0145      2748.9855      1251.0145      2748.9855      1251.0145      2748.9855      3.3613234e+09  0.5            25270200       1.8336024      6058.7524      12117.538      7.1546522    
  50130600   311.98591     -0.77069883    -32809292       0.20849887     929.04078     -32808363       1497.9711      1497.9711      1497.9711      1251.0145      2748.9855      1251.0145      2748.9855      1251.0145      2748.9855      3.3613234e+09  0.5            25270300       1.8500975      6062.4149      12124.814      7.1309657    
  50130800   311.97887     -0.78023045    -32809366       0.20849887     929.01981     -32808437       1497.9711      1497.9711      1497.9711      1251.0145      2748.9855      1251.0145      2748.9855      1251.0145      2748.9855      3.3613234e+09  0.5            25270400       1.8665804      6066.8995      12133.803      7.1073711    
  50131000   311.90663     -0.78614798    -32809440       0.20849887     928.80468     -32808511       1497.9711      1497.9711      1497.9711      1251.0145      2748.9855      1251.0145      2748.9855      1251.0145      2748.9855      3.3613234e+09  0.5            25270500       1.8831066      6050.9956      12102.007      7.0840746    
  50131200   311.80848     -0.78982926    -32809514       0.20849887     928.5124      -32808585       1497.9711      1497.9711      1497.9711      1251.0145      2748.9855      1251.0145      2748.9855      1251.0145      2748.9855      3.3613234e+09  0.5            25270600       1.899602       6062.2804      12124.536      7.0607922    
  50131400   311.71552     -0.79450469    -32809587       0.20849887     928.2356      -32808659       1497.9711      1497.9711      1497.9711      1251.0145      2748.9855      1251.0145      2748.9855      1251.0145      2748.9855      3.3613234e+09  0.5            25270700       1.9161081      6058.3744      12116.743      7.0376752    
  50131600   311.6782      -0.80144421    -32809660       0.20849887     928.12445     -32808732       1497.9711      1497.9711      1497.9711      1251.0145      2748.9855      1251.0145      2748.9855      1251.0145      2748.9855      3.3613234e+09  0.5            25270800       1.932589       6067.6431      12135.288      7.0145892    
  50131800   311.70821     -0.81002496    -32809734       0.20849887     928.21382     -32808806       1497.9711      1497.9711      1497.9711      1251.0145      2748.9855      1251.0145      2748.9855      1251.0145      2748.9855      3.3613234e+09  0.5            25270900       1.9490603      6071.1669      12142.333      6.99159      
  50132000   311.75577     -0.81881964    -32809807       0.20849887     928.35544     -32808879       1497.9711      1497.9711      1497.9711      1251.0145      2748.9855      1251.0145      2748.9855      1251.0145      2748.9855      3.3613234e+09  0.5            25271000       1.9655574      6061.6714      12123.36       6.9688011    
  50132200   311.81726     -0.82732265    -32809881       0.20849887     928.53856     -32808952       1497.9711      1497.9711      1497.9711      1251.0145      2748.9855      1251.0145      2748.9855      1251.0145      2748.9855      3.3613234e+09  0.5            25271100       1.9820772      6053.3289      12106.628      6.9462055    
  50132400   311.8514      -0.83567335    -32809954       0.20849887     928.64022     -32809026       1497.9711      1497.9711      1497.9711      1251.0145      2748.9855      1251.0145      2748.9855      1251.0145      2748.9855      3.3613234e+09  0.5            25271200       1.9985785      6060.1374      12120.276      6.9236536    
  50132600   311.85571     -0.84389484    -32810028       0.20849887     928.65304     -32809099       1497.9711      1497.9711      1497.9711      1251.0145      2748.9855      1251.0145      2748.9855      1251.0145      2748.9855      3.3613234e+09  0.5            25271300       2.0150629      6066.3559      12132.713      6.9011511    
  50132800   311.84061     -0.85216917    -32810101       0.20849887     928.60809     -32809172       1497.9711      1497.9711      1497.9711      1251.0145      2748.9855      1251.0145      2748.9855      1251.0145      2748.9855      3.3613234e+09  0.5            25271400       2.0315443      6067.4244      12134.855      6.8787443    
  50133000   311.79786     -0.86004443    -32810174       0.20849887     928.48078     -32809246       1497.9711      1497.9711      1497.9711      1251.0145      2748.9855      1251.0145      2748.9855      1251.0145      2748.9855      3.3613234e+09  0.5            25271500       2.0480576      6055.7248      12111.478      6.8565469    
  50133200   311.76327     -0.86714373    -32810247       0.20849887     928.37778     -32809319       1497.9711      1497.9711      1497.9711      1251.0145      2748.9855      1251.0145      2748.9855      1251.0145      2748.9855      3.3613234e+09  0.5            25271600       2.0645376      6067.9619      12135.925      6.8343377    
  50133400   311.72375     -0.87395974    -32810320       0.20849887     928.2601      -32809392       1497.9711      1497.9711      1497.9711      1251.0145      2748.9855      1251.0145      2748.9855      1251.0145      2748.9855      3.3613234e+09  0.5            25271700       2.0810755      6046.7312      12093.448      6.8124157    
  50133600   311.70158     -0.88208006    -32810393       0.20849887     928.19409     -32809465       1497.9711      1497.9711      1497.9711      1251.0145      2748.9855      1251.0145      2748.9855      1251.0145      2748.9855      3.3613234e+09  0.5            25271800       2.0975697      6062.7412      12125.491      6.7904435    
  50133800   311.72796     -0.89241483    -32810466       0.20849887     928.27263     -32809538       1497.9711      1497.9711      1497.9711      1251.0145      2748.9855      1251.0145      2748.9855      1251.0145      2748.9855      3.3613234e+09  0.5            25271900       2.1140465      6069.1312      12138.249      6.7685079    
  50134000   311.79852     -0.90412759    -32810539       0.20849887     928.48276     -32809611       1497.9711      1497.9711      1497.9711      1251.0145      2748.9855      1251.0145      2748.9855      1251.0145      2748.9855      3.3613234e+09  0.5            25272000       2.1305482      6059.96        12119.886      6.7467422    
  50134200   311.93007     -0.91604193    -32810613       0.20849887     928.87448     -32809684       1497.9711      1497.9711      1497.9711      1251.0145      2748.9855      1251.0145      2748.9855      1251.0145      2748.9855      3.3613234e+09  0.5            25272100       2.1470471      6061.005       12122.045      6.7250546    
  50134400   312.09741     -0.88699563    -32803309       0.20849887     929.3728      -32802380       1497.9711      1497.9711      1497.9711      1251.0145      2748.9855      1251.0145      2748.9855      1251.0145      2748.9855      3.3613234e+09  0.5            25272200       2.163544       6061.7629      12123.527      6.7034456    
  50134600   312.23985     -0.89569658    -32803383       0.20849887     929.79695     -32802454       1497.9711      1497.9711      1497.9711      1251.0145      2748.9855      1251.0145      2748.9855      1251.0145      2748.9855      3.3613234e+09  0.5            25272300       2.1800918      6043.087       12086.146      6.6820761    
  50134800   312.2936      -0.90108464    -32803458       0.20849887     929.95702     -32802528       1497.9711      1497.9711      1497.9711      1251.0145      2748.9855      1251.0145      2748.9855      1251.0145      2748.9855      3.3613234e+09  0.5            25272400       2.1965866      6062.5398      12125.102      6.6606232    
  50135000   312.22488     -0.90521537    -32803533       0.20849887     929.75237     -32802603       1497.9711      1497.9711      1497.9711      1251.0145      2748.9855      1251.0145      2748.9855      1251.0145      2748.9855      3.3613234e+09  0.5            25272500       2.2131093      6052.2569      12104.521      6.6393336    
  50135200   312.1176      -0.9118192     -32803607       0.20849887     929.43292     -32802677       1497.9711      1497.9711      1497.9711      1251.0145      2748.9855      1251.0145      2748.9855      1251.0145      2748.9855      3.3613234e+09  0.5            25272600       2.2296321      6052.2433      12104.49       6.6181203    
  50135400   312.04308     -0.92324836    -32803681       0.20849887     929.21101     -32802752       1497.9711      1497.9711      1497.9711      1251.0145      2748.9855      1251.0145      2748.9855      1251.0145      2748.9855      3.3613234e+09  0.5            25272700       2.2461186      6065.5824      12131.172      6.5968736    
  50135600   312.06212     -0.9777911     -32811133       0.20849887     929.2677      -32810204       1497.9711      1497.9711      1497.9711      1251.0145      2748.9855      1251.0145      2748.9855      1251.0145      2748.9855      3.3613234e+09  0.5            25272800       2.262925       5950.0895      11895.074      6.5766527    
  50135800   312.22621     -0.99160871    -32811208       0.20849887     929.75633     -32810279       1497.9711      1497.9711      1497.9711      1251.0145      2748.9855      1251.0145      2748.9855      1251.0145      2748.9855      3.3613234e+09  0.5            25272900       2.279461       6047.4369      12100.118      6.5556648    
  50136000   312.32354     -1.003074      -32811284       0.20849887     930.04616     -32810354       1497.9711      1497.9711      1497.9711      1251.0145      2748.9855      1251.0145      2748.9855      1251.0145      2748.9855      3.3613234e+09  0.5            25273000       2.2959939      6048.5636      12097.149      6.5347572    
  50136200   312.37843     -1.0143774     -32811359       0.20849887     930.20961     -32810429       1497.9711      1497.9711      1497.9711      1251.0145      2748.9855      1251.0145      2748.9855      1251.0145      2748.9855      3.3613234e+09  0.5            25273100       2.3124659      6070.9093      12141.805      6.5137452    
  50136400   312.39384     -1.0268286     -32811435       0.20849887     930.2555      -32810505       1497.9711      1497.9711      1497.9711      1251.0145      2748.9855      1251.0145      2748.9855      1251.0145      2748.9855      3.3613234e+09  0.5            25273200       2.3289505      6066.2455      12132.477      6.4928373    
  50136600   312.38391     -1.0393399     -32811511       0.20849887     930.22594     -32810580       1497.9711      1497.9711      1497.9711      1251.0145      2748.9855      1251.0145      2748.9855      1251.0145      2748.9855      3.3613234e+09  0.5            25273300       2.3454255      6069.8204      12139.67       6.4719688    
  50136800   312.41814     -1.0499744     -32811587       0.20849887     930.32787     -32810656       1497.9711      1497.9711      1497.9711      1251.0145      2748.9855      1251.0145      2748.9855      1251.0145      2748.9855      3.3613234e+09  0.5            25273400       2.3619042      6068.4369      12136.86       6.4511764    
  50137000   312.40024     -1.0584992     -32811663       0.20849887     930.27457     -32810733       1497.9711      1497.9711      1497.9711      1251.0145      2748.9855      1251.0145      2748.9855      1251.0145      2748.9855      3.3613234e+09  0.5            25273500       2.3784681      6037.1916      12074.385      6.4306784    
  50137200   312.38585     -1.0673561     -32811739       0.20849887     930.23171     -32810809       1497.9711      1497.9711      1497.9711      1251.0145      2748.9855      1251.0145      2748.9855      1251.0145      2748.9855      3.3613234e+09  0.5            25273600       2.3949708      6059.624       12119.228      6.4100743    
  50137400   312.41093     -1.0753935     -32811815       0.20849887     930.3064      -32810885       1497.9711      1497.9711      1497.9711      1251.0145      2748.9855      1251.0145      2748.9855      1251.0145      2748.9855      3.3613234e+09  0.5            25273700       2.4114747      6059.1757      12118.36       6.3895331    
  50137600   312.44851     -1.079997      -32811892       0.20849887     930.41831     -32810962       1497.9711      1497.9711      1497.9711      1251.0145      2748.9855      1251.0145      2748.9855      1251.0145      2748.9855      3.3613234e+09  0.5            25273800       2.4279869      6056.1326      12112.259      6.3690722    
  50137800   312.43932     -1.0814928     -32811969       0.20849887     930.39095     -32811038       1497.9711      1497.9711      1497.9711      1251.0145      2748.9855      1251.0145      2748.9855      1251.0145      2748.9855      3.3613234e+09  0.5            25273900       2.4444951      6057.611       12115.24       6.3486576    
  50138000   312.36119     -1.0826808     -32812045       0.20849887     930.15827     -32811115       1497.9711      1497.9711      1497.9711      1251.0145      2748.9855      1251.0145      2748.9855      1251.0145      2748.9855      3.3613234e+09  0.5            25274000       2.4610274      6048.7717      12097.539      6.328361     
  50138200   312.28662     -1.0850831     -32812121       0.20849887     929.93622     -32811191       1497.9711      1497.9711      1497.9711      1251.0145      2748.9855      1251.0145      2748.9855      1251.0145      2748.9855      3.3613234e+09  0.5            25274100       2.4775238      6061.9356      12123.873      6.3080263    
  50138400   312.23031     -1.0888833     -32812197       0.20849887     929.76855     -32811267       1497.9711      1497.9711      1497.9711      1251.0145      2748.9855      1251.0145      2748.9855      1251.0145      2748.9855      3.3613234e+09  0.5            25274200       2.4940724      6042.7999      12085.606      6.2878774    
  50138600   312.18718     -1.0930196     -32812273       0.20849887     929.64011     -32811344       1497.9711      1497.9711      1497.9711      1251.0145      2748.9855      1251.0145      2748.9855      1251.0145      2748.9855      3.3613234e+09  0.5            25274300       2.5105508      6068.5323      12137.058      6.2676037    
  50138800   312.14387     -1.097643      -32812349       0.20849887     929.51115     -32811419       1497.9711      1497.9711      1497.9711      1251.0145      2748.9855      1251.0145      2748.9855      1251.0145      2748.9855      3.3613234e+09  0.5            25274400       2.5270694      6053.8045      12107.621      6.2474817    
  50139000   312.0884      -1.1023107     -32812425       0.20849887     929.34597     -32811495       1497.9711      1497.9711      1497.9711      1251.0145      2748.9855      1251.0145      2748.9855      1251.0145      2748.9855      3.3613234e+09  0.5            25274500       2.5435841      6055.2144      12110.4        6.2274002    
  50139200   312.05292     -1.1054196     -32812500       0.20849887     929.2403      -32811571       1497.9711      1497.9711      1497.9711      1251.0145      2748.9855      1251.0145      2748.9855      1251.0145      2748.9855      3.3613234e+09  0.5            25274600       2.5600946      6056.7301      12113.449      6.2073575    
  50139400   312.00811     -1.1074775     -32812575       0.20849887     929.10688     -32811646       1497.9711      1497.9711      1497.9711      1251.0145      2748.9855      1251.0145      2748.9855      1251.0145      2748.9855      3.3613234e+09  0.5            25274700       2.5765949      6060.5153      12121.078      6.1873377    
  50139600   311.99304     -1.1119425     -32812650       0.20849887     929.062       -32811721       1497.9711      1497.9711      1497.9711      1251.0145      2748.9855      1251.0145      2748.9855      1251.0145      2748.9855      3.3613234e+09  0.5            25274800       2.5931605      6036.6001      12073.209      6.1675212    
  50139800   312.04364     -1.117961      -32812726       0.20849887     929.21268     -32811796       1497.9711      1497.9711      1497.9711      1251.0145      2748.9855      1251.0145      2748.9855      1251.0145      2748.9855      3.3613234e+09  0.5            25274900       2.609654       6062.9684      12125.91       6.1475788    
  50140000   312.08721     -1.1210664     -32812801       0.20849887     929.34243     -32811872       1497.9711      1497.9711      1497.9711      1251.0145      2748.9855      1251.0145      2748.9855      1251.0145      2748.9855      3.3613234e+09  0.5            25275000       2.6261739      6053.3292      12106.666      6.1277435    
  50140200   312.09275     -1.1215527     -32812876       0.20849887     929.35891     -32811947       1497.9711      1497.9711      1497.9711      1251.0145      2748.9855      1251.0145      2748.9855      1251.0145      2748.9855      3.3613234e+09  0.5            25275100       2.6426526      6068.4458      12136.902      6.107857     
  50140400   312.05912     -1.1234213     -32812951       0.20849887     929.25877     -32812022       1497.9711      1497.9711      1497.9711      1251.0145      2748.9855      1251.0145      2748.9855      1251.0145      2748.9855      3.3613234e+09  0.5            25275200       2.6591545      6059.9068      12119.803      6.0880685    
  50140600   312.05673     -1.1297814     -32813026       0.20849887     929.25164     -32812097       1497.9711      1497.9711      1497.9711      1251.0145      2748.9855      1251.0145      2748.9855      1251.0145      2748.9855      3.3613234e+09  0.5            25275300       2.675646       6063.7063      12127.414      6.0682996    
  50140800   312.10594     -1.138779      -32813101       0.20849887     929.39818     -32812172       1497.9711      1497.9711      1497.9711      1251.0145      2748.9855      1251.0145      2748.9855      1251.0145      2748.9855      3.3613234e+09  0.5            25275400       2.6921655      6053.4714      12106.913      6.0486358    
  50141000   312.14828     -1.1481636     -32813177       0.20849887     929.52426     -32812247       1497.9711      1497.9711      1497.9711      1251.0145      2748.9855      1251.0145      2748.9855      1251.0145      2748.9855      3.3613234e+09  0.5            25275500       2.7086609      6062.298       12124.602      6.0289591    
  50141200   312.22787     -1.1585682     -32813252       0.20849887     929.76129     -32812322       1497.9711      1497.9711      1497.9711      1251.0145      2748.9855      1251.0145      2748.9855      1251.0145      2748.9855      3.3613234e+09  0.5            25275600       2.7251254      6073.6578      12147.312      6.0092552    
  50141400   312.36802     -1.1257905     -32805950       0.20849887     930.17861     -32805020       1497.9711      1497.9711      1497.9711      1251.0145      2748.9855      1251.0145      2748.9855      1251.0145      2748.9855      3.3613234e+09  0.5            25275700       2.7416107      6066.0273      12132.052      5.9896377    
  50141600   312.45561     -1.1248852     -32806026       0.20849887     930.43946     -32805096       1497.9711      1497.9711      1497.9711      1251.0145      2748.9855      1251.0145      2748.9855      1251.0145      2748.9855      3.3613234e+09  0.5            25275800       2.7581072      6061.8893      12123.803      5.9700841    
  50141800   312.39442     -1.1169546     -32806102       0.20849887     930.25724     -32805172       1497.9711      1497.9711      1497.9711      1251.0145      2748.9855      1251.0145      2748.9855      1251.0145      2748.9855      3.3613234e+09  0.5            25275900       2.774613       6058.4705      12116.95       5.9505892    
  50142000   312.19572     -1.1084299     -32806178       0.20849887     929.66553     -32805248       1497.9711      1497.9711      1497.9711      1251.0145      2748.9855      1251.0145      2748.9855      1251.0145      2748.9855      3.3613234e+09  0.5            25276000       2.7914594      5935.9902      11871.962      5.9318555    
  50142200   312.06663     -1.1063528     -32806253       0.20849887     929.28115     -32805323       1497.9711      1497.9711      1497.9711      1251.0145      2748.9855      1251.0145      2748.9855      1251.0145      2748.9855      3.3613234e+09  0.5            25276100       2.8079472      6065.0751      12130.182      5.9123898    
  50142400   312.0986      -1.1087345     -32806328       0.20849887     929.37634     -32805399       1497.9711      1497.9711      1497.9711      1251.0145      2748.9855      1251.0145      2748.9855      1251.0145      2748.9855      3.3613234e+09  0.5            25276200       2.8244191      6070.9432      12141.875      5.8929278    
  50142600   312.21177     -1.1099991     -32806404       0.20849887     929.71334     -32805474       1497.9711      1497.9711      1497.9711      1251.0145      2748.9855      1251.0145      2748.9855      1251.0145      2748.9855      3.3613234e+09  0.5            25276300       2.8409097      6064.0626      12128.111      5.8735413    
  50142800   312.27775     -1.1096645     -32806480       0.20849887     929.9098      -32805550       1497.9711      1497.9711      1497.9711      1251.0145      2748.9855      1251.0145      2748.9855      1251.0145      2748.9855      3.3613234e+09  0.5            25276400       2.8573949      6066.0869      12132.187      5.8541787    
  50143000   312.25344     -1.1125374     -32806556       0.20849887     929.83744     -32805626       1497.9711      1497.9711      1497.9711      1251.0145      2748.9855      1251.0145      2748.9855      1251.0145      2748.9855      3.3613234e+09  0.5            25276500       2.8738947      6060.6674      12121.341      5.8348808    
  50143200   312.2824      -1.1222527     -32806631       0.20849887     929.92366     -32805701       1497.9711      1497.9711      1497.9711      1251.0145      2748.9855      1251.0145      2748.9855      1251.0145      2748.9855      3.3613234e+09  0.5            25276600       2.8904205      6051.1047      12102.187      5.8156694    
  50143400   312.3877      -1.1336068     -32806708       0.20849887     930.23724     -32805777       1497.9711      1497.9711      1497.9711      1251.0145      2748.9855      1251.0145      2748.9855      1251.0145      2748.9855      3.3613234e+09  0.5            25276700       2.9069332      6055.9232      12111.862      5.7964636    
  50143600   312.46645     -1.1409183     -32806784       0.20849887     930.47172     -32805854       1497.9711      1497.9711      1497.9711      1251.0145      2748.9855      1251.0145      2748.9855      1251.0145      2748.9855      3.3613234e+09  0.5            25276800       2.9235106      6032.3462      12064.678      5.7774177    
  50143800   312.45431     -1.14605       -32806860       0.20849887     930.43559     -32805930       1497.9711      1497.9711      1497.9711      1251.0145      2748.9855      1251.0145      2748.9855      1251.0145      2748.9855      3.3613234e+09  0.5            25276900       2.9400295      6053.6744      12107.363      5.7582864    
  50144000   312.37218     -1.1511423     -32806937       0.20849887     930.19101     -32806006       1497.9711      1497.9711      1497.9711      1251.0145      2748.9855      1251.0145      2748.9855      1251.0145      2748.9855      3.3613234e+09  0.5            25277000       2.9565436      6055.4527      12110.894      5.7391765    
  50144200   312.30085     -1.1561354     -32807013       0.20849887     929.97862     -32806083       1497.9711      1497.9711      1497.9711      1251.0145      2748.9855      1251.0145      2748.9855      1251.0145      2748.9855      3.3613234e+09  0.5            25277100       2.9730354      6063.6085      12127.233      5.7200543    
  50144400   312.24897     -1.1624967     -32807089       0.20849887     929.82412     -32806159       1497.9711      1497.9711      1497.9711      1251.0145      2748.9855      1251.0145      2748.9855      1251.0145      2748.9855      3.3613234e+09  0.5            25277200       2.9895501      6055.2026      12110.418      5.701006     
  50144600   312.25533     -1.1706558     -32807165       0.20849887     929.84305     -32806235       1497.9711      1497.9711      1497.9711      1251.0145      2748.9855      1251.0145      2748.9855      1251.0145      2748.9855      3.3613234e+09  0.5            25277300       3.0060456      6062.2657      12124.509      5.681951     
  50144800   312.32193     -1.1792514     -32807241       0.20849887     930.04138     -32806311       1497.9711      1497.9711      1497.9711      1251.0145      2748.9855      1251.0145      2748.9855      1251.0145      2748.9855      3.3613234e+09  0.5            25277400       3.0225294      6066.5406      12133.1        5.6629037    
  50145000   312.38618     -1.1868552     -32807318       0.20849887     930.23271     -32806388       1497.9711      1497.9711      1497.9711      1251.0145      2748.9855      1251.0145      2748.9855      1251.0145      2748.9855      3.3613234e+09  0.5            25277500       3.0390518      6052.4214      12104.843      5.6439567    
  50145200   312.41642     -1.1910928     -32807394       0.20849887     930.32274     -32806464       1497.9711      1497.9711      1497.9711      1251.0145      2748.9855      1251.0145      2748.9855      1251.0145      2748.9855      3.3613234e+09  0.5            25277600       3.0555485      6061.817       12123.59       5.6249907    
  50145400   312.35092     -1.1920194     -32807471       0.20849887     930.12771     -32806541       1497.9711      1497.9711      1497.9711      1251.0145      2748.9855      1251.0145      2748.9855      1251.0145      2748.9855      3.3613234e+09  0.5            25277700       3.0720704      6052.5719      12105.171      5.606098     
  50145600   312.23974     -1.1912674     -32807547       0.20849887     929.79664     -32806617       1497.9711      1497.9711      1497.9711      1251.0145      2748.9855      1251.0145      2748.9855      1251.0145      2748.9855      3.3613234e+09  0.5            25277800       3.0885874      6054.3686      12108.744      5.5872232    
  50145800   312.11709     -1.1886616     -32807623       0.20849887     929.43141     -32806693       1497.9711      1497.9711      1497.9711      1251.0145      2748.9855      1251.0145      2748.9855      1251.0145      2748.9855      3.3613234e+09  0.5            25277900       3.1050724      6066.0946      12132.194      5.5683177    
  50146000   311.98792     -1.1878844     -32807698       0.20849887     929.04676     -32806769       1497.9711      1497.9711      1497.9711      1251.0145      2748.9855      1251.0145      2748.9855      1251.0145      2748.9855      3.3613234e+09  0.5            25278000       3.1215738      6060.1172      12120.256      5.5494678    
  50146200   311.96357     -1.2311404     -32815151       0.20849887     928.97423     -32814222       1497.9711      1497.9711      1497.9711      1251.0145      2748.9855      1251.0145      2748.9855      1251.0145      2748.9855      3.3613234e+09  0.5            25278100       3.1380598      6065.7594      12131.469      5.530617     
  50146400   312.04536     -1.2365808     -32815227       0.20849887     929.21781     -32814298       1497.9711      1497.9711      1497.9711      1251.0145      2748.9855      1251.0145      2748.9855      1251.0145      2748.9855      3.3613234e+09  0.5            25278200       3.1545207      6074.975       12149.939      5.5117484    
  50146600   312.12217     -1.2418567     -32815303       0.20849887     929.44653     -32814373       1497.9711      1497.9711      1497.9711      1251.0145      2748.9855      1251.0145      2748.9855      1251.0145      2748.9855      3.3613234e+09  0.5            25278300       3.1709947      6070.173       12140.348      5.4929287    
  50146800   312.14927     -1.2462641     -32815378       0.20849887     929.52724     -32814449       1497.9711      1497.9711      1497.9711      1251.0145      2748.9855      1251.0145      2748.9855      1251.0145      2748.9855      3.3613234e+09  0.5            25278400       3.1874868      6063.514       12127.013      5.4741655    
  50147000   312.1167      -1.2501368     -32815454       0.20849887     929.43024     -32814524       1497.9711      1497.9711      1497.9711      1251.0145      2748.9855      1251.0145      2748.9855      1251.0145      2748.9855      3.3613234e+09  0.5            25278500       3.2039759      6064.6028      12129.268      5.4554217    
  50147200   312.0866      -1.2528017     -32815529       0.20849887     929.34062     -32814600       1497.9711      1497.9711      1497.9711      1251.0145      2748.9855      1251.0145      2748.9855      1251.0145      2748.9855      3.3613234e+09  0.5            25278600       3.220456       6067.9181      12135.806      5.4366871    
  50147400   312.05098     -1.2555081     -32815604       0.20849887     929.23455     -32814675       1497.9711      1497.9711      1497.9711      1251.0145      2748.9855      1251.0145      2748.9855      1251.0145      2748.9855      3.3613234e+09  0.5            25278700       3.2369636      6057.8415      12115.668      5.4180225    
  50147600   312.05164     -1.2607374     -32815679       0.20849887     929.23651     -32814750       1497.9711      1497.9711      1497.9711      1251.0145      2748.9855      1251.0145      2748.9855      1251.0145      2748.9855      3.3613234e+09  0.5            25278800       3.2534484      6066.1833      12132.393      5.3993431    
  50147800   312.06519     -1.2653221     -32815755       0.20849887     929.27684     -32814825       1497.9711      1497.9711      1497.9711      1251.0145      2748.9855      1251.0145      2748.9855      1251.0145      2748.9855      3.3613234e+09  0.5            25278900       3.2699238      6069.6653      12139.336      5.3806845    
  50148000   311.98235     -1.2685881     -32815830       0.20849887     929.03018     -32814901       1497.9711      1497.9711      1497.9711      1251.0145      2748.9855      1251.0145      2748.9855      1251.0145      2748.9855      3.3613234e+09  0.5            25279000       3.2868001      5925.4368      11850.812      5.3626773    
  50148200   311.88144     -1.2763638     -32815904       0.20849887     928.72967     -32814975       1497.9711      1497.9711      1497.9711      1251.0145      2748.9855      1251.0145      2748.9855      1251.0145      2748.9855      3.3613234e+09  0.5            25279100       3.3032836      6066.6834      12133.382      5.3440589    
  50148400   311.86467     -1.2896101     -32815978       0.20849887     928.67974     -32815050       1497.9711      1497.9711      1497.9711      1251.0145      2748.9855      1251.0145      2748.9855      1251.0145      2748.9855      3.3613234e+09  0.5            25279200       3.3197749      6063.8074      12127.642      5.3254754    
  50148600   311.92701     -1.3021065     -32816053       0.20849887     928.86538     -32815124       1497.9711      1497.9711      1497.9711      1251.0145      2748.9855      1251.0145      2748.9855      1251.0145      2748.9855      3.3613234e+09  0.5            25279300       3.3362673      6063.3926      12126.794      5.3069153    
  50148800   311.9412      -1.3103732     -32816128       0.20849887     928.90763     -32815199       1497.9711      1497.9711      1497.9711      1251.0145      2748.9855      1251.0145      2748.9855      1251.0145      2748.9855      3.3613234e+09  0.5            25279400       3.3527497      6067.0993      12134.211      5.2883608    
  50149000   311.90803     -1.3184664     -32816202       0.20849887     928.80885     -32815273       1497.9711      1497.9711      1497.9711      1251.0145      2748.9855      1251.0145      2748.9855      1251.0145      2748.9855      3.3613234e+09  0.5            25279500       3.3692678      6053.9709      12107.951      5.2698832    
  50149200   311.93814     -1.324871      -32816277       0.20849887     928.8985      -32815348       1497.9711      1497.9711      1497.9711      1251.0145      2748.9855      1251.0145      2748.9855      1251.0145      2748.9855      3.3613234e+09  0.5            25279600       3.3858055      6046.7626      12093.503      5.2514565    
  50149400   311.94538     -1.3268105     -32816351       0.20849887     928.92007     -32815422       1497.9711      1497.9711      1497.9711      1251.0145      2748.9855      1251.0145      2748.9855      1251.0145      2748.9855      3.3613234e+09  0.5            25279700       3.402316       6056.7646      12113.525      5.2330067    
  50149600   311.87266     -1.3272282     -32816425       0.20849887     928.70352     -32815496       1497.9711      1497.9711      1497.9711      1251.0145      2748.9855      1251.0145      2748.9855      1251.0145      2748.9855      3.3613234e+09  0.5            25279800       3.4188284      6056.0453      12112.116      5.2145795    
  50149800   311.84064     -1.332741      -32816499       0.20849887     928.60817     -32815570       1497.9711      1497.9711      1497.9711      1251.0145      2748.9855      1251.0145      2748.9855      1251.0145      2748.9855      3.3613234e+09  0.5            25279900       3.4353346      6058.3538      12116.697      5.1961622    
  50150000   311.91564     -1.3393083     -32816573       0.20849887     928.83152     -32815644       1497.9711      1497.9711      1497.9711      1251.0145      2748.9855      1251.0145      2748.9855      1251.0145      2748.9855      3.3613234e+09  0.5            25280000       3.4518548      6053.1856      12106.357      5.177785     
  50150200   312.02358     -1.3815664     -32824026       0.20849887     929.15294     -32823096       1497.9711      1497.9711      1497.9711      1251.0145      2748.9855      1251.0145      2748.9855      1251.0145      2748.9855      3.3613234e+09  0.5            25280100       3.4683625      6057.7787      12115.546      5.1594077    
  50150400   312.02372     -1.3819262     -32824100       0.20849887     929.15335     -32823171       1497.9711      1497.9711      1497.9711      1251.0145      2748.9855      1251.0145      2748.9855      1251.0145      2748.9855      3.3613234e+09  0.5            25280200       3.4849239      6038.1525      12076.334      5.1411391    
  50150600   311.94202     -1.3889066     -32824174       0.20849887     928.91007     -32823245       1497.9711      1497.9711      1497.9711      1251.0145      2748.9855      1251.0145      2748.9855      1251.0145      2748.9855      3.3613234e+09  0.5            25280300       3.5014482      6051.6738      12103.333      5.1228112    
  50150800   311.93891     -1.4004127     -32824248       0.20849887     928.9008      -32823319       1497.9711      1497.9711      1497.9711      1251.0145      2748.9855      1251.0145      2748.9855      1251.0145      2748.9855      3.3613234e+09  0.5            25280400       3.5190362      5685.6741      11371.339      5.1060554    
  50151000   311.91295     -1.4113405     -32824322       0.20849887     928.8235      -32823393       1497.9711      1497.9711      1497.9711      1251.0145      2748.9855      1251.0145      2748.9855      1251.0145      2748.9855      3.3613234e+09  0.5            25280500       3.5377954      5330.7459      10661.488      5.0909767    
  50151200   311.90816     -1.424831      -32824396       0.20849887     928.80925     -32823467       1497.9711      1497.9711      1497.9711      1251.0145      2748.9855      1251.0145      2748.9855      1251.0145      2748.9855      3.3613234e+09  0.5            25280600       3.5543339      6046.468       12092.862      5.0726931    
  50151400   311.98047     -1.4392017     -32824470       0.20849887     929.02456     -32823541       1497.9711      1497.9711      1497.9711      1251.0145      2748.9855      1251.0145      2748.9855      1251.0145      2748.9855      3.3613234e+09  0.5            25280700       3.5708535      6053.4469      12106.949      5.0543992    
  50151600   312.11842     -1.4891569     -32831922       0.20849887     929.43536     -32830993       1497.9711      1497.9711      1497.9711      1251.0145      2748.9855      1251.0145      2748.9855      1251.0145      2748.9855      3.3613234e+09  0.5            25280800       3.587491       6010.4516      12020.884      5.0362885    
  50151800   312.16423     -1.4925433     -32831997       0.20849887     929.57178     -32831067       1497.9711      1497.9711      1497.9711      1251.0145      2748.9855      1251.0145      2748.9855      1251.0145      2748.9855      3.3613234e+09  0.5            25280900       3.6039954      6059.0428      12118.142      5.0180058    
  50152000   312.07257     -1.4954774     -32832071       0.20849887     929.29882     -32831142       1497.9711      1497.9711      1497.9711      1251.0145      2748.9855      1251.0145      2748.9855      1251.0145      2748.9855      3.3613234e+09  0.5            25281000       3.6204683      6070.5983      12141.18       4.9996969    
  50152200   312.03967     -1.5021993     -32832146       0.20849887     929.20085     -32831216       1497.9711      1497.9711      1497.9711      1251.0145      2748.9855      1251.0145      2748.9855      1251.0145      2748.9855      3.3613234e+09  0.5            25281100       3.6369636      6062.3167      12124.649      4.9814362    
  50152400   312.13361     -1.5097328     -32832220       0.20849887     929.48058     -32831291       1497.9711      1497.9711      1497.9711      1251.0145      2748.9855      1251.0145      2748.9855      1251.0145      2748.9855      3.3613234e+09  0.5            25281200       3.6534211      6076.2567      12152.496      4.9631407    
  50152600   312.25056     -1.5114091     -32832296       0.20849887     929.82885     -32831366       1497.9711      1497.9711      1497.9711      1251.0145      2748.9855      1251.0145      2748.9855      1251.0145      2748.9855      3.3613234e+09  0.5            25281300       3.6698774      6076.7016      12153.396      4.9448609    
  50152800   312.23844     -1.508088      -32832371       0.20849887     929.79275     -32831441       1497.9711      1497.9711      1497.9711      1251.0145      2748.9855      1251.0145      2748.9855      1251.0145      2748.9855      3.3613234e+09  0.5            25281400       3.6864048      6050.5629      12101.151      4.926693     
  50153000   312.15081     -1.5067893     -32832446       0.20849887     929.53182     -32831516       1497.9711      1497.9711      1497.9711      1251.0145      2748.9855      1251.0145      2748.9855      1251.0145      2748.9855      3.3613234e+09  0.5            25281500       3.702889       6066.4         12132.767      4.9084834    
  50153200   312.13674     -1.505983      -32832521       0.20849887     929.48992     -32831591       1497.9711      1497.9711      1497.9711      1251.0145      2748.9855      1251.0145      2748.9855      1251.0145      2748.9855      3.3613234e+09  0.5            25281600       3.7193686      6068.1121      12136.26       4.8902835    
  50153400   312.11639     -1.5016834     -32832596       0.20849887     929.42932     -32831666       1497.9711      1497.9711      1497.9711      1251.0145      2748.9855      1251.0145      2748.9855      1251.0145      2748.9855      3.3613234e+09  0.5            25281700       3.7358338      6073.4372      12146.859      4.8720806    
  50153600   312.01386     -1.4937142     -32832670       0.20849887     929.12401     -32831741       1497.9711      1497.9711      1497.9711      1251.0145      2748.9855      1251.0145      2748.9855      1251.0145      2748.9855      3.3613234e+09  0.5            25281800       3.7523073      6070.3385      12140.689      4.8539045    
  50153800   311.85203     -1.4862992     -32832745       0.20849887     928.64209     -32831816       1497.9711      1497.9711      1497.9711      1251.0145      2748.9855      1251.0145      2748.9855      1251.0145      2748.9855      3.3613234e+09  0.5            25281900       3.7690937      5957.1648      11914.32       4.8361458    
  50154000   311.70844     -1.4816495     -32832818       0.20849887     928.2145      -32831890       1497.9711      1497.9711      1497.9711      1251.0145      2748.9855      1251.0145      2748.9855      1251.0145      2748.9855      3.3613234e+09  0.5            25282000       3.7856443      6042.1263      12084.245      4.8180953    
  50154200   311.63469     -1.4779085     -32832892       0.20849887     927.99488     -32831964       1497.9711      1497.9711      1497.9711      1251.0145      2748.9855      1251.0145      2748.9855      1251.0145      2748.9855      3.3613234e+09  0.5            25282100       3.8021513      6058.0397      12116.102      4.8000033    
  50154400   311.61341     -1.4778134     -32832965       0.20849887     927.93152     -32832037       1497.9711      1497.9711      1497.9711      1251.0145      2748.9855      1251.0145      2748.9855      1251.0145      2748.9855      3.3613234e+09  0.5            25282200       3.8186437      6063.3735      12126.746      4.7819076    
  50154600   311.70499     -1.4815832     -32833039       0.20849887     928.20424     -32832111       1497.9711      1497.9711      1497.9711      1251.0145      2748.9855      1251.0145      2748.9855      1251.0145      2748.9855      3.3613234e+09  0.5            25282300       3.8351524      6057.4235      12114.859      4.7638464    
[...]
  50199200   308.54722     -1.8529528     -32832745       0.20849887     918.80094     -32831826       1497.9711      1497.9711      1497.9711      1251.0145      2748.9855      1251.0145      2748.9855      1251.0145      2748.9855      3.3613234e+09  0.5            25304600       7.5126467      5948.9033      11897.809      0.90960321   
  50199400   308.59029     -1.8606593     -32832797       0.20849887     918.92918     -32831878       1497.9711      1497.9711      1497.9711      1251.0145      2748.9855      1251.0145      2748.9855      1251.0145      2748.9855      3.3613234e+09  0.5            25304700       7.5291357      6064.6646      12129.308      0.89271655   
  50199600   308.6659      -1.8685276     -32832850       0.20849887     919.15435     -32831931       1497.9711      1497.9711      1497.9711      1251.0145      2748.9855      1251.0145      2748.9855      1251.0145      2748.9855      3.3613234e+09  0.5            25304800       7.5456339      6061.2452      12122.521      0.87583274   
  50199800   308.72677     -1.8752362     -32832903       0.20849887     919.3356      -32831983       1497.9711      1497.9711      1497.9711      1251.0145      2748.9855      1251.0145      2748.9855      1251.0145      2748.9855      3.3613234e+09  0.5            25304900       7.5621273      6063.0456      12126.09       0.85895009   
  50200000   308.72764     -1.8791686     -32832956       0.20849887     919.33819     -32832036       1497.9711      1497.9711      1497.9711      1251.0145      2748.9855      1251.0145      2748.9855      1251.0145      2748.9855      3.3613234e+09  0.5            25305000       7.5985373      2746.4841      5492.9608      0.84428216   
  50200200   308.67198     -1.8814876     -32833009       0.20849887     919.17246     -32832089       1497.9711      1497.9711      1497.9711      1251.0145      2748.9855      1251.0145      2748.9855      1251.0145      2748.9855      3.3613234e+09  0.5            25305100       7.6150686      6049.1742      12098.351      0.82735802   
  50200400   308.62382     -1.8846144     -32833061       0.20849887     919.02902     -32832142       1497.9711      1497.9711      1497.9711      1251.0145      2748.9855      1251.0145      2748.9855      1251.0145      2748.9855      3.3613234e+09  0.5            25305200       7.6315721      6059.3483      12118.717      0.81043265   
  50200600   308.63136     -1.8871932     -32833114       0.20849887     919.05149     -32832195       1497.9711      1497.9711      1497.9711      1251.0145      2748.9855      1251.0145      2748.9855      1251.0145      2748.9855      3.3613234e+09  0.5            25305300       7.6480904      6053.8829      12107.773      0.79351068   
  50200800   308.68024     -1.8895282     -32833167       0.20849887     919.19705     -32832248       1497.9711      1497.9711      1497.9711      1251.0145      2748.9855      1251.0145      2748.9855      1251.0145      2748.9855      3.3613234e+09  0.5            25305400       7.6646094      6053.6268      12107.243      0.77659058   
  50201000   308.76307     -1.892539      -32833221       0.20849887     919.44369     -32832301       1497.9711      1497.9711      1497.9711      1251.0145      2748.9855      1251.0145      2748.9855      1251.0145      2748.9855      3.3613234e+09  0.5            25305500       7.6811522      6044.9427      12089.866      0.75967459   
  50201200   308.82515     -1.8925138     -32833274       0.20849887     919.62855     -32832355       1497.9711      1497.9711      1497.9711      1251.0145      2748.9855      1251.0145      2748.9855      1251.0145      2748.9855      3.3613234e+09  0.5            25305600       7.6976969      6044.2335      12088.482      0.74276042   
  50201400   308.76861     -1.8899489     -32833328       0.20849887     919.46018     -32832408       1497.9711      1497.9711      1497.9711      1251.0145      2748.9855      1251.0145      2748.9855      1251.0145      2748.9855      3.3613234e+09  0.5            25305700       7.7141885      6063.6897      12127.395      0.72584287   
  50201600   308.65834     -1.8907593     -32833381       0.20849887     919.13184     -32832462       1497.9711      1497.9711      1497.9711      1251.0145      2748.9855      1251.0145      2748.9855      1251.0145      2748.9855      3.3613234e+09  0.5            25305800       7.7306744      6065.7892      12131.543      0.70892666   
  50201800   308.63369     -1.8965783     -32833434       0.20849887     919.05841     -32832515       1497.9711      1497.9711      1497.9711      1251.0145      2748.9855      1251.0145      2748.9855      1251.0145      2748.9855      3.3613234e+09  0.5            25305900       7.7471772      6059.5939      12119.221      0.69201382   
  50202000   308.67856     -1.9018373     -32833487       0.20849887     919.19203     -32832568       1497.9711      1497.9711      1497.9711      1251.0145      2748.9855      1251.0145      2748.9855      1251.0145      2748.9855      3.3613234e+09  0.5            25306000       7.7636781      6060.2615      12120.529      0.67510261   
  50202200   308.68343     -1.9053838     -32833541       0.20849887     919.20654     -32832621       1497.9711      1497.9711      1497.9711      1251.0145      2748.9855      1251.0145      2748.9855      1251.0145      2748.9855      3.3613234e+09  0.5            25306100       7.7801732      6062.4138      12124.798      0.65819269   
  50202400   308.66392     -1.9113568     -32833594       0.20849887     919.14843     -32832674       1497.9711      1497.9711      1497.9711      1251.0145      2748.9855      1251.0145      2748.9855      1251.0145      2748.9855      3.3613234e+09  0.5            25306200       7.7966832      6056.9334      12113.871      0.64128579   
  50202600   308.69454     -1.9195503     -32833647       0.20849887     919.23962     -32832728       1497.9711      1497.9711      1497.9711      1251.0145      2748.9855      1251.0145      2748.9855      1251.0145      2748.9855      3.3613234e+09  0.5            25306300       7.8131651      6067.2738      12134.544      0.62437836   
  50202800   308.74096     -1.9241164     -32833700       0.20849887     919.37787     -32832781       1497.9711      1497.9711      1497.9711      1251.0145      2748.9855      1251.0145      2748.9855      1251.0145      2748.9855      3.3613234e+09  0.5            25306400       7.8296354      6071.4983      12143.006      0.60747187   
  50203000   308.68368     -1.9244797     -32833754       0.20849887     919.2073      -32832834       1497.9711      1497.9711      1497.9711      1251.0145      2748.9855      1251.0145      2748.9855      1251.0145      2748.9855      3.3613234e+09  0.5            25306500       7.8461442      6057.3993      12114.812      0.59057014   
  50203200   308.5964      -1.9269342     -32833807       0.20849887     918.94738     -32832888       1497.9711      1497.9711      1497.9711      1251.0145      2748.9855      1251.0145      2748.9855      1251.0145      2748.9855      3.3613234e+09  0.5            25306600       7.8626017      6076.2589      12152.49       0.57366636   
  50203400   308.55144     -1.9298116     -32833859       0.20849887     918.81351     -32832941       1497.9711      1497.9711      1497.9711      1251.0145      2748.9855      1251.0145      2748.9855      1251.0145      2748.9855      3.3613234e+09  0.5            25306700       7.8790897      6064.9945      12130.022      0.55676664   
  50203600   308.50922     -1.9313819     -32833912       0.20849887     918.68776     -32832994       1497.9711      1497.9711      1497.9711      1251.0145      2748.9855      1251.0145      2748.9855      1251.0145      2748.9855      3.3613234e+09  0.5            25306800       7.8959434      5933.4075      11866.785      0.53989371   
  50203800   308.43686     -1.9336235     -32833965       0.20849887     918.47231     -32833046       1497.9711      1497.9711      1497.9711      1251.0145      2748.9855      1251.0145      2748.9855      1251.0145      2748.9855      3.3613234e+09  0.5            25306900       7.9123966      6077.8591      12155.699      0.52299437   
  50204000   308.42329     -1.9415678     -32834017       0.20849887     918.4319      -32833099       1497.9711      1497.9711      1497.9711      1251.0145      2748.9855      1251.0145      2748.9855      1251.0145      2748.9855      3.3613234e+09  0.5            25307000       7.9288946      6061.3422      12122.728      0.50609978   
  50204200   308.52542     -1.948904      -32834070       0.20849887     918.73601     -32833151       1497.9711      1497.9711      1497.9711      1251.0145      2748.9855      1251.0145      2748.9855      1251.0145      2748.9855      3.3613234e+09  0.5            25307100       7.945388       6063.0232      12126.023      0.4892066    
  50204400   308.54637     -1.9500845     -32834122       0.20849887     918.79841     -32833204       1497.9711      1497.9711      1497.9711      1251.0145      2748.9855      1251.0145      2748.9855      1251.0145      2748.9855      3.3613234e+09  0.5            25307200       7.9618735      6065.9732      12131.95       0.47231464   
  50204600   308.46168     -1.9115021     -32826796       0.20849887     918.54621     -32825878       1497.9711      1497.9711      1497.9711      1251.0145      2748.9855      1251.0145      2748.9855      1251.0145      2748.9855      3.3613234e+09  0.5            25307300       7.9783556      6067.1925      12134.393      0.45542421   
  50204800   308.33898     -1.9145707     -32826848       0.20849887     918.18084     -32825930       1497.9711      1497.9711      1497.9711      1251.0145      2748.9855      1251.0145      2748.9855      1251.0145      2748.9855      3.3613234e+09  0.5            25307400       7.9948743      6053.732       12107.41       0.43853752   
  50205000   308.22141     -1.9197689     -32826899       0.20849887     917.83071     -32825982       1497.9711      1497.9711      1497.9711      1251.0145      2748.9855      1251.0145      2748.9855      1251.0145      2748.9855      3.3613234e+09  0.5            25307500       8.0113601      6065.7793      12131.617      0.42165064   
  50205200   308.18673     -1.9273139     -32826951       0.20849887     917.72746     -32826033       1497.9711      1497.9711      1497.9711      1251.0145      2748.9855      1251.0145      2748.9855      1251.0145      2748.9855      3.3613234e+09  0.5            25307600       8.0278064      6080.4116      12160.833      0.40476345   
  50205400   308.23134     -1.9344124     -32827002       0.20849887     917.8603      -32826084       1497.9711      1497.9711      1497.9711      1251.0145      2748.9855      1251.0145      2748.9855      1251.0145      2748.9855      3.3613234e+09  0.5            25307700       8.0442555      6079.3566      12158.711      0.38787824   
  50205600   308.24328     -1.9359575     -32827053       0.20849887     917.89586     -32826135       1497.9711      1497.9711      1497.9711      1251.0145      2748.9855      1251.0145      2748.9855      1251.0145      2748.9855      3.3613234e+09  0.5            25307800       8.0607017      6080.4397      12160.876      0.37099473   
  50205800   308.15905     -1.9360876     -32827103       0.20849887     917.64502     -32826186       1497.9711      1497.9711      1497.9711      1251.0145      2748.9855      1251.0145      2748.9855      1251.0145      2748.9855      3.3613234e+09  0.5            25307900       8.077173       6071.1478      12142.279      0.35411415   
  50206000   308.12281     -1.9379623     -32827154       0.20849887     917.53712     -32826236       1497.9711      1497.9711      1497.9711      1251.0145      2748.9855      1251.0145      2748.9855      1251.0145      2748.9855      3.3613234e+09  0.5            25308000       8.0937058      6048.5976      12097.19       0.33723783   
  50206200   308.12947     -1.9350387     -32827204       0.20849887     917.55694     -32826287       1497.9711      1497.9711      1497.9711      1251.0145      2748.9855      1251.0145      2748.9855      1251.0145      2748.9855      3.3613234e+09  0.5            25308100       8.1101704      6073.6235      12147.249      0.32036024   
  50206400   308.04814     -1.9283005     -32827254       0.20849887     917.31477     -32826337       1497.9711      1497.9711      1497.9711      1251.0145      2748.9855      1251.0145      2748.9855      1251.0145      2748.9855      3.3613234e+09  0.5            25308200       8.1265997      6086.7029      12173.417      0.30348305   
  50206600   307.96409     -1.9271203     -32827304       0.20849887     917.06447     -32826386       1497.9711      1497.9711      1497.9711      1251.0145      2748.9855      1251.0145      2748.9855      1251.0145      2748.9855      3.3613234e+09  0.5            25308300       8.1430586      6075.7309      12151.472      0.28660876   
  50206800   308.03122     -1.9279423     -32827353       0.20849887     917.26437     -32826436       1497.9711      1497.9711      1497.9711      1251.0145      2748.9855      1251.0145      2748.9855      1251.0145      2748.9855      3.3613234e+09  0.5            25308400       8.1594836      6088.2975      12176.575      0.26973506   
  50207000   308.0921      -1.9216487     -32827403       0.20849887     917.44567     -32826486       1497.9711      1497.9711      1497.9711      1251.0145      2748.9855      1251.0145      2748.9855      1251.0145      2748.9855      3.3613234e+09  0.5            25308500       8.1762137      5977.2574      11954.52       0.25287265   
  50207200   307.99673     -1.9100157     -32827453       0.20849887     917.16168     -32826535       1497.9711      1497.9711      1497.9711      1251.0145      2748.9855      1251.0145      2748.9855      1251.0145      2748.9855      3.3613234e+09  0.5            25308600       8.1929503      5974.8817      11949.772      0.23601097   
  50207400   307.84098     -1.9021401     -32827501       0.20849887     916.69789     -32826585       1497.9711      1497.9711      1497.9711      1251.0145      2748.9855      1251.0145      2748.9855      1251.0145      2748.9855      3.3613234e+09  0.5            25308700       8.209417       6072.895       12145.749      0.2191426    
  50207600   307.76284     -1.894973      -32827550       0.20849887     916.46519     -32826633       1497.9711      1497.9711      1497.9711      1251.0145      2748.9855      1251.0145      2748.9855      1251.0145      2748.9855      3.3613234e+09  0.5            25308800       8.2258459      6086.8563      12173.743      0.20227495   
  50207800   307.6577      -1.9254663     -32834976       0.20849887     916.1521      -32834060       1497.9711      1497.9711      1497.9711      1251.0145      2748.9855      1251.0145      2748.9855      1251.0145      2748.9855      3.3613234e+09  0.5            25308900       8.2423244      6068.5146      12137.014      0.1854102    
  50208000   307.56914     -1.918713      -32835023       0.20849887     915.88838     -32834107       1497.9711      1497.9711      1497.9711      1251.0145      2748.9855      1251.0145      2748.9855      1251.0145      2748.9855      3.3613234e+09  0.5            25309000       8.2591026      5960.0968      11920.199      0.16855316   
  50208200   307.55323     -1.9157603     -32835071       0.20849887     915.841       -32834155       1497.9711      1497.9711      1497.9711      1251.0145      2748.9855      1251.0145      2748.9855      1251.0145      2748.9855      3.3613234e+09  0.5            25309100       8.2755565      6077.599       12155.164      0.15169048   
  50208400   307.598       -1.9142138     -32835118       0.20849887     915.97433     -32834202       1497.9711      1497.9711      1497.9711      1251.0145      2748.9855      1251.0145      2748.9855      1251.0145      2748.9855      3.3613234e+09  0.5            25309200       8.292311       5968.5155      11937.054      0.13483436   
  50208600   307.60354     -1.9129417     -32835165       0.20849887     915.99082     -32834249       1497.9711      1497.9711      1497.9711      1251.0145      2748.9855      1251.0145      2748.9855      1251.0145      2748.9855      3.3613234e+09  0.5            25309300       8.3087807      6071.7822      12143.57       0.1179746    
  50208800   307.54936     -1.9131023     -32835212       0.20849887     915.82947     -32834296       1497.9711      1497.9711      1497.9711      1251.0145      2748.9855      1251.0145      2748.9855      1251.0145      2748.9855      3.3613234e+09  0.5            25309400       8.3252471      6072.9496      12145.899      0.10111639   
  50209000   307.48301     -1.9145625     -32835258       0.20849887     915.63189     -32834342       1497.9711      1497.9711      1497.9711      1251.0145      2748.9855      1251.0145      2748.9855      1251.0145      2748.9855      3.3613234e+09  0.5            25309500       8.3417432      6062.0543      12124.135      0.084260052  
  50209200   307.42141     -1.9126266     -32835304       0.20849887     915.44848     -32834389       1497.9711      1497.9711      1497.9711      1251.0145      2748.9855      1251.0145      2748.9855      1251.0145      2748.9855      3.3613234e+09  0.5            25309600       8.3582055      6074.4828      12148.971      0.067404899  
  50209400   307.32128     -1.9075387     -32835350       0.20849887     915.15029     -32834434       1497.9711      1497.9711      1497.9711      1251.0145      2748.9855      1251.0145      2748.9855      1251.0145      2748.9855      3.3613234e+09  0.5            25309700       8.374694       6064.8132      12129.639      0.050551485  
  50209600   307.27228     -1.9021978     -32835395       0.20849887     915.00437     -32834480       1497.9711      1497.9711      1497.9711      1251.0145      2748.9855      1251.0145      2748.9855      1251.0145      2748.9855      3.3613234e+09  0.5            25309800       8.3912383      6044.3994      12088.777      0.03369976   
  50209800   307.2753      -1.893941      -32835440       0.20849887     915.01338     -32834525       1497.9711      1497.9711      1497.9711      1251.0145      2748.9855      1251.0145      2748.9855      1251.0145      2748.9855      3.3613234e+09  0.5            25309900       8.4076993      6074.9555      12149.907      0.016849101  
  50210000   307.25281     -1.8838702     -32835485       0.20849887     914.9464      -32834570       1497.9711      1497.9711      1497.9711      1251.0145      2748.9855      1251.0145      2748.9855      1251.0145      2748.9855      3.3613234e+09  0.5            25310000       8.4241837      6066.3621      12132.771      0            
Loop time of 8.4242 on 4 procs for 100000 steps with 1000 atoms

Performance: 512.809 ns/day, 0.047 hours/ns, 11870.567 timesteps/s
99.9% CPU use with 4 MPI tasks x 1 OpenMP threads

MPI task timing breakdown:
Section |  min time  |  avg time  |  max time  |%varavg| %total
---------------------------------------------------------------
Pair    | 0.34417    | 2.2255     | 5.9109     | 149.3 | 26.42
Neigh   | 0.00071583 | 0.0020933  | 0.0047688  |   3.5 |  0.02
Comm    | 1.2055     | 4.7904     | 6.5907     |  99.4 | 56.86
Output  | 0.032177   | 0.033306   | 0.036481   |   1.0 |  0.40
Modify  | 0.69124    | 0.83054    | 0.96511    |  10.9 |  9.86
Other   |            | 0.5424     |            |       |  6.44

Nlocal:            250 ave         498 max         129 min
Histogram: 2 0 1 0 0 0 0 0 0 1
Nghost:            240 ave         322 max         158 min
Histogram: 1 0 1 0 0 0 0 1 0 1
Neighs:          897.5 ave        2337 max         133 min
Histogram: 2 0 0 1 0 0 0 0 0 1

Total # of neighbors = 3590
Ave neighs/atom = 3.59
Neighbor list builds = 18
Dangerous builds = 0

# run_style
run_style verlet


Total wall time: 0:00:08
