LAMMPS data file, Author: Jerry Qin

1000 atoms
0 bonds
0 angles

2 atom types

-100 4100 xlo xhi
-100 4100 ylo yhi
-100 4100 zlo zhi

Masses

1 221851
2 422051

Atoms

1 1  248.097 537.234 150.425
2 1  643.770 619.979 265.887
3 1  48.702 744.015 341.826
4 1  584.566 773.505 897.790
5 1  83.926 497.614 775.342
6 1  702.485 24.390 768.496
7 1  386.633 881.407 539.797
8 1  671.747 325.396 728.784
9 1  486.015 688.881 445.989
10 1  311.663 687.314 536.824
11 1  184.561 776.860 183.720
12 1  453.970 656.991 724.325
13 1  879.280 727.705 774.522
14 1  549.873 112.637 231.497
15 1  763.064 277.441 958.372
16 1  620.812 804.629 4.359
17 1  323.268 613.103 60.925
18 1  48.438 371.876 4.638
19 1  657.415 83.013 432.418
20 1  201.168 826.566 44.129
21 1  480.532 313.752 172.703
22 1  165.812 58.008 489.473
23 1  816.133 759.536 569.963
24 1  299.012 869.578 340.219
25 1  263.695 806.791 706.687
26 1  18.718 1.791 895.312
27 1  757.541 578.439 590.521
28 1  523.618 541.880 184.211
29 1  538.686 84.879 724.115
30 1  531.745 686.408 825.218
31 1  355.583 384.045 581.550
32 1  557.102 436.967 386.842
33 1  64.921 397.152 343.935
34 1  758.211 293.977 238.807
35 1  1.064 286.200 360.338
36 1  847.176 166.563 960.527
37 1  874.999 902.052 446.573
38 1  743.018 631.668 118.740
39 1  3304.562 237.404 482.497
40 1  2541.717 965.578 394.625
41 1  2900.783 493.700 293.316
42 1  3034.791 467.970 124.025
43 1  3329.970 873.894 150.090
44 1  2976.133 91.517 416.845
45 1  2990.327 396.588 222.020
46 1  2785.473 786.333 499.353
47 1  2636.339 873.002 225.833
48 1  2879.890 463.192 643.142
49 1  2829.821 279.142 448.582
50 1  3370.636 842.758 356.982
51 1  2886.768 393.388 134.578
52 1  3042.187 719.958 354.679
53 1  3255.133 938.803 563.827
54 1  2904.867 734.728 76.310
55 1  3069.508 411.416 348.025
56 1  3128.585 367.888 506.425
57 1  3115.319 292.458 260.299
58 1  2953.354 506.390 500.433
59 1  2748.961 193.404 212.385
60 1  2735.208 312.502 90.282
61 1  2912.307 674.595 549.122
62 1  3310.611 819.745 648.206
63 1  3434.563 348.769 294.353
64 1  2728.399 936.018 -0.000
65 1  2924.679 212.944 209.750
66 1  2972.545 7.248 194.254
67 1  2780.020 223.014 612.944
68 1  3255.080 220.303 368.302
69 1  2663.913 295.470 595.034
70 1  2955.810 955.894 625.884
71 1  3014.226 540.723 393.918
72 1  3140.537 170.859 410.633
73 1  3297.763 671.676 474.984
74 1  3230.730 648.360 184.351
75 1  3122.582 881.554 570.433
76 1  295.091 3819.077 703.158
77 1  915.553 3972.013 498.377
78 1  1968.807 3999.990 0.003
79 1  353.978 3431.071 208.761
80 1  239.431 2000.026 0.110
81 1  -0.000 2536.812 1143.963
82 1  47.136 2683.492 701.258
83 1  465.787 3615.734 236.923
84 1  577.106 3576.825 791.991
85 1  0.065 3519.489 723.642
86 1  190.281 3584.255 361.884
87 1  129.880 3977.249 329.975
88 1  923.738 3622.133 301.615
89 1  259.389 3999.981 0.011
90 1  209.388 3367.535 808.109
91 1  204.539 3613.386 747.533
92 1  908.417 3341.171 871.803
93 1  638.945 3888.871 124.464
94 1  463.189 3402.935 132.941
95 1  507.888 3613.910 488.386
96 1  817.226 3789.135 609.236
97 1  46.789 3992.469 434.041
98 1  0.091 3391.616 0.034
99 1  889.995 3824.351 462.893
100 1  1663.893 3230.589 1100.184
101 1  1894.436 3234.301 740.638
102 1  1111.668 2493.217 0.042
103 1  732.431 3831.311 63.523
104 1  308.997 3410.533 636.646
105 1  599.304 3188.855 607.881
106 1  132.605 3038.550 67.175
107 1  1729.780 3402.309 1999.987
108 1  649.746 3874.556 324.446
109 1  11.312 3998.214 317.679
110 1  739.687 3009.187 114.564
111 1  127.996 3050.657 446.798
112 1  76.046 3211.484 485.899
113 1  296.999 3967.702 265.793
114 1  963.599 353.026 3981.901
115 1  25.235 429.418 3255.816
116 1  924.216 802.654 3603.772
117 1  79.867 189.594 3205.262
118 1  396.422 321.604 2992.522
119 1  99.334 441.459 3675.514
120 1  596.417 178.251 3690.296
121 1  211.445 113.481 3731.715
122 1  29.033 104.191 3577.332
123 1  414.013 317.639 3117.139
124 1  611.485 682.630 3322.546
125 1  691.083 845.577 3579.297
126 1  390.278 25.785 3792.537
127 1  539.927 815.514 3271.765
128 1  637.057 894.512 3745.682
129 1  933.124 338.603 3743.655
130 1  193.726 404.662 3806.726
131 1  973.998 871.850 3465.104
132 1  329.441 620.624 2853.557
133 1  119.871 17.374 3158.602
134 1  667.258 265.730 3004.289
135 1  330.516 165.850 3892.660
136 1  156.954 815.196 3268.365
137 1  119.485 903.283 3087.217
138 1  101.548 889.018 2890.206
139 1  919.881 151.569 3697.188
140 1  574.361 298.573 3744.868
141 1  186.252 544.478 3090.097
142 1  304.307 305.785 2907.041
143 1  949.179 803.540 3870.956
144 1  854.604 450.687 3780.936
145 1  262.535 396.697 2990.470
146 1  587.768 745.850 3422.963
147 1  420.575 179.208 3313.423
148 1  910.522 562.987 3509.686
149 1  172.835 97.851 3862.199
150 1  909.040 307.113 3360.311
151 1  2889.911 3211.838 242.116
152 1  3356.558 3575.959 872.156
153 1  3708.561 3528.366 110.528
154 1  3558.108 2918.301 292.459
155 1  2807.183 3535.057 20.157
156 1  3594.227 3076.153 757.743
157 1  3293.635 2742.237 281.210
158 1  3744.337 3379.655 301.405
159 1  2662.593 3140.821 783.762
160 1  3217.087 3497.824 877.642
161 1  2646.016 3770.353 225.434
162 1  2677.226 3592.838 344.874
163 1  3134.745 2820.901 927.744
164 1  2964.902 2850.608 194.256
165 1  3448.232 2778.251 563.451
166 1  3512.730 3519.912 11.622
167 1  3755.193 3770.656 850.613
168 1  3492.908 2770.029 845.340
169 1  2696.725 2896.510 102.152
170 1  3200.951 2864.445 93.154
171 1  2896.313 3652.838 145.920
172 1  2786.198 2847.823 22.704
173 1  3114.539 2834.943 687.107
174 1  3525.989 3744.825 32.719
175 1  2614.014 3575.589 498.161
176 1  2760.193 3532.500 707.827
177 1  3579.089 3622.441 134.547
178 1  2789.867 3241.412 915.508
179 1  3133.723 3554.413 482.234
180 1  3473.636 3088.076 763.995
181 1  3456.125 2927.948 693.837
182 1  2707.948 3580.326 906.511
183 1  3374.634 3169.329 814.397
184 1  2704.865 3308.686 112.732
185 1  3168.601 2778.670 343.830
186 1  2746.181 3088.947 455.227
187 1  3739.288 3661.781 526.445
188 1  3097.401 3055.776 683.976
189 1  3073.597 736.241 3270.700
190 1  2708.287 758.626 3190.051
191 1  3349.208 431.448 3247.118
192 1  3817.476 166.758 2808.476
193 1  3017.039 158.708 3783.355
194 1  4000.000 421.120 2000.000
195 1  3380.044 872.702 3536.787
196 1  3153.107 132.885 2722.106
197 1  3721.594 128.373 3490.021
198 1  2676.024 778.571 2816.528
199 1  3873.020 563.998 3109.670
200 1  2695.361 694.476 3561.766
201 1  3424.900 652.259 3810.064
202 1  2932.539 19.380 2821.634
203 1  3254.351 325.737 3423.193
204 1  3729.466 718.644 3056.526
205 1  3413.433 687.155 3397.398
206 1  3517.916 850.985 3279.600
207 1  2000.000 661.315 4000.000
208 1  3786.350 786.800 3257.982
209 1  3186.677 934.162 3401.722
210 1  2718.098 278.351 2969.132
211 1  3405.210 933.904 3752.906
212 1  3782.395 142.965 3684.726
213 1  3810.925 777.153 2896.119
214 1  2956.319 340.613 3234.603
215 1  3323.482 29.915 3364.005
216 1  2679.514 964.855 3628.788
217 1  2811.778 489.324 3290.079
218 1  3637.098 580.659 3150.724
219 1  3100.948 328.263 3786.167
220 1  3087.835 560.294 3192.903
221 1  3551.668 686.738 3343.304
222 1  2999.876 970.502 2860.280
223 1  3162.738 585.463 3840.178
224 1  2681.563 702.341 3353.758
225 1  2907.278 575.701 2906.393
226 1  122.138 3162.942 3452.963
227 1  157.977 2858.521 2998.151
228 1  403.253 3379.541 3237.121
229 1  236.198 4000.000 4000.000
230 1  511.286 2848.072 3219.841
231 1  397.268 3857.883 2764.427
232 1  626.620 3726.420 2900.723
233 1  447.363 3605.235 3880.169
234 1  613.500 3491.602 3509.994
235 1  629.297 3054.423 3196.186
236 1  600.896 3959.948 3206.387
237 1  223.403 3906.688 2875.839
238 1  288.867 2707.857 3381.622
239 1  839.701 3575.693 3230.930
240 1  638.639 3000.823 3350.714
241 1  561.606 3412.649 3596.205
242 1  15.410 3205.189 2955.903
243 1  251.488 3881.623 3736.828
244 1  76.764 3727.654 3346.692
245 1  832.253 3061.390 3488.582
246 1  20.142 3384.400 2764.409
247 1  762.627 3829.301 3565.541
248 1  456.516 3492.257 3400.047
249 1  566.162 3352.233 3916.603
250 1  244.043 3208.937 3267.735
251 1  155.256 3322.549 3212.431
252 1  733.308 2705.192 3810.783
253 1  629.040 3080.491 2994.554
254 1  958.989 2243.067 2000.000
255 1  7.666 3125.466 3692.640
256 1  453.083 2812.462 3463.099
257 1  419.575 2981.190 2808.067
258 1  646.241 3748.246 3627.171
259 1  817.944 3638.260 2843.801
260 1  374.491 3780.876 3886.053
261 1  123.008 3834.385 3750.095
262 1  226.838 3526.992 3738.940
263 1  677.406 3334.908 2818.109
264 1  2953.882 2859.884 3185.356
265 1  2863.443 3269.528 3310.578
266 1  3403.432 3310.167 2566.768
267 1  3568.224 3152.557 2885.790
268 1  3362.346 2593.126 3563.677
269 1  3556.899 2598.651 3304.151
270 1  3010.387 3125.141 2888.768
271 1  2658.065 2807.526 2916.326
272 1  3318.831 3589.309 2625.858
273 1  3456.626 2957.054 3090.026
274 1  2000.000 3748.516 3925.928
275 1  3156.452 2970.067 2568.100
276 1  3523.490 2852.707 3056.069
277 1  3418.512 2902.337 3547.294
278 1  2406.203 3321.267 3238.517
279 1  3258.424 3466.148 2976.993
280 1  3343.216 3252.301 2902.058
281 1  3587.606 2956.654 2821.267
282 1  3587.360 2972.780 3604.013
283 1  3559.250 3596.462 2578.473
284 1  4000.000 2000.000 2984.399
285 1  3350.035 3527.653 3076.613
286 1  2740.619 3455.415 3445.254
287 1  3593.373 2638.465 3511.773
288 1  3111.769 3058.551 2895.335
289 1  3364.570 2727.922 3209.787
290 1  3476.717 3647.493 2756.438
291 1  3371.842 2689.907 2843.667
292 1  2637.649 3041.576 3351.936
293 1  2748.291 3215.583 2944.314
294 1  3117.108 3271.251 2681.569
295 1  3082.527 2695.312 2635.671
296 1  3558.782 3644.358 3273.921
297 1  3132.088 3057.827 2719.489
298 1  3489.668 2819.096 3436.666
299 1  3117.241 2576.687 3098.743
300 1  3530.103 3281.823 3382.603
301 2  245.973 432.847 565.898
302 2  971.098 61.374 581.425
303 2  471.282 1970.143 866.891
304 2  852.839 754.578 61.037
305 2  984.404 763.261 111.688
306 2  833.322 420.226 302.641
307 2  109.760 984.946 296.728
308 2  802.200 266.146 400.550
309 2  489.043 249.601 657.257
310 2  583.649 809.878 277.376
311 2  575.865 882.161 774.614
312 2  157.199 1424.094 869.547
313 2  615.767 81.571 860.898
314 2  1450.574 1735.525 1209.164
315 2  304.359 33.566 410.350
316 2  865.630 10.983 472.981
317 2  652.671 725.228 654.406
318 2  144.906 1637.595 531.194
319 2  761.755 836.019 39.391
320 2  269.970 501.348 1273.767
321 2  556.279 0.000 963.983
322 2  665.693 916.179 984.795
323 2  848.894 1181.852 1960.788
324 2  237.044 971.642 805.654
325 2  697.774 421.189 308.852
326 2  893.188 1234.495 0.901
327 2  1634.787 1614.739 687.183
328 2  941.756 245.749 292.984
329 2  114.855 145.091 223.506
330 2  791.840 724.252 413.140
331 2  261.592 93.117 556.188
332 2  617.779 435.808 1583.013
333 2  130.777 341.438 542.002
334 2  144.984 275.729 222.802
335 2  392.241 471.568 924.652
336 2  9.382 331.792 516.446
337 2  207.454 1431.384 1930.209
338 2  189.941 340.273 1462.596
339 2  357.669 143.473 62.867
340 2  60.971 606.844 455.005
341 2  683.261 1025.346 12.784
342 2  688.342 216.723 528.732
343 2  121.912 354.499 118.670
344 2  493.089 867.572 2.210
345 2  170.396 573.079 14.935
346 2  134.048 62.839 35.095
347 2  1569.397 1784.082 901.443
348 2  140.619 555.845 607.167
349 2  542.264 760.664 694.271
350 2  924.600 88.062 149.708
351 2  810.052 433.664 502.789
352 2  607.113 259.521 7.370
353 2  364.721 839.655 -0.000
354 2  885.872 824.118 161.785
355 2  289.339 341.587 922.986
356 2  560.756 929.660 188.590
357 2  423.336 147.879 488.129
358 2  946.442 882.331 599.997
359 2  58.016 614.334 988.853
360 2  1621.674 777.272 282.295
361 2  24.218 69.155 555.359
362 2  1041.475 600.961 471.887
363 2  925.502 16.334 327.777
364 2  173.193 8.279 349.891
365 2  2.388 143.845 98.898
366 2  487.723 730.758 21.063
367 2  347.889 197.986 402.740
368 2  1029.833 518.191 692.728
369 2  935.804 405.437 188.321
370 2  645.445 -0.000 645.587
371 2  873.027 522.481 951.228
372 2  293.155 499.426 469.468
373 2  1269.910 828.395 646.988
374 2  1105.563 1010.596 622.789
375 2  88.845 237.985 6.702
376 2  46.349 1592.210 22.576
377 2  1576.831 1846.205 702.260
378 2  44.409 206.918 772.819
379 2  482.025 175.684 793.004
380 2  470.341 531.095 363.930
381 2  922.573 276.448 90.928
382 2  27.826 4.266 710.670
383 2  765.024 491.073 55.761
384 2  319.044 943.924 691.539
385 2  169.621 734.632 655.276
386 2  196.831 774.051 510.691
387 2  407.584 135.578 312.947
388 2  615.244 599.810 468.264
389 2  2283.570 37.407 883.505
390 2  2721.031 885.861 381.731
391 2  2557.468 360.281 328.506
392 2  2322.950 648.109 128.987
393 2  2495.459 259.485 900.101
394 2  2462.618 160.846 665.011
395 2  2732.759 331.203 892.978
396 2  2481.754 4.618 410.618
397 2  2666.032 181.770 888.423
398 2  2617.123 4.012 746.346
399 2  2412.829 932.255 384.754
400 2  2682.768 669.686 913.484
401 2  2625.978 770.468 518.457
402 2  2523.580 138.875 973.577
403 2  2719.181 573.692 625.005
404 2  2683.686 588.525 224.029
405 2  2605.083 1021.921 219.242
406 2  2340.052 279.078 672.316
407 2  2532.043 945.675 5.609
408 2  2315.756 473.469 182.201
409 2  2619.249 217.657 746.313
410 2  2580.088 165.216 526.905
411 2  2313.864 763.766 532.456
412 2  2429.694 384.050 302.530
413 2  2516.768 421.144 707.117
414 2  2278.446 280.285 790.990
415 2  2404.433 654.854 485.478
416 2  2777.188 673.674 253.882
417 2  2401.590 734.582 966.696
418 2  2326.055 477.243 448.897
419 2  2301.212 374.964 389.186
420 2  2632.062 897.215 596.701
421 2  2517.833 727.212 552.315
422 2  2785.109 638.519 542.345
423 2  2543.160 72.086 601.659
424 2  2232.687 100.011 147.108
425 2  2301.563 963.326 909.324
426 2  2692.036 288.680 420.703
427 2  2383.015 695.375 844.842
428 2  2742.899 481.730 124.691
429 2  2548.760 123.562 813.742
430 2  2761.522 899.108 984.663
431 2  2572.505 526.906 432.288
432 2  2433.968 594.298 726.391
433 2  2473.508 501.648 283.667
434 2  2447.429 750.644 345.803
435 2  2816.569 62.076 145.877
436 2  2694.646 812.585 656.383
437 2  2344.762 76.160 374.442
438 2  2374.117 261.569 461.124
439 2  2353.620 134.417 913.452
440 2  2514.502 784.677 445.870
441 2  2746.285 577.924 397.203
442 2  2403.908 154.486 804.732
443 2  2791.286 287.450 295.096
444 2  2387.629 347.374 173.123
445 2  2309.861 302.156 289.274
446 2  2657.446 741.628 247.733
447 2  2304.336 0.000 475.773
448 2  2384.893 833.812 62.420
449 2  2443.846 181.743 2.157
450 2  2341.497 176.462 67.009
451 2  2422.292 825.479 186.456
452 2  2356.710 463.538 565.449
453 2  2539.954 260.689 648.852
454 2  2316.026 405.657 911.587
455 2  2756.424 143.034 418.253
456 2  2389.976 932.787 539.876
457 2  2348.503 119.224 508.271
458 2  2677.382 426.541 755.638
459 2  2457.130 39.064 149.972
460 2  2547.872 545.769 566.345
461 2  2762.391 36.436 570.521
462 2  2498.638 400.056 430.518
463 2  2541.863 637.734 333.809
464 2  2280.800 790.065 985.487
465 2  2627.400 405.044 949.283
466 2  2739.671 705.967 420.492
467 2  2323.118 816.745 321.294
468 2  2392.193 621.126 273.243
469 2  2296.722 170.575 633.869
470 2  2500.131 57.603 285.194
471 2  2315.598 511.816 668.730
472 2  2782.015 960.859 246.940
473 2  2693.984 962.048 134.315
474 2  2682.505 166.047 70.194
475 2  2510.922 922.333 189.154
476 2  910.210 2747.681 871.424
477 2  980.908 2628.380 889.943
478 2  180.032 2478.458 757.258
479 2  702.812 2274.505 188.111
480 2  851.461 2701.675 992.640
481 2  965.188 2718.791 282.166
482 2  36.537 2738.117 156.328
483 2  68.244 2667.139 536.605
484 2  886.534 2391.317 909.155
485 2  249.108 2301.781 961.275
486 2  441.251 2584.948 644.984
487 2  666.070 2612.171 336.719
488 2  255.095 2396.062 404.971
489 2  177.332 2379.495 501.511
490 2  721.242 2602.971 501.748
491 2  427.931 2312.415 69.968
492 2  489.812 2401.930 501.149
493 2  881.617 2492.860 -0.000
494 2  959.510 2543.074 620.292
495 2  378.818 2837.924 906.329
496 2  752.338 2486.507 178.651
497 2  462.403 2214.369 604.706
498 2  25.463 2488.345 416.266
499 2  4.291 2548.989 966.189
500 2  559.531 2359.529 835.513
501 2  12.409 2305.298 207.674
502 2  7.410 2375.560 73.558
503 2  368.935 2723.818 774.280
504 2  835.832 2633.546 103.863
505 2  167.696 2387.486 101.785
506 2  533.163 2549.733 778.771
507 2  606.529 2381.470 674.764
508 2  42.108 2447.800 911.212
509 2  169.453 2657.084 810.614
510 2  558.604 2732.871 990.510
511 2  585.285 2600.799 201.570
512 2  428.294 2303.501 835.418
513 2  28.168 2493.909 265.200
514 2  654.292 2281.660 780.529
515 2  503.623 2541.327 384.060
516 2  173.936 2577.390 902.512
517 2  300.080 2621.917 606.529
518 2  133.583 2271.644 538.867
519 2  749.880 2586.087 990.742
520 2  638.344 2366.644 270.062
521 2  210.853 2718.293 1005.202
522 2  426.135 2685.439 441.781
523 2  242.967 2274.295 406.482
524 2  23.502 2309.985 943.785
525 2  614.391 2261.265 911.928
526 2  652.033 2857.076 790.831
527 2  286.634 2569.031 766.062
528 2  285.502 2721.879 282.942
529 2  60.089 2692.007 961.515
530 2  789.238 2567.161 728.556
531 2  554.465 2699.219 871.717
532 2  516.789 2616.866 69.870
533 2  526.886 2527.807 581.154
534 2  234.467 2573.472 425.883
535 2  286.299 2618.905 21.260
536 2  47.014 2496.320 674.687
537 2  858.620 2563.609 894.889
538 2  149.686 2444.612 274.108
539 2  632.584 2619.994 669.724
540 2  366.047 2490.198 149.833
541 2  472.024 2687.896 554.335
542 2  503.956 2674.724 330.900
543 2  739.459 2249.595 453.237
544 2  387.680 2497.877 942.662
545 2  22.613 2367.627 578.765
546 2  801.534 2283.087 873.971
547 2  779.175 2379.328 635.652
548 2  137.907 2545.932 607.344
549 2  155.605 2824.381 465.487
550 2  537.244 2475.349 182.242
551 2  795.805 2781.262 104.988
552 2  738.817 2440.119 853.658
553 2  400.493 2460.948 662.494
554 2  229.676 2220.520 808.986
555 2  352.799 2464.940 326.965
556 2  303.210 2382.165 522.130
557 2  777.377 2443.168 524.544
558 2  700.443 2496.776 -0.000
559 2  706.161 2626.781 -0.000
560 2  95.168 2700.799 381.571
561 2  304.552 2351.852 148.004
562 2  552.793 2508.476 -0.000
563 2  237.730 2361.281 783.277
564 2  745.968 60.063 2235.783
565 2  511.240 948.062 2339.104
566 2  581.197 334.250 2366.707
567 2  832.039 494.494 2662.679
568 2  768.389 880.892 2443.813
569 2  670.323 260.548 2522.139
570 2  857.567 135.011 2419.857
571 2  885.710 212.043 2283.704
572 2  293.858 92.925 2465.708
573 2  971.410 440.810 2566.221
574 2  793.724 42.964 2671.019
575 2  940.802 201.253 2721.691
576 2  769.076 840.842 2699.515
577 2  748.639 70.769 2422.558
578 2  927.876 686.692 2476.429
579 2  807.702 377.867 2547.973
580 2  376.328 839.454 2596.944
581 2  664.895 80.756 2609.525
582 2  521.145 277.663 2559.213
583 2  314.803 711.099 2331.742
584 2  614.816 586.230 2693.523
585 2  514.322 198.496 2345.468
586 2  965.886 494.854 2442.604
587 2  1000.683 643.498 2386.707
588 2  404.849 490.115 2385.421
589 2  356.963 298.833 2338.994
590 2  45.969 805.485 2236.786
591 2  1001.503 196.859 2431.862
592 2  151.532 221.251 2690.876
593 2  11.817 870.797 2702.701
594 2  725.100 701.722 2689.987
595 2  654.816 538.450 2380.865
596 2  869.384 601.361 2619.194
597 2  886.613 279.574 2429.958
598 2  155.291 811.712 2667.715
599 2  639.654 427.605 2483.196
600 2  499.486 107.782 2601.801
601 2  1004.393 791.967 2462.323
602 2  641.525 149.885 2469.663
603 2  221.606 590.597 2566.328
604 2  919.628 756.691 2618.152
605 2  919.574 821.608 2335.072
606 2  247.621 72.871 2325.086
607 2  388.233 629.154 2550.402
608 2  427.973 862.722 2235.424
609 2  161.636 612.681 2383.947
610 2  977.945 918.169 2624.958
611 2  57.763 852.087 2440.885
612 2  779.943 659.685 2554.848
613 2  889.513 850.569 2534.367
614 2  520.518 6.373 2438.785
615 2  137.283 710.263 2293.660
616 2  501.673 589.109 2578.308
617 2  443.664 779.703 2322.052
618 2  694.846 493.284 2273.566
619 2  251.592 712.005 2589.350
620 2  414.860 904.846 2730.587
621 2  513.548 470.000 2540.808
622 2  908.081 973.883 2511.622
623 2  1025.620 617.881 2675.591
624 2  880.609 322.812 2634.133
625 2  396.013 314.788 2527.427
626 2  236.213 440.867 2273.385
627 2  470.629 78.241 2294.889
628 2  574.694 776.810 2694.737
629 2  983.826 32.170 2483.436
630 2  279.370 969.978 2510.534
631 2  12.439 993.665 2680.111
632 2  646.031 0.002 2521.328
633 2  983.143 342.759 2493.211
634 2  681.566 402.480 2598.356
635 2  190.074 224.838 2561.959
636 2  313.350 634.720 2454.351
637 2  793.752 293.357 2238.535
638 2  271.791 790.715 2251.375
639 2  986.102 28.142 2651.563
640 2  831.661 530.004 2473.799
641 2  779.906 151.909 2548.859
642 2  876.952 111.647 2616.077
643 2  490.963 667.078 2264.799
644 2  654.857 115.034 2354.513
645 2  772.041 244.618 2454.297
646 2  191.331 917.692 2596.810
647 2  477.780 584.595 2365.489
648 2  549.519 618.786 2458.414
649 2  166.734 72.101 2527.740
650 2  614.370 1.199 2362.477
651 2  2440.357 2652.764 321.083
652 2  2278.643 2316.702 659.120
653 2  2495.326 2512.120 304.556
654 2  2466.863 2347.076 483.017
655 2  2237.331 2289.721 1027.919
656 2  2253.769 2481.246 430.518
657 2  2590.107 2627.520 859.457
658 2  2275.202 2346.026 780.583
659 2  2376.359 2551.699 358.646
660 2  2397.564 2555.639 232.859
661 2  2318.866 2668.152 708.449
662 2  2514.080 2241.550 534.733
663 2  2382.576 2627.774 453.137
664 2  2536.552 2406.334 364.237
665 2  2287.019 2321.528 81.933
666 2  2579.284 2570.520 997.141
667 2  2264.914 2223.951 441.280
668 2  2310.975 2544.528 919.568
669 2  2300.465 2553.537 0.718
670 2  2280.033 2601.741 612.947
671 2  2642.828 2228.219 935.381
672 2  2507.133 2338.827 624.954
673 2  2172.713 2539.408 229.503
674 2  2376.867 2233.391 488.269
675 2  2243.051 2195.780 861.914
676 2  2331.849 2441.361 829.179
677 2  2424.218 2235.554 244.474
678 2  2403.844 2517.597 499.212
679 2  2401.948 2478.663 1.071
680 2  2480.605 2375.040 805.015
681 2  2352.149 2586.327 793.838
682 2  2461.198 2550.422 78.527
683 2  2250.311 2390.297 348.632
684 2  2514.073 2617.094 552.005
685 2  2616.148 2302.479 786.841
686 2  2303.229 2316.362 213.934
687 2  2277.016 2335.162 512.420
688 2  2435.545 2240.592 9.724
689 2  2228.270 2501.167 551.020
690 2  2614.982 2489.183 268.085
691 2  2273.223 2203.012 606.744
692 2  2268.137 2473.132 677.943
693 2  2423.707 2323.718 918.152
694 2  2519.252 2269.299 866.774
695 2  2192.157 2458.258 115.719
696 2  2529.852 2266.153 411.227
697 2  2245.293 2600.436 454.001
698 2  2401.681 2418.668 410.105
699 2  2610.611 2356.414 895.042
700 2  2683.563 2358.769 399.536
701 2  2396.702 2641.948 609.667
702 2  2564.512 2257.251 223.061
703 2  2403.413 2193.968 883.526
704 2  2419.487 2467.704 729.104
705 2  2587.812 2428.540 610.484
706 2  2284.690 2618.583 220.721
707 2  2599.550 2220.003 650.180
708 2  2649.637 2340.686 672.304
709 2  2368.013 2418.536 582.520
710 2  2644.537 2532.648 439.068
711 2  2545.681 2613.197 432.606
712 2  2280.754 2222.462 739.201
713 2  2491.016 2236.569 734.113
714 2  2528.518 2485.356 504.216
715 2  2621.185 2466.388 951.153
716 2  2397.888 2318.030 687.626
717 2  2575.035 2468.750 835.521
718 2  2352.525 2631.447 98.235
719 2  2627.415 2578.651 571.052
720 2  2533.906 2619.932 711.210
721 2  2456.526 2482.702 856.290
722 2  2300.461 2476.578 229.062
723 2  2471.793 2518.354 610.569
724 2  2174.449 2338.510 905.299
725 2  2350.691 2181.869 145.601
726 2  2387.135 2236.167 996.973
727 2  2330.760 2399.827 949.086
728 2  2541.867 2458.134 718.438
729 2  2576.384 2264.765 35.740
730 2  2156.251 2467.286 0.213
731 2  2405.367 2386.600 265.199
732 2  2413.693 2359.128 22.035
733 2  2332.064 2287.849 363.505
734 2  2529.400 2371.659 248.221
735 2  2676.687 2511.762 698.952
736 2  2653.813 2632.298 732.092
737 2  2607.904 2174.063 428.108
738 2  2208.020 2538.764 780.295
739 2  2743.561 742.422 2091.808
740 2  2311.544 853.302 2423.951
741 2  2193.523 0.595 3075.835
742 2  2807.417 176.023 2060.260
743 2  2239.432 367.264 2313.121
744 2  2764.454 419.202 2243.461
745 2  2003.709 0.537 2170.995
746 2  2299.311 562.503 2056.143
747 2  2526.288 823.757 2584.884
748 2  2325.260 50.741 2623.740
749 2  2571.521 2.619 2962.416
750 2  2769.265 418.723 2709.276
751 2  2563.747 911.343 2219.835
752 2  2249.112 451.226 2634.856
753 2  2245.303 306.442 2639.914
754 2  2566.311 347.057 2425.042
755 2  2003.905 601.266 2723.988
756 2  2500.088 151.078 2453.359
757 2  2862.093 422.007 2529.567
758 2  2572.163 930.593 2644.002
759 2  2686.897 807.685 2408.654
760 2  2250.279 286.032 2515.585
761 2  2728.952 2.291 2352.340
762 2  2004.341 152.351 2555.934
763 2  2055.861 294.555 2604.077
764 2  2476.626 72.009 2335.423
765 2  2324.175 982.537 2369.695
766 2  3475.325 456.812 2155.787
767 2  2266.868 262.983 2369.537
768 2  2317.912 9.709 2336.763
769 2  2192.149 40.454 2584.417
770 2  2273.114 1349.669 2308.772
771 2  2703.558 344.954 2476.564
772 2  3275.818 882.299 2501.162
773 2  2171.975 1058.034 2448.842
774 2  2714.431 840.601 2622.796
775 2  2675.226 37.770 2600.293
776 2  2536.960 105.531 2699.573
777 2  2172.990 614.841 2608.433
778 2  3037.411 0.019 2559.728
779 2  2591.176 721.136 2500.601
780 2  2700.225 485.470 2430.367
781 2  2620.367 220.326 2220.914
782 2  2464.919 984.579 2710.811
783 2  2195.895 893.357 2738.427
784 2  2001.496 878.146 2001.253
785 2  2223.375 530.068 3111.881
786 2  2393.668 169.385 2666.676
787 2  2416.024 84.268 2217.281
788 2  2500.955 193.542 2254.924
789 2  2524.640 0.754 2144.636
790 2  2406.777 657.811 2560.088
791 2  2537.530 341.632 2713.266
792 2  2003.774 566.423 2603.635
793 2  2940.195 197.852 2414.643
794 2  2714.666 421.285 2818.269
795 2  2675.035 412.964 2619.288
796 2  2516.359 598.614 2417.313
797 2  2120.153 112.150 2002.487
798 2  2350.427 98.112 2480.075
799 2  2933.124 800.023 2835.078
800 2  2253.327 875.230 2281.125
801 2  2456.538 548.008 2629.016
802 2  2684.022 128.689 2297.462
803 2  2585.026 574.606 2668.453
804 2  2306.658 585.321 2683.113
805 2  2469.131 762.802 2361.660
806 2  2586.143 227.319 2706.795
807 2  2697.665 223.647 2379.749
808 2  2357.683 128.708 2000.499
809 2  2221.645 49.951 2437.023
810 2  2684.391 1193.157 2168.722
811 2  2376.858 896.442 2586.895
812 2  2481.864 214.651 3042.596
813 2  2273.600 120.263 2286.522
814 2  2345.340 277.015 2000.029
815 2  2596.802 523.662 2279.016
816 2  2242.937 525.322 2512.438
817 2  2464.068 882.425 2382.660
818 2  2771.051 1112.228 2679.199
819 2  2264.121 713.799 2420.955
820 2  2542.516 619.071 2563.994
821 2  2529.097 1038.685 2605.648
822 2  2558.276 1.281 2760.475
823 2  2598.582 898.381 2344.381
824 2  2427.317 1054.352 2481.596
825 2  2674.516 918.308 2492.840
826 2  845.807 2283.218 2316.521
827 2  786.341 2397.225 2649.931
828 2  953.197 4000.000 3930.579
829 2  59.862 2000.000 2000.000
830 2  588.544 2217.496 2227.455
831 2  315.852 2554.678 2723.394
832 2  278.647 2235.082 2497.471
833 2  77.691 2244.631 2623.820
834 2  745.496 2500.782 2475.597
835 2  166.178 2376.992 2301.517
836 2  263.347 2458.451 2476.993
837 2  1018.188 2399.458 2519.456
838 2  513.693 2490.047 2393.807
839 2  239.418 2572.843 2317.272
840 2  236.436 2233.658 2670.766
841 2  714.386 2402.530 2320.394
842 2  335.701 2362.531 2454.917
843 2  740.375 2287.107 2616.139
844 2  547.660 2614.533 2329.723
845 2  916.160 2263.872 2643.174
846 2  96.264 2214.447 2328.807
847 2  773.645 2502.033 2356.222
848 2  739.817 2658.848 2695.851
849 2  618.660 2380.062 2229.512
850 2  719.444 2482.144 2229.097
851 2  955.285 2629.954 2203.147
852 2  446.446 2518.363 2214.796
853 2  401.332 2273.119 2593.199
854 2  832.512 2648.505 2351.678
855 2  603.156 2462.916 2533.306
856 2  494.389 2225.743 2303.340
857 2  38.086 2338.685 2420.505
858 2  861.022 2412.239 2306.530
859 2  46.396 2550.529 2315.284
860 2  197.302 2574.047 2512.594
861 2  162.460 2515.642 2391.177
862 2  384.816 2479.202 2468.162
863 2  314.585 2594.432 2422.965
864 2  280.613 2211.896 2323.326
865 2  945.414 2658.026 2682.711
866 2  193.591 2278.915 2217.193
867 2  301.501 2402.810 2634.934
868 2  498.532 2171.430 2585.964
869 2  695.524 2211.960 2524.694
870 2  934.003 2525.434 2480.004
871 2  103.128 2275.212 2500.395
872 2  68.996 2533.661 2598.710
873 2  12.628 2461.884 2441.159
874 2  697.429 2170.652 2262.301
875 2  392.259 2456.758 2335.330
876 2  195.485 2510.953 2184.821
877 2  446.858 2675.964 2533.531
878 2  672.696 2479.545 2635.390
879 2  1006.737 2444.886 2336.108
880 2  195.988 2316.330 2587.442
881 2  600.184 2146.453 2332.730
882 2  73.034 2602.951 2484.962
883 2  2000.000 2000.000 2000.000
884 2  895.326 2545.906 2316.673
885 2  164.124 2672.715 2383.952
886 2  958.434 2625.434 2415.116
887 2  993.805 2453.474 2211.895
888 2  618.971 2386.454 2422.435
889 2  952.242 2503.260 2608.203
890 2  585.623 2255.480 2551.558
891 2  693.065 2263.835 2374.457
892 2  848.668 2441.513 2497.785
893 2  648.788 2565.378 2442.186
894 2  405.364 2281.857 2377.508
895 2  520.093 2549.802 2510.790
896 2  469.987 2393.159 2478.599
897 2  1278.073 4000.000 2843.853
898 2  379.215 2250.723 2215.223
899 2  496.190 2274.273 2458.698
900 2  105.419 2404.055 2496.896
901 2  1003.959 2207.642 2531.131
902 2  663.638 2582.096 2561.353
903 2  441.026 2653.040 2659.109
904 2  304.877 2542.008 2567.108
905 2  269.894 2436.059 2356.271
906 2  896.402 2316.491 2534.380
907 2  1014.806 2303.151 2395.065
908 2  88.053 2371.720 2198.245
909 2  670.839 2597.776 2274.961
910 2  817.945 2533.078 2689.472
911 2  -0.000 2000.000 4000.000
912 2  184.930 2225.489 2410.421
913 2  791.070 2745.105 2556.619
914 2  2622.882 2568.657 2701.320
915 2  2495.543 2641.276 2492.291
916 2  2675.971 2677.971 2342.855
917 2  2439.949 2422.425 2547.109
918 2  2635.924 2226.118 2334.408
919 2  2512.634 2563.252 2754.782
920 2  2380.664 2656.213 2403.268
921 2  2456.390 2640.217 2636.031
922 2  2214.286 2727.615 2370.829
923 2  2750.568 2751.990 2727.501
924 2  2338.611 2521.410 2679.345
925 2  2592.503 2615.751 2404.542
926 2  2441.844 2798.235 2745.489
927 2  2392.864 2759.047 2216.952
928 2  2379.232 2786.467 2604.983
929 2  2755.820 2593.769 2722.912