LAMMPS (23 Jun 2022 - Update 1)
OMP_NUM_THREADS environment is not set. Defaulting to 1 thread. (src/comm.cpp:98)
  using 1 OpenMP thread(s) per MPI task

# Init #
dimension   3
boundary    p p p
units       real
atom_style  atomic

# Atom Definition #
read_data ${input_data}
read_data ./pgnpmf/37/dat37.dat
Reading data file ...
  orthogonal box = (-100 -100 -100) to (4100 4100 4100)
  1 by 2 by 2 MPI processor grid
  reading atoms ...
  1000 atoms
  read_data CPU = 0.006 seconds

# Settings #
pair_style table spline 9941

pair_coeff 1 1 ./pgnpmf/N20.txt DE_GNP 75.6
pair_coeff 2 2 ./pgnpmf/N100.txt DE_GNP 115.92
WARNING: 3 of 9941 force values in table DE_GNP are inconsistent with -dE/dr.
WARNING:  Should only be flagged at inflection points (src/pair_table.cpp:463)
pair_coeff 1 2 ./pgnpmf/mixed_potential.txt DE_GNP 95.66
WARNING: 1562 of 9941 force values in table DE_GNP are inconsistent with -dE/dr.
WARNING:  Should only be flagged at inflection points (src/pair_table.cpp:463)

# Neighbor list calc frequency #
neigh_modify delay 0 every 1 check yes

# Saving frequency #
variable ts_save equal floor(${steps_gen}*0.01)
variable ts_save equal floor(5000*0.01)

# Dump #
dump 1 all custom 10000 ./pgnpmf/${folder}/generation/trajectory/trajectory_${usic}_${trial}.gen.custom type x y z ix iy iz
dump 1 all custom 10000 ./pgnpmf/37/generation/trajectory/trajectory_${usic}_${trial}.gen.custom type x y z ix iy iz
dump 1 all custom 10000 ./pgnpmf/37/generation/trajectory/trajectory_1_${trial}.gen.custom type x y z ix iy iz
dump 1 all custom 10000 ./pgnpmf/37/generation/trajectory/trajectory_1_1.gen.custom type x y z ix iy iz
dump_modify 1 first no sort id
dump 2 all cfg 10000 ./pgnpmf/${folder}/generation/trajectory/dumpgen.tens_*.cfg mass type xs ys zs fx fy fz
dump 2 all cfg 10000 ./pgnpmf/37/generation/trajectory/dumpgen.tens_*.cfg mass type xs ys zs fx fy fz
dump_modify 2 element N20 N100

# Fix #
fix 1 all momentum 1000 linear 1 1 1 angular

variable T equal ${Temp}
variable T equal 300

variable nts equal ${steps_gen}/${ts}
variable nts equal 5000/${ts}
variable nts equal 5000/1
variable long equal ${nts}*5
variable long equal 5000*5

# Velocity #
velocity all create ${T} ${Vseed} mom yes rot yes dist gaussian
velocity all create 300 ${Vseed} mom yes rot yes dist gaussian
velocity all create 300 97531 mom yes rot yes dist gaussian

fix 2 all nvt temp ${T} 370000 100.0 #iso 1.0 1.0 1000.0
fix 2 all nvt temp 300 370000 100.0 
run ${nts}
run 5000
Generated 0 of 1 mixed pair_coeff terms from geometric mixing rule
Neighbor list info ...
  update every 1 steps, delay 0 steps, check yes
  max neighbors/atom: 2000, page size: 100000
  master list distance cutoff = 117.92
  ghost atom cutoff = 117.92
  binsize = 58.96, bins = 72 72 72
  1 neighbor lists, perpetual/occasional/extra = 1 0 0
  (1) pair table, perpetual
      attributes: half, newton on
      pair build: half/bin/atomonly/newton
      stencil: half/bin/3d
      bin: standard
Per MPI rank memory allocation (min/avg/max) = 6.141 | 6.143 | 6.147 Mbytes
   Step          Temp          E_pair         E_mol          TotEng         Press     
         0   300            0              0              893.34877      0.00055119596
      5000   357464.85     -66873.509      0              997595.77      0.64048871   
Loop time of 0.0704297 on 4 procs for 5000 steps with 1000 atoms

Performance: 6133.777 ns/day, 0.004 hours/ns, 70992.793 timesteps/s
98.1% CPU use with 4 MPI tasks x 1 OpenMP threads

MPI task timing breakdown:
Section |  min time  |  avg time  |  max time  |%varavg| %total
---------------------------------------------------------------
Pair    | 0.003979   | 0.0040965  | 0.0042022  |   0.2 |  5.82
Neigh   | 0.0014422  | 0.0014725  | 0.0015258  |   0.1 |  2.09
Comm    | 0.030175   | 0.030627   | 0.031075   |   0.2 | 43.49
Output  | 1.8892e-05 | 2.2841e-05 | 3.4088e-05 |   0.0 |  0.03
Modify  | 0.024022   | 0.024783   | 0.025456   |   0.4 | 35.19
Other   |            | 0.009428   |            |       | 13.39

Nlocal:            250 ave         253 max         246 min
Histogram: 1 0 1 0 0 0 0 0 0 2
Nghost:             28 ave          35 max          21 min
Histogram: 1 0 1 0 0 0 0 1 0 1
Neighs:           4.75 ave           8 max           1 min
Histogram: 1 0 0 0 1 0 0 1 0 1

Total # of neighbors = 19
Ave neighs/atom = 0.019
Neighbor list builds = 16
Dangerous builds = 0

unfix 2

fix 3 all nvt temp 370000 370000 100.0
run ${long}
run 25000
Generated 0 of 1 mixed pair_coeff terms from geometric mixing rule
Per MPI rank memory allocation (min/avg/max) = 6.141 | 6.143 | 6.147 Mbytes
   Step          Temp          E_pair         E_mol          TotEng         Press     
      5000   357464.85     -66873.509      0              997595.77      0.64048871   
     30000   379838.13     -1452306.3      0             -321213.21      0.59941277   
Loop time of 0.379731 on 4 procs for 25000 steps with 1000 atoms

Performance: 5688.244 ns/day, 0.004 hours/ns, 65836.161 timesteps/s
98.9% CPU use with 4 MPI tasks x 1 OpenMP threads

MPI task timing breakdown:
Section |  min time  |  avg time  |  max time  |%varavg| %total
---------------------------------------------------------------
Pair    | 0.029375   | 0.039392   | 0.050779   |   4.0 | 10.37
Neigh   | 0.011374   | 0.011662   | 0.01195    |   0.2 |  3.07
Comm    | 0.1353     | 0.14733    | 0.15757    |   2.5 | 38.80
Output  | 0.013001   | 0.013136   | 0.013394   |   0.1 |  3.46
Modify  | 0.11358    | 0.12089    | 0.12697    |   1.4 | 31.83
Other   |            | 0.04733    |            |       | 12.46

Nlocal:            250 ave         253 max         246 min
Histogram: 1 0 1 0 0 0 0 0 0 2
Nghost:           24.5 ave          31 max          18 min
Histogram: 1 1 0 0 0 0 0 0 1 1
Neighs:           47.5 ave          74 max          21 min
Histogram: 1 0 1 0 0 0 0 1 0 1

Total # of neighbors = 190
Ave neighs/atom = 0.19
Neighbor list builds = 128
Dangerous builds = 0

unfix 3

fix 4 all nvt temp 370000 3700000 $(100*dt)
fix 4 all nvt temp 370000 3700000 100
run ${long}
run 25000
Generated 0 of 1 mixed pair_coeff terms from geometric mixing rule
Per MPI rank memory allocation (min/avg/max) = 6.141 | 6.144 | 6.148 Mbytes
   Step          Temp          E_pair         E_mol          TotEng         Press     
     30000   379838.13     -1452306.3      0             -321213.21      0.59941277   
     55000   3723621.5     -1738142.6      0              9350166.2      7.0184645    
Loop time of 0.400582 on 4 procs for 25000 steps with 1000 atoms

Performance: 5392.151 ns/day, 0.004 hours/ns, 62409.161 timesteps/s
99.4% CPU use with 4 MPI tasks x 1 OpenMP threads

MPI task timing breakdown:
Section |  min time  |  avg time  |  max time  |%varavg| %total
---------------------------------------------------------------
Pair    | 0.044346   | 0.056258   | 0.073414   |   5.1 | 14.04
Neigh   | 0.024702   | 0.025151   | 0.025858   |   0.3 |  6.28
Comm    | 0.12835    | 0.14726    | 0.16118    |   3.7 | 36.76
Output  | 0.0037499  | 0.003897   | 0.0041889  |   0.3 |  0.97
Modify  | 0.11469    | 0.11986    | 0.12459    |   1.0 | 29.92
Other   |            | 0.04816    |            |       | 12.02

Nlocal:            250 ave         253 max         246 min
Histogram: 1 0 0 0 1 0 0 0 1 1
Nghost:          32.75 ave          38 max          24 min
Histogram: 1 0 0 0 0 1 0 0 0 2
Neighs:          58.25 ave          87 max          37 min
Histogram: 1 1 0 0 0 1 0 0 0 1

Total # of neighbors = 233
Ave neighs/atom = 0.233
Neighbor list builds = 279
Dangerous builds = 0

unfix 4

fix 5 all nvt temp 3700000 ${T} 100.0
fix 5 all nvt temp 3700000 300 100.0
run ${nts}
run 5000
Generated 0 of 1 mixed pair_coeff terms from geometric mixing rule
Per MPI rank memory allocation (min/avg/max) = 6.141 | 6.144 | 6.148 Mbytes
   Step          Temp          E_pair         E_mol          TotEng         Press     
     55000   3723621.5     -1738142.6      0              9350166.2      7.0184645    
     60000   70559.774     -1715837.9      0             -1505723       -0.0088463278 
Loop time of 0.0853681 on 4 procs for 5000 steps with 1000 atoms

Performance: 5060.437 ns/day, 0.005 hours/ns, 58569.869 timesteps/s
99.1% CPU use with 4 MPI tasks x 1 OpenMP threads

MPI task timing breakdown:
Section |  min time  |  avg time  |  max time  |%varavg| %total
---------------------------------------------------------------
Pair    | 0.0089628  | 0.011475   | 0.014141   |   1.8 | 13.44
Neigh   | 0.0047293  | 0.0047875  | 0.0048455  |   0.1 |  5.61
Comm    | 0.029835   | 0.032395   | 0.035133   |   1.2 | 37.95
Output  | 0.0019591  | 0.0019633  | 0.0019756  |   0.0 |  2.30
Modify  | 0.024155   | 0.024711   | 0.025549   |   0.3 | 28.95
Other   |            | 0.01004    |            |       | 11.76

Nlocal:            250 ave         253 max         246 min
Histogram: 1 0 0 0 1 0 0 0 1 1
Nghost:           35.5 ave          41 max          28 min
Histogram: 1 0 0 0 0 0 2 0 0 1
Neighs:          57.25 ave          82 max          31 min
Histogram: 1 0 0 1 0 0 0 1 0 1

Total # of neighbors = 229
Ave neighs/atom = 0.229
Neighbor list builds = 52
Dangerous builds = 0

# Thermo #
thermo_style custom step temp press pe ke etotal epair lx ly lz xlo xhi ylo yhi zlo zhi vol density dt time

# Run stle #
run_style verlet

# Run #
timestep ${ts}
timestep 1
thermo ${ts_save}
thermo 50
# run ${steps_gen}

# write restart #
write_restart ${write_restart}
write_restart ./pgnpmf/37/genpmf.res
System init for write_restart ...
Generated 0 of 1 mixed pair_coeff terms from geometric mixing rule


Total wall time: 0:00:01
