ITEM: TIMESTEP
0
ITEM: NUMBER OF ATOMS
1000
ITEM: BOX BOUNDS pp pp pp
-1.0000000000000000e+02 5.1000000000000000e+03
-1.0000000000000000e+02 5.1000000000000000e+03
-1.0000000000000000e+02 5.1000000000000000e+03
ITEM: ATOMS type x y z ix iy iz
1 277.404 1322.86 1524.1 0 0 0
1 891.933 3724.43 943.097 0 0 0
1 3934.67 1821.98 1735.66 0 0 0
1 178.817 815.597 1656.23 0 0 0
1 472.453 230.057 0.144 0 0 0
1 1723.48 3021.49 1113.25 0 0 0
1 534.378 1345.04 3583.47 0 0 0
1 0.05 834.547 1863.88 0 0 0
1 1188.14 3494.18 2498.01 0 0 0
1 0.169 1670.73 2948.83 0 0 0
1 1040.05 643.346 732.906 0 0 0
1 2920.37 867.403 31.689 0 0 0
1 345.389 1327.67 916.396 0 0 0
1 2202.49 0.108 0.116 0 0 0
1 682.499 1156.94 173.973 0 0 0
1 489.098 881.081 1461.35 0 0 0
1 1639.78 1501.79 1274.35 0 0 0
1 -0.001 561.839 -0.006 0 0 0
1 301.118 33.747 2914.5 0 0 0
1 488.768 1524.28 564.486 0 0 0
1 810.107 840.815 947.853 0 0 0
1 1516.45 3127.31 2045.82 0 0 0
1 1019.49 1494.35 497.922 0 0 0
1 1188.04 0.03 616.471 0 0 0
1 1470.38 2136.67 1655.78 0 0 0
1 342 201.959 869.582 0 0 0
1 663.255 395.279 224.74 0 0 0
1 277.877 395.638 554.891 0 0 0
1 778.244 476.06 297.516 0 0 0
1 439.467 568.282 641.83 0 0 0
1 834.958 878.771 626.937 0 0 0
1 788.705 384.037 439.47 0 0 0
1 457.38 148.968 782.722 0 0 0
1 845.233 231.056 965.435 0 0 0
1 698.831 548.881 636.247 0 0 0
1 429.072 243.409 597.185 0 0 0
1 455.728 317.855 712.619 0 0 0
1 261.381 657.668 719.902 0 0 0
1 575.308 1704.3 2584.47 0 0 0
1 625.619 145.756 273.66 0 0 0
1 474.209 632.325 895.813 0 0 0
1 144.078 625.514 53.283 0 0 0
1 105.36 749.044 635.354 0 0 0
1 101.38 618.017 876.734 0 0 0
1 2459.06 1335.12 1907.6 0 0 0
1 636.818 849.885 567.995 0 0 0
1 315.438 128.105 161.599 0 0 0
1 321.843 102.768 20.44 0 0 0
1 133.125 694.629 530.238 0 0 0
1 11.185 409.944 449.297 0 0 0
1 457.208 410.424 908.938 0 0 0
1 569.167 564.966 937.591 0 0 0
1 514.054 497.882 99.894 0 0 0
1 972.071 28.518 464.755 0 0 0
1 114.612 562.417 352.296 0 0 0
1 1661.58 2200.6 923.68 0 0 0
1 904.198 717.62 577.413 0 0 0
1 62.082 569.255 763.828 0 0 0
1 278.698 870.371 851.168 0 0 0
1 785.397 824.782 723.423 0 0 0
1 816.237 998.799 44.002 0 0 0
1 193.266 1021.56 735.888 0 0 0
1 212.959 120.941 50.032 0 0 0
1 327.48 762.573 761.159 0 0 0
1 845.233 738.535 454.328 0 0 0
1 518.799 642.952 781.419 0 0 0
1 299.312 539.645 743.602 0 0 0
1 920.696 442.187 980.773 0 0 0
1 961.484 234.04 604.247 0 0 0
1 815.167 127.323 481.342 0 0 0
1 514.159 84.014 971.119 0 0 0
1 397.295 387.271 806.115 0 0 0
1 409.885 528.74 263.669 0 0 0
1 923.1 325.5 948.67 0 0 0
1 629.678 922.819 859.725 0 0 0
1 0 2900.09 2031.08 0 0 0
1 526.143 985.09 538.65 0 0 0
1 376.817 501.114 958.376 0 0 0
1 667.106 381.44 999.411 0 0 0
1 112.074 427.513 561.889 0 0 0
1 627.403 2067.24 538.774 0 0 0
1 1214.81 12.04 1582.32 0 0 0
1 727.077 952.093 429.145 0 0 0
1 978.772 277.968 715.955 0 0 0
1 257.107 177.063 702.914 0 0 0
1 109.73 344.122 995.011 0 0 0
1 258.94 77.535 989.825 0 0 0
1 830.819 65.902 783.931 0 0 0
1 822.245 481.315 832.865 0 0 0
1 1402.3 1102.8 2407.73 0 0 0
1 140.372 661.202 724.234 0 0 0
1 502.616 994.468 717.663 0 0 0
1 537.518 320.452 50.956 0 0 0
1 159.559 802.813 774.527 0 0 0
1 403.614 573.037 468.608 0 0 0
1 256.098 786.448 315.684 0 0 0
1 888.039 778.591 892.617 0 0 0
1 742.629 116.381 384.842 0 0 0
1 667.827 207.549 634.648 0 0 0
1 93.1 147.988 569.796 0 0 0
1 121.614 950.614 451.714 0 0 0
1 948.58 129.603 83.063 0 0 0
1 442.195 278.704 853.131 0 0 0
1 1073.96 1604.56 1202.98 0 0 0
1 557.627 423.41 263.233 0 0 0
1 733.687 768.393 981.781 0 0 0
1 292.775 340.452 964.878 0 0 0
1 528.263 526.551 714.92 0 0 0
1 4617.89 1091.07 3416.27 0 0 0
1 25.994 898.237 100.841 0 0 0
1 214.037 218.4 571.558 0 0 0
1 863.935 7.035 411.025 0 0 0
1 149.383 507.52 455.532 0 0 0
1 77.602 105.016 829.849 0 0 0
1 272.041 1070.54 1848.16 0 0 0
1 120.679 215.352 860.528 0 0 0
1 225.199 524.913 87.981 0 0 0
1 942.39 296.93 134.926 0 0 0
1 617.704 588.738 826.519 0 0 0
1 852.927 600.674 326.409 0 0 0
1 0.14 0.26 4280.22 0 0 0
1 821.877 519.231 960.746 0 0 0
1 653.411 21.044 663.814 0 0 0
1 214.722 823.78 425.369 0 0 0
1 1414.38 199.959 2.182 0 0 0
1 494.777 752.049 393.234 0 0 0
1 432.93 747.642 497.243 0 0 0
1 521.912 582.942 437.567 0 0 0
1 918.163 905.535 739.763 0 0 0
1 255.99 577.727 366.218 0 0 0
1 801.448 628.555 175.017 0 0 0
1 345.189 459.436 339.24 0 0 0
1 662.873 979.269 63.505 0 0 0
1 802.195 909.726 810.681 0 0 0
1 652.627 199.053 34.814 0 0 0
1 857.486 388.688 324.665 0 0 0
1 91.178 780.393 875.22 0 0 0
1 199.513 492.569 797.939 0 0 0
1 728.855 588.518 263.155 0 0 0
1 379.038 8.711 1847.46 0 0 0
1 2174.97 1000.46 1806.99 0 0 0
1 727.32 557.659 870.884 0 0 0
1 562.353 1552.34 1932.87 0 0 0
1 1524.6 1044.24 1098.47 0 0 0
1 1159.71 3911.22 863.52 0 0 0
1 332.588 698.849 450.413 0 0 0
1 22.118 69.441 192.982 0 0 0
1 797.033 9.158 142.964 0 0 0
1 385.599 643.511 754.938 0 0 0
1 480.195 1024.68 394.657 0 0 0
1 971.332 280.82 1.715 0 0 0
1 524.202 978.32 835.622 0 0 0
1 426.267 93.207 676.23 0 0 0
1 612.811 754.122 1009.26 0 0 0
1 728.753 997.789 968.132 0 0 0
1 343.405 664.051 617.143 0 0 0
1 580.186 216.522 559.03 0 0 0
1 285.395 480.554 229.772 0 0 0
1 853.803 998.867 333.272 0 0 0
1 8.916 861.283 456.396 0 0 0
1 594.415 291.507 202.437 0 0 0
1 292.956 405.563 88.307 0 0 0
1 567.866 312.755 762.599 0 0 0
1 235.776 825.713 203.045 0 0 0
1 391.182 461.718 475.181 0 0 0
1 763.445 447.394 649.206 0 0 0
1 466.481 630.269 313.916 0 0 0
1 393.242 714.095 5.312 0 0 0
1 689.408 2617.42 2223.4 0 0 0
1 910.744 672.773 90.913 0 0 0
1 490.918 526.503 540.473 0 0 0
1 178.646 327.941 539.418 0 0 0
1 345.954 559.746 857.126 0 0 0
1 463.202 828.693 304.909 0 0 0
1 911.007 941.106 532.567 0 0 0
1 1871.6 1449.46 248.118 0 0 0
1 390.285 262.902 963.54 0 0 0
1 181.925 386.348 882.892 0 0 0
1 282.881 788.765 46.142 0 0 0
1 555.354 312.226 642.086 0 0 0
1 171.763 924.404 834.246 0 0 0
1 717.064 531.989 391.071 0 0 0
1 1281.09 1766.42 386.28 0 0 0
1 303.378 958.079 768.27 0 0 0
1 771.084 531.482 539.485 0 0 0
1 673.375 673.912 924.631 0 0 0
1 273.192 971.286 651.81 0 0 0
1 133.712 121.457 145.276 0 0 0
1 957.358 422.419 147.901 0 0 0
1 499.751 920.943 997.566 0 0 0
1 326.117 303.453 604.889 0 0 0
1 741.879 8.174 1786.55 0 0 0
1 959.073 941.949 420.852 0 0 0
1 713.556 736.338 217.556 0 0 0
1 735.409 282.859 999.557 0 0 0
1 1181.37 2166.51 1438.17 0 0 0
1 678.766 347.024 644.579 0 0 0
1 33.448 397.674 902.989 0 0 0
1 562.724 729.179 900.15 0 0 0
1 705.997 884.545 935.916 0 0 0
1 612.498 639.768 500.485 0 0 0
1 859.828 727.418 214.434 0 0 0
1 284.689 2387.68 450.452 0 0 0
1 575.807 1013.22 970.165 0 0 0
1 647.265 107.626 978.11 0 0 0
1 868.569 1022.78 453.943 0 0 0
1 387.357 523.255 1091.24 0 0 0
1 742.377 746.882 71.187 0 0 0
1 977.994 290.843 377.709 0 0 0
1 80.937 994.362 779.759 0 0 0
1 1886.82 2082.14 856.615 0 0 0
1 195.066 473.905 313.604 0 0 0
1 475.68 745.849 1003.53 0 0 0
1 398.713 379.766 1011.01 0 0 0
1 124.039 867.279 654.823 0 0 0
1 715.288 87.168 753.02 0 0 0
1 1004.76 79.048 579.133 0 0 0
1 856.37 780.921 93.253 0 0 0
1 926.043 889.981 7.535 0 0 0
1 726.503 934.156 624.924 0 0 0
1 5.132 286.418 861.471 0 0 0
1 3452.17 2671.69 0.003 0 0 0
1 115.017 112.097 686.233 0 0 0
1 357.583 494.8 126.188 0 0 0
1 581.366 566.886 611.384 0 0 0
1 555.995 207.508 821.63 0 0 0
1 504.918 289.024 519.681 0 0 0
1 870.675 140.114 210.335 0 0 0
1 917.512 106.788 658.336 0 0 0
1 393.488 905.933 574.844 0 0 0
1 673.589 289.388 897.544 0 0 0
1 233.603 543.653 624.339 0 0 0
1 681.625 1003.4 534.937 0 0 0
1 451.627 495.184 385.042 0 0 0
1 308.29 73.665 657.728 0 0 0
1 12.747 677.03 712.236 0 0 0
1 939.855 1007.38 3320.18 0 0 0
1 947.483 454.58 857.343 0 0 0
1 259.441 467.71 424.21 0 0 0
1 622.599 406.361 535.433 0 0 0
1 527.537 15.667 632.037 0 0 0
1 911.455 168.596 776.944 0 0 0
1 623.697 457.965 132.266 0 0 0
1 429.582 73.028 259.818 0 0 0
1 602.813 39.724 349.035 0 0 0
1 773.877 228.99 570.107 0 0 0
1 91.317 48.526 300.601 0 0 0
1 1117.51 149.772 2547.56 0 0 0
1 997.858 156.579 270.903 0 0 0
1 681.667 472.373 797.982 0 0 0
1 223.539 432.685 680.033 0 0 0
1 375.093 752.071 350.125 0 0 0
1 695.978 777.261 420.096 0 0 0
1 339.28 1002.13 943.332 0 0 0
1 1059.25 185.384 552.031 0 0 0
1 301.453 3612.65 451.447 0 0 0
1 428.369 126.926 519.523 0 0 0
1 2375.27 1997.44 2452.7 0 0 0
1 410.822 857.962 410.191 0 0 0
1 202.148 22.688 495.715 0 0 0
1 730.272 429.937 901.444 0 0 0
1 741.072 275.247 67.097 0 0 0
1 951.977 48.868 217.766 0 0 0
1 169.497 304.766 241.843 0 0 0
1 714.683 942.311 744.292 0 0 0
1 844.484 604.814 697.178 0 0 0
1 109.418 278.261 630.335 0 0 0
1 38.509 663.573 299.123 0 0 0
1 76.384 217.817 732.417 0 0 0
1 545.648 952.228 50.527 0 0 0
1 649.513 137.413 860.729 0 0 0
1 473.361 657.748 567.615 0 0 0
1 729.224 295.756 185.757 0 0 0
1 921.225 2451.29 424.648 0 0 0
1 393.124 79.291 402.141 0 0 0
1 188.252 117.235 782.429 0 0 0
1 951.149 559.97 997.378 0 0 0
1 201.609 53.013 241.169 0 0 0
1 891.035 879.073 342.719 0 0 0
1 379.902 468.22 681.729 0 0 0
1 2090.7 2916.47 511.98 0 0 0
1 469.653 528.585 816.244 0 0 0
1 526.439 440.689 641.663 0 0 0
1 0.119 2073.49 3917.96 0 0 0
1 570.291 771.95 501.865 0 0 0
1 891.283 1504.57 3627.83 0 0 0
1 346.154 642.746 306.538 0 0 0
1 240.508 526.616 906.671 0 0 0
1 889.967 48.67 551.62 0 0 0
1 968.588 675.186 203.604 0 0 0
1 471.44 574.208 1015.62 0 0 0
1 911.1 287.161 256.877 0 0 0
1 666.094 404.989 416.011 0 0 0
1 740.519 566.164 748.814 0 0 0
1 674.879 156.114 510.171 0 0 0
1 387.723 662.212 982.178 0 0 0
1 541.105 431.092 446.38 0 0 0
1 3180.02 2225.03 894.867 0 0 0
1 777.985 390.502 761.947 0 0 0
1 580.17 703.469 601.426 0 0 0
1 608.791 920.278 473.209 0 0 0
1 419.327 188.812 422.544 0 0 0
1 470.204 413.815 541.562 0 0 0
1 789.959 157.689 112.983 0 0 0
1 909.287 607.61 501.356 0 0 0
1 486.616 765.771 733.953 0 0 0
1 896.978 492.391 275.14 0 0 0
1 324.729 192.214 492.013 0 0 0
1 792.94 831.684 290.003 0 0 0
1 80.245 995.153 928.201 0 0 0
1 661.848 183.868 154.74 0 0 0
1 858.626 721.215 335.269 0 0 0
1 203.714 102.291 604.011 0 0 0
1 1018.65 513.565 704.283 0 0 0
1 62.177 918.95 558.687 0 0 0
1 103.37 995.27 54.148 0 0 0
1 2530.08 3642.12 2668.67 0 0 0
1 3546.62 1601.04 2530.76 0 0 0
1 572.277 470.08 858.835 0 0 0
1 300.442 591.301 530.924 0 0 0
1 806.198 1022.06 800.742 0 0 0
1 987.101 847.958 880.664 0 0 0
1 350.75 766.02 226.586 0 0 0
1 106.424 801.953 202.328 0 0 0
1 930.498 454.406 15.557 0 0 0
1 1707.43 22.763 14.33 0 0 0
1 118.47 457.51 714.777 0 0 0
1 904.482 821.153 1044.93 0 0 0
1 620.878 881.356 688.08 0 0 0
1 796.704 684.075 919.998 0 0 0
1 3659.92 1015.82 4908.09 0 0 0
1 708.526 321.528 527.544 0 0 0
1 1437.1 2350.97 1502.7 0 0 0
1 471.633 584.595 175.864 0 0 0
1 956.194 555.444 599.943 0 0 0
1 793.233 851.285 414.937 0 0 0
1 464.374 274.583 2488.82 0 0 0
1 614.524 518.819 490.812 0 0 0
1 403.641 107.937 914.431 0 0 0
1 647.274 339.179 318.17 0 0 0
1 480.097 777.048 605.059 0 0 0
1 133.743 547.017 976.346 0 0 0
1 572.143 128.338 637.408 0 0 0
1 188.328 440.62 995.152 0 0 0
1 352.447 782.156 641.881 0 0 0
1 575.334 234.496 443.897 0 0 0
1 123.559 116 465.53 0 0 0
1 27.601 723.731 195.584 0 0 0
1 497.089 151.58 297.29 0 0 0
1 531.301 1024.37 197.647 0 0 0
1 89.955 9.111 597.417 0 0 0
1 884.569 122.476 930.555 0 0 0
1 330.319 812.126 508.093 0 0 0
1 554.193 440.593 974.839 0 0 0
1 412.449 943.255 867.037 0 0 0
1 223.187 797.291 660.576 0 0 0
1 877.817 271.999 525.492 0 0 0
1 223.069 649.005 463.363 0 0 0
1 224.825 667.02 271.225 0 0 0
1 902.637 573.707 800.739 0 0 0
1 805.269 601.183 438.502 0 0 0
1 383.478 410.158 216.156 0 0 0
1 121.622 619.192 223.204 0 0 0
1 643.039 479.451 310.726 0 0 0
1 878.278 484.69 660.852 0 0 0
1 847.756 289.863 10.844 0 0 0
1 955.533 881.543 639.088 0 0 0
1 1715.36 1499.53 1150.26 0 0 0
1 457.327 712.01 192.698 0 0 0
1 825.187 364.764 585.946 0 0 0
1 768.642 838.542 534.062 0 0 0
1 906.316 633.215 910.593 0 0 0
1 337.846 112.51 768.45 0 0 0
1 746.332 188.682 914.962 0 0 0
1 302.412 908.394 434.813 0 0 0
1 910.686 820.7 514.376 0 0 0
1 341.743 498.083 573.93 0 0 0
1 544.049 274.013 922.006 0 0 0
1 617.178 655.635 710.023 0 0 0
1 574.847 88.559 131.419 0 0 0
1 1665.23 1051.63 4909.6 0 0 0
1 440.311 891.788 759.218 0 0 0
1 425.2 840.861 944.118 0 0 0
1 819.402 348.605 890.757 0 0 0
1 773.726 859.511 1051.77 0 0 0
1 102.849 785.002 455.677 0 0 0
1 1240.81 2131 11.217 0 0 0
1 1127.55 86.408 584.847 0 0 0
1 3686.03 2136.36 0 0 0 0
1 46.1 263.793 138.851 0 0 0
1 794.42 1589.2 632.222 0 0 0
1 4153.62 1386.88 2926.51 0 0 0
1 479.448 0.027 1228.82 0 0 0
1 943.222 1087.41 2573.34 0 0 0
1 1405.92 254.397 853.881 0 0 0
1 408.303 216.263 2404.71 0 0 0
1 1180.62 426.146 342.705 0 0 0
1 2827.98 3026.36 4589.95 0 0 0
1 141.216 679.816 368.85 0 0 0
1 889.158 318.26 796.482 0 0 0
2 785.88 4999.99 1857.04 0 0 0
2 1170.41 3658.96 3006.09 0 0 0
2 3189.04 0.083 2254.8 0 0 0
2 0.225 3045 0.228 0 0 0
2 0 76.716 0.001 0 0 0
2 4693.43 16.865 4999.72 0 0 0
2 3985.51 4999.9 159.007 0 0 0
2 4999.73 3370.54 4999.59 0 0 0
2 4999.98 4639.28 4778.22 0 0 0
2 104.049 468.066 0.029 0 0 0
2 5000 16.966 4013.77 0 0 0
2 3400.26 144.761 0 0 0 0
2 3353.73 5000 4574.68 0 0 0
2 2297 4316.91 2694.26 0 0 0
2 4999.91 0.067 4478.76 0 0 0
2 3499.9 0.068 3112.98 0 0 0
2 0.009 550.108 4999.9 0 0 0
2 4284.86 1881.54 2832.84 0 0 0
2 625.811 2900.64 2169.54 0 0 0
2 4999.9 1166.78 4999.88 0 0 0
2 2837.98 0.217 4235.74 0 0 0
2 2554.11 0 187.045 0 0 0
2 503.113 5000 4523.79 0 0 0
2 1829.97 4463.87 4547.58 0 0 0
2 1619.74 5000 4308.37 0 0 0
2 593.523 1449.33 0.038 0 0 0
2 4700.5 3456.03 1168.76 0 0 0
2 4999.83 4990.44 4514.98 0 0 0
2 4064.36 4208.72 2098.65 0 0 0
2 3698.97 3198.72 498.104 0 0 0
2 3688.56 4999.86 2860.11 0 0 0
2 2381.27 1218.79 762.9 0 0 0
2 4999.98 0.041 4999.97 0 0 0
2 3799.94 3699.46 0.057 0 0 0
2 1962.22 553.77 0 0 0 0
2 4999.99 590.028 2280.41 0 0 0
2 4999.93 4999.75 4999.93 0 0 0
2 2601.7 2108.37 4999.82 0 0 0
2 3485.58 0.234 4999.41 0 0 0
2 1704.86 900.494 737.572 0 0 0
2 591.083 0 831.889 0 0 0
2 0.01 4999.94 1046.84 0 0 0
2 2280.95 0 384.177 0 0 0
2 1696.74 0.058 3998.1 0 0 0
2 90.824 2134.97 2028.08 0 0 0
2 4916.35 2015.34 243.607 0 0 0
2 2334.83 1849.37 2736.84 0 0 0
2 2551.96 310.286 0 0 0 0
2 70.767 4962.09 4506.14 0 0 0
2 2380.76 829.844 0 0 0 0
2 1827.21 118.249 5000 0 0 0
2 3819.52 0 1342.37 0 0 0
2 3379.24 4481.39 186.304 0 0 0
2 2826.68 1568.12 1582.84 0 0 0
2 1603.14 1409.45 0 0 0 0
2 2498.3 0.768 3614.9 0 0 0
2 0 2668.61 1346.83 0 0 0
2 2014.94 725.848 801.313 0 0 0
2 796.478 2093.06 1733.86 0 0 0
2 2882.38 0 604.719 0 0 0
2 0 1318.32 250.911 0 0 0
2 1346.17 0 3073.32 0 0 0
2 456.459 0 2542.49 0 0 0
2 352.275 3570.51 4904.09 0 0 0
2 78.605 0 2727.86 0 0 0
2 11.993 2170.43 2382.55 0 0 0
2 4948.48 2394.69 4929.81 0 0 0
2 1584.6 3449.35 1608.7 0 0 0
2 2206.01 1403 0 0 0 0
2 2425.05 0 872.306 0 0 0
2 1962.39 2619.87 5000 0 0 0
2 4815.91 3585.42 16.984 0 0 0
2 2138.28 2825.61 3655.16 0 0 0
2 4940.35 119.254 4894.35 0 0 0
2 1372.7 2614.9 3580.04 0 0 0
2 4059.75 1397.61 0 0 0 0
2 2159.5 1.49 185.754 0 0 0
2 0 3059.21 1935.93 0 0 0
2 2752.82 0 1042.63 0 0 0
2 6.295 1941.04 0.1 0 0 0
2 4400.13 841.762 0 0 0 0
2 4986.5 1.534 3793.12 0 0 0
2 781.552 1208.35 5000 0 0 0
2 0 1487.16 3633.82 0 0 0
2 1853.13 3.258 2380.47 0 0 0
2 2315.09 3317.91 0 0 0 0
2 3182.64 13.462 4595.42 0 0 0
2 2043.32 43.978 43.168 0 0 0
2 10.89 44.358 1987.12 0 0 0
2 1968.2 0 1059.41 0 0 0
2 2970.1 797.79 3206.55 0 0 0
2 4999.97 4999.75 1504.88 0 0 0
2 1891.61 0 168.95 0 0 0
2 1745.45 640.772 3628.7 0 0 0
2 1154.86 2614.48 1903.22 0 0 0
2 315.662 15.424 1235.14 0 0 0
2 0 2865.8 3703.15 0 0 0
2 1243.92 178.359 1414.5 0 0 0
2 1069.57 51.949 723.245 0 0 0
2 3546.96 3254.71 741.045 0 0 0
2 4178.03 0 1853.33 0 0 0
2 3401.67 0 672.81 0 0 0
2 3834.31 1544.46 1734.64 0 0 0
2 1553.74 4948.6 2113.97 0 0 0
2 1186.9 13.535 347.901 0 0 0
2 836.271 2053.83 30.823 0 0 0
2 519.983 42.848 2174.19 0 0 0
2 1630.88 1449.4 1037.8 0 0 0
2 1026.58 190.677 2669.13 0 0 0
2 971.541 127.177 1409.36 0 0 0
2 940.273 1461.58 1228.83 0 0 0
2 945.401 1265.04 0 0 0 0
2 1000.71 1273.17 2900.6 0 0 0
2 2528.7 4380.31 3317 0 0 0
2 1.734 326.173 2899.46 0 0 0
2 889.968 2881.65 5000 0 0 0
2 426.386 416.166 2530.05 0 0 0
2 3043.67 2540.94 3354.99 0 0 0
2 719.831 1710.9 1802.96 0 0 0
2 720.283 910.725 3909.44 0 0 0
2 1251.68 549.859 0.23 0 0 0
2 1384.11 0 290.782 0 0 0
2 2372.62 786.387 1856.91 0 0 0
2 459.05 2176.61 683.781 0 0 0
2 643.66 759.083 1720.06 0 0 0
2 1919.77 1740.09 1377.44 0 0 0
2 3250.69 1528.75 1088.4 0 0 0
2 3433.17 3386.78 540.284 0 0 0
2 2293.69 270.244 4037.32 0 0 0
2 189.936 2028.03 1566 0 0 0
2 218.968 1657.34 0 0 0 0
2 293.202 1586.64 2031.45 0 0 0
2 1322.05 1126.47 3409.81 0 0 0
2 1103.49 1840.32 0 0 0 0
2 170.944 158.882 3145.22 0 0 0
2 4185.94 940.254 2250.2 0 0 0
2 318.147 2143.27 560.595 0 0 0
2 2637.79 718.222 2041.13 0 0 0
2 945.225 1133.7 112.452 0 0 0
2 2350.53 594.107 0 0 0 0
2 390.494 1134.58 3454.75 0 0 0
2 1907.9 1239.59 3545.89 0 0 0
2 1158.28 1771.44 673.578 0 0 0
2 2138.43 2255.91 5000 0 0 0
2 1379.84 4663.01 0 0 0 0
2 452.217 458.071 2157.92 0 0 0
2 1434.59 272.501 1123.85 0 0 0
2 488.137 318.845 350.215 0 0 0
2 1203.18 1201.27 994.741 0 0 0
2 615.28 661.097 343.272 0 0 0
2 1921.54 1265.16 1165.77 0 0 0
2 2206.98 963.63 695.773 0 0 0
2 1463.37 1669.41 567.255 0 0 0
2 411.891 1142.94 1458.99 0 0 0
2 419.971 1028.59 22.736 0 0 0
2 0 1186.2 1200.06 0 0 0
2 1938.36 1705.68 1961.04 0 0 0
2 2250.41 1847.51 0 0 0 0
2 2689.36 1748.47 662.111 0 0 0
2 659.527 576.166 1062.01 0 0 0
2 2759.99 1737.55 2272.26 0 0 0
2 1616.88 474.516 2173.04 0 0 0
2 1750.86 82.665 265.811 0 0 0
2 1898.93 287.143 4797.76 0 0 0
2 864.284 1039.7 2430.15 0 0 0
2 25.691 4972.01 2839.66 0 0 0
2 2317.63 2701.18 2574.27 0 0 0
2 0 14.526 1650.85 0 0 0
2 1959.32 2831.1 0 0 0 0
2 1581.24 0 215.97 0 0 0
2 3521.92 1682.19 1662.12 0 0 0
2 703.653 165.513 1421.26 0 0 0
2 4434.35 0 3756.55 0 0 0
2 1925.45 427.071 615.297 0 0 0
2 2367.97 104.062 5.627 0 0 0
2 1498.31 41.806 1014.82 0 0 0
2 2027 1360.09 0 0 0 0
2 1472.76 0 1802.9 0 0 0
2 1495.85 3897.42 1244.95 0 0 0
2 0 4615.11 2937.74 0 0 0
2 255.973 3375.95 0 0 0 0
2 1345.51 1722.45 240.304 0 0 0
2 919.245 827.796 2863.71 0 0 0
2 711.508 1889.6 1867.44 0 0 0
2 1.021 4999.95 4999.65 0 0 0
2 1310.57 0 1702.32 0 0 0
2 2098.2 444.401 398.837 0 0 0
2 2993.11 2018.83 0 0 0 0
2 2099.47 736.969 1653.44 0 0 0
2 2318.81 2782.59 0 0 0 0
2 414.01 2998.57 0 0 0 0
2 923.29 0 1016.42 0 0 0
2 2158.21 2044.22 0 0 0 0
2 3344.93 2131.94 1233.26 0 0 0
2 1255.82 0 2397.49 0 0 0
2 4883.58 976.539 0.046 0 0 0
2 242.034 931.35 87.921 0 0 0
2 1254.12 3326.82 3159.58 0 0 0
2 694.864 2083.51 4746.64 0 0 0
2 185.957 371.577 1578.29 0 0 0
2 4999.79 4711.49 3647.36 0 0 0
2 4999.77 1214.62 438.02 0 0 0
2 1611.81 58.568 1997.29 0 0 0
2 356.769 1969.36 1741.92 0 0 0
2 1023.32 434.18 342.157 0 0 0
2 177.473 3023.5 5000 0 0 0
2 2283.59 42.65 1098.55 0 0 0
2 295.947 0 1607.46 0 0 0
2 780.35 1992.27 2670.17 0 0 0
2 0 192.674 1710.23 0 0 0
2 788.846 557.466 1200.77 0 0 0
2 1395.44 1524.07 2014.1 0 0 0
2 1996.98 1340.62 947.476 0 0 0
2 908.545 2.561 3335.04 0 0 0
2 2825.34 2073.05 888.672 0 0 0
2 512.847 1284.07 760.574 0 0 0
2 1075.41 165.311 0 0 0 0
2 1017.38 3032.37 0 0 0 0
2 571.482 83.191 4122.89 0 0 0
2 0 5000 724.979 0 0 0
2 257.054 4.236 2364.41 0 0 0
2 805.368 1255.46 2207.76 0 0 0
2 2131.41 1731.43 2308.42 0 0 0
2 2267.97 1021.77 904.534 0 0 0
2 1417.35 0.179 105.715 0 0 0
2 0 254.58 526.302 0 0 0
2 0 2988.79 955.498 0 0 0
2 109.912 1732.54 1446.48 0 0 0
2 357.693 1506.97 71.378 0 0 0
2 1273.07 1564.26 976.922 0 0 0
2 827.266 246.174 379.467 0 0 0
2 880.181 11.286 1555.73 0 0 0
2 449.967 237.015 177.364 0 0 0
2 441.541 1930.91 0 0 0 0
2 4904.27 1136.14 2752.6 0 0 0
2 640.24 1114.86 3527.33 0 0 0
2 0 1451.02 477.053 0 0 0
2 456.203 3400.46 0 0 0 0
2 497.992 2420.25 0 0 0 0
2 80.48 570.596 609.839 0 0 0
2 2249.43 955.027 0.007 0 0 0
2 0 3077.88 759.504 0 0 0
2 44.365 574.438 2310.81 0 0 0
2 885.996 4074.51 5000 0 0 0
2 1020.35 3157.54 1423.86 0 0 0
2 1125.06 711.334 0.004 0 0 0
2 2443.71 1255.86 1557.95 0 0 0
2 126.327 1346.58 389.141 0 0 0
2 2790.82 3234.7 1315.91 0 0 0
2 3277.63 1379.19 919.862 0 0 0
2 2081.46 1715.69 3379.06 0 0 0
2 105.435 95.058 2163.28 0 0 0
2 766.579 0 900.871 0 0 0
2 187.54 887.889 1304.37 0 0 0
2 1369.08 4040.81 0.001 0 0 0
2 1158.44 1431.49 2253.04 0 0 0
2 1757.52 2520.08 2268.48 0 0 0
2 856.575 1355.21 497.913 0 0 0
2 7.209 4982.74 1631.15 0 0 0
2 0 2486.55 453.182 0 0 0
2 1834.28 951.356 0 0 0 0
2 613.068 845.372 175.965 0 0 0
2 3059.96 3177.8 118.359 0 0 0
2 241.967 244.936 138.071 0 0 0
2 716.268 759.913 1345.6 0 0 0
2 3924.38 2602.13 644.186 0 0 0
2 1712.54 1981.66 3019.1 0 0 0
2 2722.06 2728.26 0 0 0 0
2 1099.96 1.124 3291.97 0 0 0
2 1651.47 808.907 26.584 0 0 0
2 4137.47 2519.17 0 0 0 0
2 182.726 486.814 2148.73 0 0 0
2 9.568 3133.5 1719.5 0 0 0
2 761.855 237.36 765.29 0 0 0
2 1914.22 2362.8 0 0 0 0
2 4534.27 3304.47 0 0 0 0
2 251.37 1141.2 0 0 0 0
2 0 2871.11 246.821 0 0 0
2 0 2617.62 2137.07 0 0 0
2 2259.23 163.462 766.612 0 0 0
2 2542.6 878.489 575.276 0 0 0
2 1940.63 567.139 478.934 0 0 0
2 353.829 2396.95 1605.06 0 0 0
2 1687.92 2373.93 0 0 0 0
2 1971.11 1323.54 399.712 0 0 0
2 241.489 1550.05 1236.31 0 0 0
2 198.364 228.394 3326.18 0 0 0
2 1296.19 3.735 1002.65 0 0 0
2 627.025 3364.08 420.303 0 0 0
2 2074.61 0 898.022 0 0 0
2 69.165 3436.08 0 0 0 0
2 0 2474.86 1239.51 0 0 0
2 840.24 574.924 1621.53 0 0 0
2 211.655 299.818 1397.45 0 0 0
2 1060.01 536.045 0 0 0 0
2 959.342 2840.14 1945.71 0 0 0
2 1264.22 1189.29 1604.77 0 0 0
2 2029.62 2059.21 1623.01 0 0 0
2 0 1468.3 1714.34 0 0 0
2 16.991 717.655 56.119 0 0 0
2 1255.91 2001.59 1380.02 0 0 0
2 39.917 3023.72 2125.53 0 0 0
2 351.207 297.61 18.485 0 0 0
2 3028.67 50.049 3198.37 0 0 0
2 3268.83 4999.97 4426.97 0 0 0
2 1839.52 1866.58 1670.42 0 0 0
2 636.668 0 1351.95 0 0 0
2 474.179 1648.72 1350.82 0 0 0
2 346.618 517.466 1336.26 0 0 0
2 235.334 211.844 2184.32 0 0 0
2 255.135 4267.19 2867.78 0 0 0
2 1761.73 2888.07 0 0 0 0
2 2502.45 467.885 4835.05 0 0 0
2 2443.4 1400.04 0 0 0 0
2 3930.71 4975 -0 0 0 0
2 222.273 2608.5 887.721 0 0 0
2 0 4222.25 5000 0 0 0
2 978.299 1244.5 707.426 0 0 0
2 158.673 2528.04 1372.44 0 0 0
2 1022.45 1795.6 2099.72 0 0 0
2 1940.07 1827.54 574.093 0 0 0
2 1893.41 1814.68 301.386 0 0 0
2 2318.76 694.408 323.066 0 0 0
2 0 231.649 334.398 0 0 0
2 3081.91 2745.91 2229.33 0 0 0
2 2637.11 1384.46 642.551 0 0 0
2 3253.07 0.492 133.684 0 0 0
2 328.21 646.044 128.48 0 0 0
2 1351.05 343.566 0 0 0 0
2 19.851 3743.23 0.058 0 0 0
2 566.744 4779.49 4050.94 0 0 0
2 11.141 1822.36 246.514 0 0 0
2 411.011 1269.03 26.916 0 0 0
2 2966.62 90.107 86.588 0 0 0
2 780.582 44.353 1153.94 0 0 0
2 0 1147.07 3429.63 0 0 0
2 0 649.063 3143.81 0 0 0
2 1473.84 2343.35 0 0 0 0
2 4060.04 2793.44 5000 0 0 0
2 486.452 2777.43 1561.4 0 0 0
2 1206.81 1120.13 5000 0 0 0
2 1179.36 754.895 943.261 0 0 0
2 731.636 507.524 2838.02 0 0 0
2 61.922 907.486 312.125 0 0 0
2 1662.29 603.361 3278.47 0 0 0
2 414.901 2238.43 0 0 0 0
2 1511.57 1817.68 0 0 0 0
2 1349.28 960.207 0 0 0 0
2 2778.82 0.002 4752.47 0 0 0
2 1460.94 3133.51 827.206 0 0 0
2 2368.53 2098.62 0 0 0 0
2 646.721 2215.66 219.317 0 0 0
2 206.15 1728.07 263.964 0 0 0
2 1557.28 1617.76 0 0 0 0
2 2124.46 318.092 1057.5 0 0 0
2 247.389 2162.17 986.425 0 0 0
2 3291.52 327.425 4411.13 0 0 0
2 967.206 1827.89 589.952 0 0 0
2 1549.23 2378.38 414.861 0 0 0
2 800.194 443.141 136.048 0 0 0
2 319.94 1140.72 1644.17 0 0 0
2 1849.96 621.583 712.766 0 0 0
2 391.33 1034.65 1783.47 0 0 0
2 4317.37 496.084 0 0 0 0
2 0 2046.03 490.114 0 0 0
2 1265.12 0 1197.28 0 0 0
2 0.504 4333.2 0.771 0 0 0
2 2214.66 180.686 151.897 0 0 0
2 4603.56 2230.55 2990.3 0 0 0
2 667.376 2421.03 3158.81 0 0 0
2 3035.02 0 2613.82 0 0 0
2 2224.91 39.733 582.523 0 0 0
2 4193.45 0.001 4073.41 0 0 0
2 4999.97 3194.33 4219.58 0 0 0
2 0 255.206 3114.41 0 0 0
2 1278.28 16.281 726.635 0 0 0
2 0 980.963 1216.55 0 0 0
2 797.371 1727.57 0.015 0 0 0
2 1094.95 1070.97 305.853 0 0 0
2 147.347 3244.72 1184.63 0 0 0
2 960.27 2381.39 0 0 0 0
2 1916.72 3184.47 4480.19 0 0 0
2 460.092 0 2370.04 0 0 0
2 0 2011.49 301.926 0 0 0
2 0 1618.4 369.923 0 0 0
2 1099.91 0 181.625 0 0 0
2 1062.23 801.668 537.257 0 0 0
2 0 1032.54 4073.78 0 0 0
2 920.848 1097.54 587.523 0 0 0
2 946.623 744.124 760.938 0 0 0
2 2423.36 271.984 529.822 0 0 0
2 0 2408.45 155.115 0 0 0
2 2517.69 4075.19 3034.8 0 0 0
2 4143.38 881.566 983.783 0 0 0
2 389.407 1785.11 1824.14 0 0 0
2 1235.12 1471.13 1386.7 0 0 0
2 2818.74 636.216 2055.47 0 0 0
2 178.887 1646.88 1684.46 0 0 0
2 219.806 2382.46 0.309 0 0 0
2 3146.13 413.569 432.924 0 0 0
2 2999.48 818.381 2375.68 0 0 0
2 0 1086.09 1957.34 0 0 0
2 2370.74 0 1597.7 0 0 0
2 1922.63 2155.37 715.938 0 0 0
2 823.396 7.964 1370.72 0 0 0
2 0 532.753 1092.56 0 0 0
2 1934.33 436.025 276.639 0 0 0
2 1055.78 564.881 1677.08 0 0 0
2 1641.85 734.473 629.733 0 0 0
2 403.182 189.575 2028.4 0 0 0
2 58.405 1613.71 1273.61 0 0 0
2 2519.39 4175.55 3366.06 0 0 0
2 15.391 3696.99 5000 0 0 0
2 2134.29 3045.4 2373.39 0 0 0
2 547.073 31.408 1514.7 0 0 0
2 2696.57 945.029 0 0 0 0
2 1691.71 153.787 1635 0 0 0
2 347.475 1865.48 262.358 0 0 0
2 1196.12 480.954 1262.06 0 0 0
2 689.411 2467.52 517.33 0 0 0
2 1983.78 0 407.641 0 0 0
2 4999.97 3801.34 2363.2 0 0 0
2 185.73 1095.34 502.323 0 0 0
2 1538.03 1061.1 1384.78 0 0 0
2 0 3212.49 4699.11 0 0 0
2 3244.89 1390.34 2789.5 0 0 0
2 5000 258.566 401.768 0 0 0
2 23.09 537.681 135.97 0 0 0
2 3014.27 447.055 113.993 0 0 0
2 650.677 69.755 4346.91 0 0 0
2 0.014 1867.79 548.922 0 0 0
2 749.157 682.411 560.833 0 0 0
2 0 1391.75 2246.21 0 0 0
2 4958.08 2129.65 3299.09 0 0 0
2 1213.66 2015.89 1914.33 0 0 0
2 3263.2 673.965 0 0 0 0
2 2569.18 1552.49 0 0 0 0
2 1667.81 284.498 824.942 0 0 0
2 0 3585.88 4736.52 0 0 0
2 2076.34 1167.7 634.733 0 0 0
2 505.603 1806.99 1979.85 0 0 0
2 3850.26 1437.26 914.178 0 0 0
2 1464.61 2198.91 3142.37 0 0 0
2 1425.4 1176.68 1138.6 0 0 0
2 1228.15 1533.9 1193.7 0 0 0
2 2622.68 6.593 347.629 0 0 0
2 1810.2 1525.04 682.378 0 0 0
2 1916.14 2415.19 430.487 0 0 0
2 591.298 1850.74 581.544 0 0 0
2 3452.21 412.809 36.119 0 0 0
2 2369.68 1354.64 1165.69 0 0 0
2 174.025 459.331 1819.75 0 0 0
2 21.299 2193.64 619.365 0 0 0
2 226.831 183.191 1657.01 0 0 0
2 2246.41 2698.5 346.805 0 0 0
2 0 1116.67 777.693 0 0 0
2 970.197 1570.41 2591.41 0 0 0
2 2035.42 1136.43 0 0 0 0
2 2918.36 6.458 261.898 0 0 0
2 1647.99 627.687 1753.58 0 0 0
2 1474.51 1446.33 1271.54 0 0 0
2 8.659 0.51 2320.41 0 0 0
2 97.17 545.571 1380.79 0 0 0
2 5000 3105.04 2494.44 0 0 0
2 0 212.441 1964.07 0 0 0
2 1501.19 1762.43 340.632 0 0 0
2 1668.22 1868.02 1936.43 0 0 0
2 3052.98 2896.15 4751.98 0 0 0
2 1318.15 810.938 1164.31 0 0 0
2 2146.68 2585.3 4926.87 0 0 0
2 1100.32 433.247 2346.24 0 0 0
2 3045.39 686.643 2020.17 0 0 0
2 986.23 4164.11 188.735 0 0 0
2 2221.17 1217.24 79.924 0 0 0
2 2920.76 1724.09 2575.83 0 0 0
2 3543.52 3929.84 1163.98 0 0 0
2 2620.52 292.936 4488.31 0 0 0
2 4368.56 650.141 5000 0 0 0
2 140.79 2183.92 0 0 0 0
2 1532.09 834.24 1765.1 0 0 0
2 2963.42 1472.48 1315.41 0 0 0
2 0 1076.55 3866.53 0 0 0
2 1167.92 914.555 0 0 0 0
2 2042.29 1529.29 15.133 0 0 0
2 2749.32 4784.14 0 0 0 0
2 19.848 645.675 1529.6 0 0 0
2 86.045 1145.7 1375.6 0 0 0
2 677.942 1965.03 16.818 0 0 0
2 3128 176.589 1198.78 0 0 0
2 4451.51 2709.38 50.666 0 0 0
2 2577.4 976.235 155.905 0 0 0
2 94.509 0 4811.71 0 0 0
2 2809.46 1002 2400.21 0 0 0
2 2112.21 1165.08 900.974 0 0 0
2 132.856 4897.65 2585.18 0 0 0
2 644.648 1618.6 0 0 0 0
2 2849.2 3118.53 2179.85 0 0 0
2 2639.75 266.998 434.397 0 0 0
2 152.338 1476.16 86.434 0 0 0
2 0 164.933 3484.38 0 0 0
2 449.114 2246.02 2544.86 0 0 0
2 1853.28 1198.43 885.486 0 0 0
2 2109.77 276.395 10.609 0 0 0
2 1792.37 0 1817.43 0 0 0
2 102.257 1837.83 937.834 0 0 0
2 2713.13 1031.15 636.204 0 0 0
2 11.446 712.455 2562.74 0 0 0
2 203.16 312.518 749.497 0 0 0
2 1730.07 2463.5 1748.34 0 0 0
2 150.444 889.93 2722.27 0 0 0
2 3071.39 92.441 1543.04 0 0 0
2 2148.02 1249 1746.72 0 0 0
2 764.512 1435.4 676.839 0 0 0
2 35.891 39.066 1134.34 0 0 0
2 2249.85 1904.39 2384.05 0 0 0
2 1768.52 3211.45 2130.63 0 0 0
2 1454.41 1586.89 2645.06 0 0 0
2 3514.32 2510.45 2511.85 0 0 0
2 1135.81 3002.4 2755.57 0 0 0
2 2325.8 327.984 692.788 0 0 0
2 1616.22 1227.39 2026.16 0 0 0
2 2354.45 1122.21 435.028 0 0 0
2 808.036 1638.11 351.567 0 0 0
2 2562.04 2156.31 513.516 0 0 0
2 1028.5 0 2489.83 0 0 0
2 4608.3 802.533 5000 0 0 0
2 15.809 263.794 2465.24 0 0 0
2 0 2230.54 803.464 0 0 0
2 636.417 1665.7 1996.95 0 0 0
2 3619.95 14.785 31.235 0 0 0
2 1178.2 695.093 1971.34 0 0 0
2 1734.7 1349.01 501.221 0 0 0
2 3.045 255.513 1418 0 0 0
2 307.361 2041.44 743.642 0 0 0
2 570.265 465.03 2731.09 0 0 0
2 1798.71 522.653 1153.97 0 0 0
2 3239.16 794.561 2467.51 0 0 0
2 4.375 4949.25 161.305 0 0 0
2 1262.48 0 2827.2 0 0 0
2 2248.38 642.481 2834.72 0 0 0
2 92.051 2069.96 4985.99 0 0 0
2 2752.53 2134.94 585.401 0 0 0
2 1669.64 2004.6 1703.68 0 0 0
2 2332.59 432.882 1293.39 0 0 0
2 1127.09 811.669 714.847 0 0 0
2 877.296 0 1879.32 0 0 0