ITEM: TIMESTEP
0
ITEM: NUMBER OF ATOMS
1000
ITEM: BOX BOUNDS pp pp pp
-1.0000000000000000e+02 4.1000000000000000e+03
-1.0000000000000000e+02 4.1000000000000000e+03
-1.0000000000000000e+02 4.1000000000000000e+03
ITEM: ATOMS type x y z ix iy iz
1 587.223 323.877 214.456 0 0 0
1 380.088 610.867 381.622 0 0 0
1 88.282 584.659 593.15 0 0 0
1 818.199 878.513 69.632 0 0 0
1 601.486 17.665 559.032 0 0 0
1 813.759 339.668 821.415 0 0 0
1 553.567 855.482 490.568 0 0 0
1 511.334 933.628 40.61 0 0 0
1 661.228 653.365 984.474 0 0 0
1 835.826 844.489 643.652 0 0 0
1 88.892 228.19 656.754 0 0 0
1 894.549 136.18 988.486 0 0 0
1 793.907 540.414 364.989 0 0 0
1 895.11 471.996 759.93 0 0 0
1 714.711 22.413 603.005 0 0 0
1 445.095 558.523 635.913 0 0 0
1 377.167 953.04 173.343 0 0 0
1 787.543 20.508 899.653 0 0 0
1 64.022 597.609 713.234 0 0 0
1 435.147 575.084 71.92 0 0 0
1 803.567 35.431 264.378 0 0 0
1 756.223 437.65 275.657 0 0 0
1 294.3 214.446 976.725 0 0 0
1 313.595 297.592 331.272 0 0 0
1 679.247 701.584 379.878 0 0 0
1 300.63 900.909 491.346 0 0 0
1 457.749 444.878 514.36 0 0 0
1 14.227 720.522 457.124 0 0 0
1 783.785 704.242 47.937 0 0 0
1 415.639 48.142 429.357 0 0 0
1 351.238 0 907.054 0 0 0
1 241.274 712.353 895.217 0 0 0
1 520.931 684.263 506.102 0 0 0
1 880.745 366.321 42.283 0 0 0
1 162.46 964.515 186.019 0 0 0
1 353.144 146.537 819.082 0 0 0
1 140.248 402.812 509.162 0 0 0
1 56.874 967.972 71.927 0 0 0
1 687.14 426.948 761.264 0 0 0
1 825.823 743.372 923.665 0 0 0
1 949.937 295.325 439.063 0 0 0
1 582.886 578.954 314.966 0 0 0
1 161.133 686.49 184.564 0 0 0
1 983.095 597.615 437.113 0 0 0
1 31.354 489.978 188.189 0 0 0
1 364.855 45.722 303.608 0 0 0
1 234.528 23.637 806.245 0 0 0
1 897.457 81.412 528.409 0 0 0
1 894.824 745.115 302.172 0 0 0
1 881.873 941.093 559.824 0 0 0
1 516.732 980.559 963.964 0 0 0
1 483.591 144.902 150.939 0 0 0
1 938.659 509.658 164.933 0 0 0
1 309.157 415.28 1012.51 0 0 0
1 879.419 935.148 817.783 0 0 0
1 743.476 122.789 57.671 0 0 0
1 732.532 6.395 13.229 0 0 0
1 761.868 617.896 272.967 0 0 0
1 386.687 775.731 42.174 0 0 0
1 676.195 493.256 438.624 0 0 0
1 575.382 382.768 745.618 0 0 0
1 187.362 848.79 258.634 0 0 0
1 17.646 535.525 894.987 0 0 0
1 625.404 608.148 182.426 0 0 0
1 735.032 722.023 171.729 0 0 0
1 480.57 627.576 853.912 0 0 0
1 140.215 282.412 490.022 0 0 0
1 625.049 690.341 3.374 0 0 0
1 138.883 673.494 50.239 0 0 0
1 551.575 410.96 335.193 0 0 0
1 232.37 575.139 929.1 0 0 0
1 470.266 266.018 747.924 0 0 0
1 375.54 341.879 757.507 0 0 0
1 273.773 167.297 482.073 0 0 0
1 578.988 102.686 853.708 0 0 0
1 874.617 148.507 201.503 0 0 0
1 146.563 504.943 267.645 0 0 0
1 574.41 426.45 134.929 0 0 0
1 791.712 814.386 388.691 0 0 0
1 649.706 312.226 383.146 0 0 0
1 244.43 581.979 274.211 0 0 0
1 23.036 603.502 343.902 0 0 0
1 805.722 528.917 164.132 0 0 0
1 176.563 206.575 781.885 0 0 0
1 738.409 852.428 564.184 0 0 0
1 417.841 230.76 386.83 0 0 0
1 597.076 207.81 91.179 0 0 0
1 750.892 198.325 371.072 0 0 0
1 2602.54 831.913 269.696 0 0 0
1 2258.99 147.107 973.448 0 0 0
1 2351.91 632.491 652.719 0 0 0
1 2601.26 291.366 607.872 0 0 0
1 2467.57 531.851 728.729 0 0 0
1 2172.84 635.812 476.593 0 0 0
1 2484.06 806.524 629.202 0 0 0
1 2584.2 370.167 760.366 0 0 0
1 2383.27 870.106 500.377 0 0 0
1 2486.12 852.112 967.918 0 0 0
1 2262.85 317.14 531.668 0 0 0
1 2604.84 970.753 235.399 0 0 0
1 2548.83 774.462 53.781 0 0 0
1 2585.1 523.087 928.458 0 0 0
1 2512.48 817.252 438.606 0 0 0
1 2610.12 567.861 686.411 0 0 0
1 2566.09 369.215 44.587 0 0 0
1 2451.01 662.838 525.558 0 0 0
1 2322.93 369.358 875.377 0 0 0
1 2483.48 911.071 724.782 0 0 0
1 2340.69 390.308 664.907 0 0 0
1 2544.79 430.87 398.173 0 0 0
1 2405.48 694.507 896.256 0 0 0
1 2509.47 11.749 289.399 0 0 0
1 2309.87 69.748 652.738 0 0 0
1 2287.66 953.482 808.975 0 0 0
1 2219.46 883.851 331.141 0 0 0
1 2427.21 694.038 357.164 0 0 0
1 2423.69 892.738 837.018 0 0 0
1 2344.4 501.828 91.757 0 0 0
1 2262.58 18.873 847.38 0 0 0
1 2410.35 429.562 223.973 0 0 0
1 2243.9 215.278 869.781 0 0 0
1 2564.55 415.561 642.29 0 0 0
1 2323.26 623.038 769.978 0 0 0
1 2456.31 341.758 862.76 0 0 0
1 2518.4 133.605 909.717 0 0 0
1 2592.33 849.398 541.265 0 0 0
1 2373.52 31.927 920.657 0 0 0
1 2476.37 263.358 587.72 0 0 0
1 2427.05 469.084 855.664 0 0 0
1 2294 723.136 831.431 0 0 0
1 2201.21 468.622 322.636 0 0 0
1 2325.23 755.571 139.873 0 0 0
1 2202.53 879.111 889.796 0 0 0
1 2375.93 321.595 453.721 0 0 0
1 2329.97 841.681 305.593 0 0 0
1 2504.32 685.545 156.86 0 0 0
1 2463.83 33.713 171.052 0 0 0
1 2233.82 218.759 650.286 0 0 0
1 2484.31 794.161 320.315 0 0 0
1 2157.63 91.257 807.545 0 0 0
1 2208.13 727.252 103.473 0 0 0
1 2228.75 421.888 50.546 0 0 0
1 2356.24 174.236 612.592 0 0 0
1 2545.38 253.099 334.669 0 0 0
1 2603.11 680.465 914.097 0 0 0
1 2376.88 933.136 40.62 0 0 0
1 2423.3 160.772 831.783 0 0 0
1 2460.27 567.468 298.617 0 0 0
1 2267.16 26.804 988.77 0 0 0
1 2565.27 275.868 939.224 0 0 0
1 2593.91 948.535 380.889 0 0 0
1 2439.17 719.69 56.419 0 0 0
1 2336.4 894.11 965.56 0 0 0
1 2417.85 399.605 356.379 0 0 0
1 2497.58 839.57 198.396 0 0 0
1 2346.86 24.363 304.386 0 0 0
1 2209.49 644.95 0 0 0 0
1 2563.63 438.199 522.887 0 0 0
1 2209.88 386.931 233.793 0 0 0
1 2202.43 750.924 385.288 0 0 0
1 2372.58 290.433 329.968 0 0 0
1 2398.2 740.145 235.164 0 0 0
1 2310.41 529.297 315.319 0 0 0
1 2352.84 631.85 47.971 0 0 0
1 2305.64 745.134 993.664 0 0 0
1 2306.17 297.071 217.925 0 0 0
1 2297.1 646.402 438.465 0 0 0
1 2578.89 731.025 598.427 0 0 0
1 2254.78 948.77 454.132 0 0 0
1 2505.94 0 865.584 0 0 0
1 2336.07 779.107 434.558 0 0 0
1 2369.88 47.171 779.352 0 0 0
1 2249.55 528.224 754.592 0 0 0
1 2585.06 835.846 788.057 0 0 0
1 2601.69 867.899 920.574 0 0 0
1 676.651 2371.76 228.513 0 0 0
1 818.954 2706.44 902.624 0 0 0
1 388.093 2763.72 831.414 0 0 0
1 882.923 2360.99 666.372 0 0 0
1 977.984 2704.25 357.925 0 0 0
1 300.428 2569.3 149.506 0 0 0
1 132.78 2500.96 561.608 0 0 0
1 102.445 2575.78 114.259 0 0 0
1 881.64 2462.44 31.409 0 0 0
1 173.37 2595.56 249.288 0 0 0
1 823.828 2623.69 65.266 0 0 0
1 148.368 2772.71 834.253 0 0 0
1 626.432 2479.91 277.477 0 0 0
1 76.175 2514.59 236.149 0 0 0
1 202.842 2443.98 333.232 0 0 0
1 556.873 2316.59 149.5 0 0 0
1 778.584 2361.91 393.041 0 0 0
1 267.509 2817.38 829.723 0 0 0
1 557.189 2732.91 831.754 0 0 0
1 212.171 2597.49 566.631 0 0 0
1 710.661 2830.95 225.065 0 0 0
1 783.894 2760.45 741.27 0 0 0
1 43.737 2363.04 836.077 0 0 0
1 776.819 2394.49 12.745 0 0 0
1 785.069 2505.95 99.843 0 0 0
1 516.037 2568.54 602.736 0 0 0
1 718.266 2380.97 559.994 0 0 0
1 873.611 2491.43 184.711 0 0 0
1 624.58 2629.2 573.552 0 0 0
1 384.361 2330.96 780.493 0 0 0
1 526.543 2455.73 17 0 0 0
1 145.021 2794.48 48.956 0 0 0
1 348.547 2492.77 58.93 0 0 0
1 473.483 2606.5 733.359 0 0 0
1 561.034 2699.67 714.441 0 0 0
1 186.4 2671.16 762.113 0 0 0
1 776.371 2297.98 829.543 0 0 0
1 829.37 2693.3 249.556 0 0 0
1 860.591 2689.61 573.595 0 0 0
1 524.981 2476.59 721.076 0 0 0
1 982.81 2310.3 21.142 0 0 0
1 848.148 2793.39 148.661 0 0 0
1 717.532 2652.58 134.386 0 0 0
1 709.624 2533.6 203.694 0 0 0
1 103.33 2652.47 0 0 0 0
1 137.308 2512.98 813.852 0 0 0
1 633.045 2563.82 14.457 0 0 0
1 252.189 2768.82 712.751 0 0 0
1 245.03 2419.99 56.647 0 0 0
1 536.484 2722.51 206.001 0 0 0
1 449.252 2829.36 245.199 0 0 0
1 396.301 2693.21 283.905 0 0 0
1 654.999 2346.07 373.153 0 0 0
1 319.954 2412.07 710.413 0 0 0
1 12.557 2742.18 53.429 0 0 0
1 826.35 2617.32 355.768 0 0 0
1 797.776 2757.92 26.875 0 0 0
1 507.938 2442.62 226.695 0 0 0
1 402.733 2722.08 410.701 0 0 0
1 874.298 2285.07 219.974 0 0 0
1 571.288 2607.72 149.861 0 0 0
1 338.73 2601.21 713.522 0 0 0
1 109.855 2709.61 147 0 0 0
1 739.167 2665.09 614.126 0 0 0
1 354.455 2527.54 387.49 0 0 0
1 943.833 2782.52 473.697 0 0 0
1 367.935 2436.01 249.418 0 0 0
1 301.689 2451.53 858.183 0 0 0
1 537.126 2306.52 707.405 0 0 0
1 832.672 2586.98 650.307 0 0 0
1 749.087 2467.29 315.197 0 0 0
1 727.765 2655.04 426.067 0 0 0
1 394.735 2663.99 11.809 0 0 0
1 56.215 2464.41 124.555 0 0 0
1 33.107 2653.31 727.217 0 0 0
1 794.701 2749.16 477.344 0 0 0
1 984.014 2453.38 260.064 0 0 0
1 103.361 2371.37 340.464 0 0 0
1 0 2349.89 171.195 0 0 0
1 208.076 2771.75 217.163 0 0 0
1 996.391 2569.93 701.28 0 0 0
1 210.889 2643.51 102.564 0 0 0
1 538.793 2625.07 298.058 0 0 0
1 635.728 2821.52 339.662 0 0 0
1 219.795 2537.06 724.442 0 0 0
1 168.896 2786.14 524.826 0 0 0
1 276.785 2523.42 274.556 0 0 0
1 124.997 2662.42 635.301 0 0 0
1 10.57 582.81 2626.36 0 0 0
1 837.995 589.349 2606.2 0 0 0
1 719.539 85.229 2529.33 0 0 0
1 356.602 527.98 2596.11 0 0 0
1 696.643 255.198 2420.88 0 0 0
1 70.596 747.909 2607.84 0 0 0
1 448.998 145.632 2664.72 0 0 0
1 292.778 275.858 2568.32 0 0 0
1 571.515 837.11 2618.46 0 0 0
1 950.916 731.361 2681.79 0 0 0
1 74.752 982.829 2670.47 0 0 0
1 862.854 198.988 2729.1 0 0 0
1 259.5 326.359 2327.48 0 0 0
1 636.13 304.869 2554.12 0 0 0
1 962.39 950.759 2284.69 0 0 0
1 117.376 55.712 2378.89 0 0 0
1 250.132 947.819 2399.34 0 0 0
1 804.264 1.614 2502.86 0 0 0
1 413.687 392.927 2678.32 0 0 0
1 802.445 65.028 2358.94 0 0 0
1 951.091 539.26 2609.95 0 0 0
1 225.149 1.646 2389.04 0 0 0
1 62.148 505.721 2457.49 0 0 0
1 310.268 810.579 2645.25 0 0 0
1 162.365 248.383 2685.18 0 0 0
1 140.336 196.428 2319.43 0 0 0
1 239.004 36.607 2612.48 0 0 0
1 294.997 73.638 2296.6 0 0 0
1 639.098 20.31 2683.09 0 0 0
1 799.239 697.261 2341.31 0 0 0
1 413.868 82.134 2318.08 0 0 0
1 295.706 878.868 2491.28 0 0 0
1 264.447 211.658 2463.32 0 0 0
1 729.551 553.577 2648.47 0 0 0
1 571.838 181.463 2697.09 0 0 0
1 4.713 217.626 2389.53 0 0 0
1 14.102 871.763 2578.98 0 0 0
1 0.262 57.622 2409.25 0 0 0
1 5.441 239.055 2518.3 0 0 0
1 13.14 71.951 2587.83 0 0 0
1 66.398 386.863 2519.59 0 0 0
1 906.642 125.165 2479.67 0 0 0
1 403.976 34.702 2683.97 0 0 0
1 50.958 929.82 2356.65 0 0 0
1 43.296 345.465 2405.39 0 0 0
1 428.839 292.227 2480.78 0 0 0
1 903.167 276.197 2645.11 0 0 0
1 574.611 807.389 2309.73 0 0 0
1 503.007 294.958 2599.97 0 0 0
1 357.731 592.842 2458.31 0 0 0
1 59.168 296.681 2644.45 0 0 0
1 52.635 700.913 2468.86 0 0 0
1 433.372 839.903 2696.69 0 0 0
1 187.911 777.407 2640.46 0 0 0
1 637.71 538.751 2440.23 0 0 0
1 427.914 64.851 2440.2 0 0 0
1 386.575 269.764 2645.01 0 0 0
1 544.399 47.094 2281.24 0 0 0
1 708.483 109.596 2762.54 0 0 0
1 356.592 788.952 2318.25 0 0 0
1 351.467 649.111 2587.48 0 0 0
1 561.47 216.869 2406.46 0 0 0
1 244.128 585.22 2534.59 0 0 0
1 185.447 349.147 2589.92 0 0 0
1 26.061 853.433 2709.16 0 0 0
1 281.697 712.758 2481.64 0 0 0
1 941.29 385.411 2588.55 0 0 0
1 696.736 208.996 2640.31 0 0 0
1 123.616 812.732 2269.1 0 0 0
1 778.019 907.456 2571.97 0 0 0
1 548.364 961.835 2369.89 0 0 0
1 348.409 408.008 2577.54 0 0 0
1 869.477 804.693 2592.75 0 0 0
1 415.825 678.206 2277.02 0 0 0
1 851.467 421.788 2691.61 0 0 0
1 124.981 189.596 2563.26 0 0 0
1 540.989 735.443 2560.38 0 0 0
1 305.656 583.763 2333.13 0 0 0
1 933.689 116.064 2346.32 0 0 0
1 114.984 485.447 2627.99 0 0 0
1 596.666 114.193 2536.16 0 0 0
1 175.191 629.773 2624.39 0 0 0
1 500.096 186.459 2526.51 0 0 0
1 758.632 413.339 2570.26 0 0 0
1 810.325 825.366 2328.56 0 0 0
1 683.167 807.756 2720.99 0 0 0
1 201.438 77.519 2482 0 0 0
1 2294.44 2444.03 216.351 0 0 0
1 2568.11 2577.63 330.613 0 0 0
1 2423.46 2331.78 818.767 0 0 0
1 2318.17 2235.25 507.447 0 0 0
1 2687.82 2608.07 217.946 0 0 0
1 2600.51 2622.24 624.291 0 0 0
1 2244.08 2520.29 537.655 0 0 0
1 2361.92 2232.59 931.631 0 0 0
1 2197.18 2316.43 449.383 0 0 0
1 2334.71 2629.92 495.996 0 0 0
1 2646.84 2376.21 58.405 0 0 0
1 2520.77 2686.27 963.601 0 0 0
1 2416.63 2434.52 224.654 0 0 0
1 2422.48 2162.66 577.289 0 0 0
1 2652.27 2289.02 628.886 0 0 0
1 2186.91 2607.72 937.822 0 0 0
1 2539.85 2534.14 0 0 0 0
1 2574.4 2253.75 350.94 0 0 0
1 2235.04 2456.8 72.226 0 0 0
1 2494.17 2519.34 726.609 0 0 0
1 2272.49 2318.88 122.859 0 0 0
1 2424.27 2263.41 354.409 0 0 0
1 2643.75 2555.93 528.645 0 0 0
1 2292.87 2374.35 566.622 0 0 0
1 2411.48 2352.08 466.497 0 0 0
1 2261.51 2383.07 731.515 0 0 0
1 2360.52 2673.87 65.474 0 0 0
1 2532.55 2566.39 445.734 0 0 0
1 2447.38 2478.2 1004.37 0 0 0
1 2488.01 2323.73 652.752 0 0 0
1 2612.06 2246.42 132.932 0 0 0
1 2407.95 2577.9 0 0 0 0
1 2642.17 2382.26 472.622 0 0 0
1 2280.21 2300.05 817.995 0 0 0
1 2692.2 2419.07 913.056 0 0 0
1 2540.62 2278.81 1011.07 0 0 0
1 2426.04 2508.91 517.903 0 0 0
1 2236.72 2443.96 1048.69 0 0 0
1 2391.88 2664.05 734.999 0 0 0
1 2318.36 2486.33 627.613 0 0 0
1 2260.96 2647.63 389.987 0 0 0
1 2561.4 2405.84 967.568 0 0 0
1 2432.58 2651.66 253.415 0 0 0
1 2356.01 2437.2 15.508 0 0 0
1 2530.3 2328.09 438.126 0 0 0
1 2302.46 2549.57 935.353 0 0 0
1 2379.92 2462.16 337.926 0 0 0
1 2533.8 2432.85 80.722 0 0 0
1 2535.22 2176.93 683.608 0 0 0
1 2351.26 2556.18 154.394 0 0 0
1 2420.26 2603.03 400.41 0 0 0
1 2433.22 2356.76 950.459 0 0 0
1 2230.16 2158.44 470.134 0 0 0
1 2202.71 2267.5 609.837 0 0 0
1 2690.34 2432.87 586.977 0 0 0
1 2636.23 2556.04 725.29 0 0 0
1 2194.63 2669.83 260.379 0 0 0
1 2229.89 2499.86 334.521 0 0 0
1 2524.26 2339.01 201.434 0 0 0
1 2598.11 2407.71 790.344 0 0 0
1 2574.4 2282.45 4.423 0 0 0
1 2259.69 2381.83 913.87 0 0 0
1 2299.35 2439.15 463.543 0 0 0
1 2617.7 2568.96 911.2 0 0 0
1 2285.26 2197.01 680.905 0 0 0
1 2470.19 2613.19 614.977 0 0 0
1 2204.92 2349.59 235.441 0 0 0
1 2539.97 2561.04 213.541 0 0 0
1 2345.79 2524.24 765.988 0 0 0
1 2280.84 2582.95 0 0 0 0
1 2137.77 2404.3 378.623 0 0 0
1 2190.47 2448.8 831.214 0 0 0
1 2209.4 2233.81 890.634 0 0 0
1 2419.57 2631.18 1001.05 0 0 0
1 2625.13 2420.36 335.312 0 0 0
1 2540.94 2448.57 473.298 0 0 0
1 2253.74 2627.84 157.657 0 0 0
1 2651.24 2412.68 215.297 0 0 0
1 2360.88 2295.72 642.07 0 0 0
1 2641.51 2217.56 895.139 0 0 0
1 2419.28 2374.86 118.627 0 0 0
1 2522.33 2261.36 823.601 0 0 0
1 2351.55 2247.32 180.839 0 0 0
1 2150.85 2494.68 242.275 0 0 0
1 2617.23 2246.78 501.915 0 0 0
1 2420.78 2562.84 865.982 0 0 0
1 2473.16 2624.79 133.815 0 0 0
1 2503.97 2455.64 866.912 0 0 0
1 2436.88 836.263 2303.65 0 0 0
1 2469.22 114.343 2506.5 0 0 0
1 2354.26 435.494 2332.05 0 0 0
1 2144.28 873.958 2474.26 0 0 0
1 2592.99 481.223 2533.56 0 0 0
1 2369.91 44.278 2476.66 0 0 0
1 2463.84 308.465 2283.87 0 0 0
1 2534.62 377.155 2457.11 0 0 0
1 2337.53 730.264 2447.08 0 0 0
1 2212.85 690.54 2541.04 0 0 0
1 2366.04 645.846 2285.62 0 0 0
1 2225.6 16.112 2518.81 0 0 0
1 2555.72 395.508 2271.99 0 0 0
1 2195.84 725.067 2210.59 0 0 0
1 2208.04 340.297 2426.19 0 0 0
1 2418.88 726.864 2167.39 0 0 0
1 2240.93 589.107 2480.77 0 0 0
1 2536.17 773.464 2497.62 0 0 0
1 2308.64 142.022 2241.14 0 0 0
1 2469.01 593.231 2381.22 0 0 0
1 2276.85 317.37 2202.99 0 0 0
1 2390.57 461.585 2219.58 0 0 0
1 2588.38 645.717 2489.51 0 0 0
1 2264.07 431.669 2552.47 0 0 0
1 2263.8 897.357 2395.73 0 0 0
1 2318.69 786.97 2263.61 0 0 0
1 2308.86 460.712 2443.12 0 0 0
1 2527.07 867.264 2380.26 0 0 0
1 2323.98 310.36 2556.85 0 0 0
1 2542.43 957.404 2473.17 0 0 0
1 2404.57 392.302 2595.53 0 0 0
1 2633.09 295.781 2427.71 0 0 0
1 2375.61 909.036 2210.97 0 0 0
1 2349.45 235.344 2141.41 0 0 0
1 2457.27 216.717 2577.59 0 0 0
1 2581.04 766.162 2314.77 0 0 0
1 2396.76 957.464 2390.14 0 0 0
1 2327.69 563.796 2203.53 0 0 0
1 2501.84 525.903 2285.51 0 0 0
1 2522.36 275.237 2174.76 0 0 0
1 2421.04 430.653 2481.34 0 0 0
1 2445.17 130.939 2250.56 0 0 0
1 2334.33 315.248 2314.2 0 0 0
1 2574.86 741.38 2630.41 0 0 0
1 2498.45 708.651 2402.66 0 0 0
1 2330.81 577.913 2624.98 0 0 0
1 2510.82 449.192 2165.03 0 0 0
1 2201.89 302.207 2555.42 0 0 0
1 2586.65 897.752 2279.31 0 0 0
1 2203.09 400.94 2154.83 0 0 0
1 2233.94 649.043 2357.52 0 0 0
1 2189.45 903.91 2155.86 0 0 0
1 2188.09 387.931 2286 0 0 0
1 2612.32 477.769 2341.36 0 0 0
1 2538.01 209.28 2357.14 0 0 0
1 2471.45 722.288 2281.85 0 0 0
1 2362.38 853.247 2581.02 0 0 0
1 2432.95 356.786 2175.66 0 0 0
1 2174.12 233.365 2350.71 0 0 0
1 2624.05 593.759 2386.09 0 0 0
1 2113.79 770.686 2310.87 0 0 0
1 2364.03 574.183 2455.69 0 0 0
1 2390.19 715.203 2555.02 0 0 0
1 2450.96 268.698 2448.28 0 0 0
1 2203.46 465.271 2380.51 0 0 0
1 2650.57 405.712 2195.6 0 0 0
1 2461.41 21.232 2201.32 0 0 0
1 2476.02 440.454 2368.18 0 0 0
1 2491.35 529.13 2482 0 0 0
1 2404.52 221.653 2346.5 0 0 0
1 2503.34 935.82 2196.5 0 0 0
1 2490.34 867.611 2559.87 0 0 0
1 2336.54 321.167 2436.39 0 0 0
1 2239.2 797.394 2592.46 0 0 0
1 2452.42 561.619 2661.37 0 0 0
1 2375.31 840.485 2414.32 0 0 0
1 2500.48 659.717 2574.51 0 0 0
1 2441.04 61.182 2378.05 0 0 0
1 2257.8 1009.63 2319.37 0 0 0
1 2286.99 194.342 2380.02 0 0 0
1 2213.9 190.12 2482.12 0 0 0
1 2287.54 67.152 2390.41 0 0 0
1 2204.71 32.896 2270.17 0 0 0
1 2181.9 908.348 2292.06 0 0 0
1 2652.31 830.006 2446.12 0 0 0
1 2456.11 573.794 2160.76 0 0 0
1 2284.36 543.947 2324.79 0 0 0
1 0 2000 3207.35 0 0 0
1 406.883 2000 2324.26 0 0 0
1 159.593 2268.91 2534.27 0 0 0
1 623.58 2746.63 2280.53 0 0 0
1 0 2656.05 2880.65 0 0 0
1 214.491 2351.51 2463.95 0 0 0
1 0 2578.21 2440.37 0 0 0
1 436.604 2603.22 2633.22 0 0 0
1 773.822 2000 2414.13 0 0 0
1 0 2738.06 2362.05 0 0 0
1 156.816 2608.3 2622.76 0 0 0
1 86.159 2415.23 2453.46 0 0 0
1 265.551 2260.93 2279.22 0 0 0
1 301.668 2379.3 2347.7 0 0 0
1 899.327 2498.81 2481.12 0 0 0
1 930.385 2000 2347.73 0 0 0
1 1756.13 2646.05 2100.62 0 0 0
1 1153.43 2000 3453.26 0 0 0
1 855.643 2448.78 2642.9 0 0 0
1 253.334 2207.78 2441.81 0 0 0
1 862.464 2249.58 2189.42 0 0 0
1 1719.37 2532.97 2269.88 0 0 0
1 586.818 2194.51 2552.81 0 0 0
1 211.01 2108.69 2530.01 0 0 0
1 1223 2236.96 3202.97 0 0 0
1 1023.66 2544.58 2613.06 0 0 0
1 21.024 2000 2127.91 0 0 0
1 0 2000 3085.43 0 0 0
1 0.001 2339.42 2491.79 0 0 0
1 392.772 2577.04 2000 0 0 0
1 998.68 2231.92 2540.71 0 0 0
1 669.809 2496.26 2635.84 0 0 0
1 1150.41 3087.86 2115.06 0 0 0
1 1651.07 2000 2478.33 0 0 0
1 955.148 2688.2 2420.74 0 0 0
1 980.321 2059.03 2139.23 0 0 0
1 1476.6 2604.43 2849.11 0 0 0
1 86.052 2169.78 2433.63 0 0 0
1 1730.44 2000 2199.32 0 0 0
1 1098.95 2997.09 2000 0 0 0
1 0 4000 3686.6 0 0 0
1 668.408 2304.45 2363.05 0 0 0
1 108.875 3337.93 2000 0 0 0
1 707.357 2665.28 3673.41 0 0 0
1 969.968 2000 2671.95 0 0 0
1 739.168 2632.49 2217.68 0 0 0
1 1933.31 2124.52 3822.59 0 0 0
1 544.401 2181.05 2730.78 0 0 0
1 190.654 2163.88 2261.6 0 0 0
1 528.742 2989.21 2283.92 0 0 0
1 0.008 2123.04 2504.72 0 0 0
1 545.009 2454.3 2436.45 0 0 0
1 551.486 2244.86 3009.86 0 0 0
1 659.817 2528.86 2178.1 0 0 0
1 566.746 2151.44 2337.56 0 0 0
1 792.235 2000 2000 0 0 0
1 426.015 2603.18 2949.98 0 0 0
1 96.589 2335.32 2670.69 0 0 0
1 48.399 2648.97 2531.86 0 0 0
1 2000 3561.8 2753.43 0 0 0
1 0 3430.11 2331.72 0 0 0
1 1093.01 2871.11 2960.25 0 0 0
1 619.29 2670.22 2626.75 0 0 0
1 109.627 2613.69 2210.88 0 0 0
1 248.116 2693.43 2331.33 0 0 0
1 0 2790.08 2143.14 0 0 0
1 15.77 2333.59 2036.99 0 0 0
1 805.402 2640.19 2529.36 0 0 0
1 122.207 2377.68 2000 0 0 0
1 28.113 2382.55 2283.93 0 0 0
1 470.688 2376.53 2113.88 0 0 0
1 0.09 3999.99 2705.36 0 0 0
1 766.273 2348.72 2000 0 0 0
1 345.936 3565.68 2000 0 0 0
1 565.192 2674.57 2465.51 0 0 0
1 12.716 2544.33 2642.05 0 0 0
1 575.641 2563.3 2261.15 0 0 0
1 229.767 2583.03 2260.45 0 0 0
1 166.561 2464.89 2529.03 0 0 0
1 649.334 2585.25 2424.85 0 0 0
1 806.441 2526.47 2761.44 0 0 0
1 802.02 2316.79 2978.45 0 0 0
1 0.017 2390.82 2623.42 0 0 0
1 392.144 2670.02 2335.11 0 0 0
1 0 2019.73 2942.83 0 0 0
1 1105.63 2744.98 2000 0 0 0
1 419.005 2000 3172.49 0 0 0
1 170.643 3961.52 2000 0 0 0
1 2694.79 2685.75 2733.53 0 0 0
1 2310.06 2311.54 2815.03 0 0 0
1 2568.16 2257.85 2711.55 0 0 0
1 2527.88 2270.47 2501.66 0 0 0
1 2430.43 2817.44 2482.91 0 0 0
1 2608.41 2701.81 2531.21 0 0 0
1 2189.04 2576.28 2756.84 0 0 0
1 2432.18 2322.24 2189.32 0 0 0
1 2356.5 2276.21 2707.66 0 0 0
1 2490.45 2144.09 2418.4 0 0 0
1 2266.39 2735.9 2387.79 0 0 0
1 2766.49 2424.61 2291.19 0 0 0
1 2733.98 2202.02 2302.84 0 0 0
1 2343.49 2560.21 2578.66 0 0 0
1 2369.26 2244.75 2393.07 0 0 0
1 2266.48 2581.38 2134.52 0 0 0
1 2299.86 2371.74 2337.8 0 0 0
1 2436.31 2161.78 2686.09 0 0 0
1 2277.39 2707.48 2550.28 0 0 0
1 2308.99 2159.29 2639.18 0 0 0
1 2194.84 2389.59 2508.61 0 0 0
1 2623.23 2574.32 2675.27 0 0 0
1 2301.66 2279.93 2495.34 0 0 0
1 2622.6 2345.27 2320.88 0 0 0
1 2304.25 2264.14 2274.9 0 0 0
1 2783.18 2688.88 2306.76 0 0 0
1 2282.95 2369.91 2193.84 0 0 0
1 2357.16 2471.58 2375.09 0 0 0
1 2147.34 2312.18 2233.67 0 0 0
1 2595.57 2220.45 2321.2 0 0 0
1 2567.73 2405.11 2191.12 0 0 0
1 2734.75 2730.57 2583.43 0 0 0
1 2599.99 2732.22 2649.58 0 0 0
1 2184.66 2533.46 2225.53 0 0 0
1 2289.39 2666.07 2273.71 0 0 0
1 2187.05 2271.41 2534.21 0 0 0
1 2360.45 2175.37 2511.18 0 0 0
1 2487.57 2481.3 2262.72 0 0 0
1 2316 2766.27 2710.24 0 0 0
1 2241.3 2455.52 2414.7 0 0 0
1 2750.19 2379.75 2428.05 0 0 0
1 2213.92 2521.5 2643.94 0 0 0
1 2534.24 2576.78 2346.63 0 0 0
1 2666.6 2188.59 2455.45 0 0 0
1 2444.28 2618.69 2505.32 0 0 0
1 2383.16 2675.52 2129.73 0 0 0
1 2159.16 2748.87 2582.01 0 0 0
1 2429.19 2335.99 2042.85 0 0 0
1 2755.83 2321.83 2600.87 0 0 0
1 2479.15 2321.55 2362.53 0 0 0
1 2423.61 2422.65 2554.64 0 0 0
1 2190.97 2542.79 2346.83 0 0 0
1 2794.94 2465.5 2592.36 0 0 0
1 2651.27 2500.39 2212.81 0 0 0
1 2648.33 2317.54 2448.09 0 0 0
1 2646.37 2699.63 2324.4 0 0 0
1 2606.31 2511.59 2419.32 0 0 0
1 2652.56 2628.22 2220.2 0 0 0
1 2625.83 2793.79 2452.13 0 0 0
1 2393.28 2174.12 2287.8 0 0 0
1 2232.85 2371.17 2635.09 0 0 0
1 2162.83 2660.58 2357.39 0 0 0
1 2354.4 2327.5 2595.39 0 0 0
1 2323.24 2541.74 2719.13 0 0 0
1 2311.93 2487.41 2195.94 0 0 0
1 2631.69 2106.21 2575.06 0 0 0
1 2367.19 2110.81 2398.96 0 0 0
1 2639.33 2565.43 2547.38 0 0 0
1 2391.09 2594.65 2397.89 0 0 0
1 2556.36 2394.15 2429.77 0 0 0
1 2694.99 2337.1 2215.16 0 0 0
1 2160.91 2272.12 2700.25 0 0 0
1 2711.62 2663.04 2419.65 0 0 0
1 2410.55 2459.51 2767.67 0 0 0
1 2396.8 2693.64 2605.48 0 0 0
1 2228.58 2545.82 2509.46 0 0 0
1 2432.43 2510.94 2646.81 0 0 0
1 2189.96 2151.63 2555.1 0 0 0
1 2299.51 2367.52 2071.51 0 0 0
1 2104.75 2435.16 2591.18 0 0 0
1 2379.97 2575.97 2266.29 0 0 0
1 2403.15 2710.05 2360.65 0 0 0
1 2171.62 2245.04 2333.03 0 0 0
1 2577.86 2729.23 2091.2 0 0 0
1 2774.02 2493.43 2474.74 0 0 0
1 2509.7 2321.23 2612.43 0 0 0
1 2556.32 2475.08 2655.21 0 0 0
2 544.836 758.822 123.256 0 0 0
2 407.847 223.491 213.451 0 0 0
2 365.392 913.79 737.522 0 0 0
2 583.071 479.733 586.876 0 0 0
2 838.422 643.826 416.481 0 0 0
2 915.552 661.805 589.863 0 0 0
2 485.993 340.196 603.007 0 0 0
2 860.336 920.672 256.732 0 0 0
2 491.296 218.609 603.802 0 0 0
2 135.218 643.98 855.948 0 0 0
2 105.727 761.06 838.975 0 0 0
2 1016.79 304.41 825.874 0 0 0
2 77.303 530.601 472.765 0 0 0
2 304.705 400.422 191.222 0 0 0
2 759.847 661.278 609.052 0 0 0
2 151.837 426.699 689.534 0 0 0
2 500.768 651.811 206.325 0 0 0
2 769.711 43.221 730.779 0 0 0
2 265.591 453.511 745.065 0 0 0
2 258.572 705.196 418.33 0 0 0
2 509.85 137.887 0.104 0 0 0
2 337.436 416.47 501.983 0 0 0
2 896.91 602.483 839.832 0 0 0
2 443.807 353.262 301.824 0 0 0
2 450.426 587.447 487.705 0 0 0
2 10.801 156.531 590.98 0 0 0
2 179.859 629.001 365.797 0 0 0
2 305.876 178.417 139.62 0 0 0
2 903.826 97.012 308.434 0 0 0
2 304.207 615.81 554.483 0 0 0
2 570.594 162.219 272.813 0 0 0
2 600.771 583.743 468.361 0 0 0
2 61.563 47.265 532.43 0 0 0
2 112.009 341.552 613.34 0 0 0
2 155.391 157.764 251.728 0 0 0
2 578.086 721.393 606.326 0 0 0
2 245.105 165.207 677.431 0 0 0
2 67.816 901.024 418.244 0 0 0
2 3295.93 227.415 788.691 0 0 0
2 3185.6 0 0 0 0 0
2 2928.93 738.905 876.015 0 0 0
2 3469.72 1090.61 2000 0 0 0
2 2655.62 213.217 1591.21 0 0 0
2 3330.51 0 308.163 0 0 0
2 2864.1 754.714 570.781 0 0 0
2 2992.16 921.254 515.875 0 0 0
2 3764 659.348 826.179 0 0 0
2 3613.31 350.629 285.347 0 0 0
2 3413.17 250.811 295.463 0 0 0
2 3394.33 705.348 941.942 0 0 0
2 3046.74 622.273 669.42 0 0 0
2 3207.79 208.73 957.198 0 0 0
2 3956.26 395.294 322.51 0 0 0
2 3607.74 817.445 829.039 0 0 0
2 4000 0 0 0 0 0
2 3666.84 218.635 229.052 0 0 0
2 2936.27 946.9 844.959 0 0 0
2 3937.74 953.97 71.203 0 0 0
2 3018.19 815.147 462.232 0 0 0
2 3477.63 596.898 263.262 0 0 0
2 3448.73 274.156 655.869 0 0 0
2 3684.47 761.262 979.044 0 0 0
2 3588.39 930.376 644.17 0 0 0
2 4000 959.5 941.487 0 0 0
2 2915.98 549.388 287.432 0 0 0
2 2739.84 1547.31 1051.15 0 0 0
2 3088.76 902.311 873.149 0 0 0
2 3029.74 215.832 207.234 0 0 0
2 3001.87 914.803 38.724 0 0 0
2 3273.7 1590.84 0 0 0 0
2 4000 0 829.785 0 0 0
2 2512.47 1171.53 0 0 0 0
2 3606.5 633.273 950.524 0 0 0
2 3414.22 520.878 0 0 0 0
2 3982.7 182.518 862.766 0 0 0
2 166.345 3753.3 551.261 0 0 0
2 632.333 3575.54 214.158 0 0 0
2 305.298 3315.29 937.682 0 0 0
2 145.803 3351.33 656.753 0 0 0
2 196.105 3743.44 184.328 0 0 0
2 577.852 3014.93 289.451 0 0 0
2 707.082 3724.06 441.987 0 0 0
2 814.052 3723.97 599.686 0 0 0
2 236.758 3241.69 659.597 0 0 0
2 853.624 3637.49 882.717 0 0 0
2 116.82 2927.97 83.884 0 0 0
2 180.673 3462.53 970.154 0 0 0
2 225.74 3143.47 299.16 0 0 0
2 198.681 3025.2 78.134 0 0 0
2 482.635 3416.49 822.565 0 0 0
2 613.637 3234.31 356.607 0 0 0
2 694.659 2951.57 967.687 0 0 0
2 523.614 3279.92 651.858 0 0 0
2 94.329 3788.76 87.261 0 0 0
2 685.415 3727.32 757.663 0 0 0
2 295.702 3669.57 228.379 0 0 0
2 784.049 3062.75 254.548 0 0 0
2 584.808 2946.27 716.356 0 0 0
2 729.215 3312.2 119.247 0 0 0
2 294.677 3845.28 846.634 0 0 0
2 692.595 2983.03 507.011 0 0 0
2 564.589 3262.34 520.791 0 0 0
2 888.849 3185.89 442.166 0 0 0
2 264.611 3347.29 112.685 0 0 0
2 332.749 3228.91 237.182 0 0 0
2 395.039 3910.65 99.317 0 0 0
2 735.676 3535.58 23.528 0 0 0
2 368.495 3302.79 531.452 0 0 0
2 551.065 3404.27 690.746 0 0 0
2 856.56 3972.44 702.864 0 0 0
2 123.062 3523.73 560.451 0 0 0
2 62.502 3336.1 31.149 0 0 0
2 350.142 3788.9 649.291 0 0 0
2 507.895 93.122 3065.35 0 0 0
2 624.362 253.395 3140.19 0 0 0
2 608.117 544.619 3549.84 0 0 0
2 363.236 715.957 3415.59 0 0 0
2 221.554 385.733 2844.34 0 0 0
2 215.534 714.868 3747.69 0 0 0
2 289.93 852.188 3059.61 0 0 0
2 827.265 701.354 2680.95 0 0 0
2 788.599 562.829 3580.92 0 0 0
2 228.777 512.25 3655.41 0 0 0
2 554.248 837.497 3042.16 0 0 0
2 267.628 739.13 3923.27 0 0 0
2 243.251 170.16 3992.51 0 0 0
2 96.715 145.411 3389.01 0 0 0
2 180.944 682.25 2902.67 0 0 0
2 0.005 2000 2000.03 0 0 0
2 876.569 317.479 2813.37 0 0 0
2 442.485 461.368 3188.19 0 0 0
2 914.784 303.536 3732.45 0 0 0
2 0 0 4000 0 0 0
2 360.217 40.14 3463.74 0 0 0
2 782.073 939.087 3020.87 0 0 0
2 168.382 227.743 3810.57 0 0 0
2 98.531 133.283 3113.79 0 0 0
2 580.889 51.806 3250.83 0 0 0
2 682.163 372.704 3477.46 0 0 0
2 638.639 659.612 3422.83 0 0 0
2 803.246 740.887 3284.49 0 0 0
2 423.126 551.277 2893.37 0 0 0
2 865.214 781.297 3421.83 0 0 0
2 175.726 541.159 3371 0 0 0
2 2000 1311.85 3355.99 0 0 0
2 925.862 48.733 3234.14 0 0 0
2 2000 0 4000 0 0 0
2 206.223 366.553 3240.24 0 0 0
2 900.735 592.023 3148.62 0 0 0
2 723.327 292.989 2901.57 0 0 0
2 2934.17 2785.4 579.312 0 0 0
2 3046.62 3357.78 450.462 0 0 0
2 3524.17 2891.47 498.539 0 0 0
2 3542.98 3120.82 159.157 0 0 0
2 3044.32 3229.77 964.139 0 0 0
2 3508.04 3963.86 242.315 0 0 0
2 3158.08 3567.57 560.147 0 0 0
2 3311.64 3579.78 356.153 0 0 0
2 3357.32 3609.39 893.25 0 0 0
2 3360.24 3478.19 37.705 0 0 0
2 3947.76 3687.87 4.167 0 0 0
2 3183.26 2761.31 693.578 0 0 0
2 3628.55 3787.34 179.165 0 0 0
2 2731.3 3080.82 421.1 0 0 0
2 3445.32 3723.54 38.51 0 0 0
2 3493.98 3580.97 843.281 0 0 0
2 3515.28 3796.19 654.502 0 0 0
2 2813.8 3569.09 751.868 0 0 0
2 3644.39 2779.13 680.178 0 0 0
2 3675.6 3626.38 617.872 0 0 0
2 2799.84 3866.61 219.652 0 0 0
2 3971.25 3118.67 386.009 0 0 0
2 2842.31 3074.97 754.661 0 0 0
2 3682.54 2927.59 399.809 0 0 0
2 3459.23 3094.7 771.701 0 0 0
2 3831.03 3638.31 602.136 0 0 0
2 2842.93 2906.45 852.663 0 0 0
2 3874.81 3276.12 586.799 0 0 0
2 2739.4 3982.13 142.377 0 0 0
2 2979.87 3193.15 568.675 0 0 0
2 3727.85 2805.37 596.447 0 0 0
2 3389.24 3970.71 792.626 0 0 0
2 2955.43 3636.54 296.463 0 0 0
2 3674.05 3494.12 371.692 0 0 0
2 3497.41 2905.37 679.009 0 0 0
2 3194.9 2976.93 451.19 0 0 0
2 2845.01 3264.22 161.533 0 0 0
2 3279.22 3940.78 279.711 0 0 0
2 3342.56 557.269 3714.7 0 0 0
2 3405.39 565.746 2924.01 0 0 0
2 3056.71 134.684 2883.3 0 0 0
2 2901.1 692.979 2804.98 0 0 0
2 3571.91 584.654 2729.22 0 0 0
2 3116.46 99.449 2715.72 0 0 0
2 2815.58 561.827 3446.65 0 0 0
2 3014.83 465.3 2776.34 0 0 0
2 3525.43 925.153 3086.79 0 0 0
2 3525.34 584.506 3478.88 0 0 0
2 3127.21 811.739 3183.92 0 0 0
2 2734.78 664.869 3421.99 0 0 0
2 3505.07 753.32 2862.78 0 0 0
2 2706.36 775.68 2718.12 0 0 0
2 2743.08 366.174 3011.05 0 0 0
2 3578.47 645.287 3599.05 0 0 0
2 3156.85 468.375 3019.36 0 0 0
2 3340.39 177.493 2703.02 0 0 0
2 2962.02 701.627 3559.94 0 0 0
2 3482.48 103.214 2799.51 0 0 0
2 3410.84 397.834 2886.33 0 0 0
2 3047.3 669.388 2946.41 0 0 0
2 3331.26 271.221 3652.17 0 0 0
2 2700.55 606.04 2905.56 0 0 0
2 2813.02 601.836 3713.78 0 0 0
2 3426.85 332.243 3469.36 0 0 0
2 3493.38 26.955 3473.53 0 0 0
2 3316.53 126.241 3514.98 0 0 0
2 2924.6 733.647 3167.89 0 0 0
2 2657.61 797.956 3327.76 0 0 0
2 3145.55 902.475 3511.74 0 0 0
2 2895.4 69.248 3432.16 0 0 0
2 3525.73 592.175 2896.11 0 0 0
2 3280.59 166.048 3087.15 0 0 0
2 2875.99 745.208 3379.04 0 0 0
2 3149.62 462.604 2779.69 0 0 0
2 2884 928.602 2895.37 0 0 0
2 223.613 3022.05 3993.44 0 0 0
2 481.602 3157.79 2794.86 0 0 0
2 1845.37 4000 2190.89 0 0 0
2 332.817 3096.69 2914.24 0 0 0
2 41.025 3111.92 3640.06 0 0 0
2 422.002 3674.15 3625.83 0 0 0
2 898.122 3420.24 3113.24 0 0 0
2 835.322 3411.44 3282.7 0 0 0
2 538.881 3475.67 3346.96 0 0 0
2 525.021 3636.83 3345.4 0 0 0
2 141.333 3981.58 2726.46 0 0 0
2 2000 2050.72 2209.74 0 0 0
2 0.005 4000 3877.79 0 0 0
2 912.879 3189.65 3961.7 0 0 0
2 228.418 3257.16 3987.6 0 0 0
2 596.2 3977.04 3738.25 0 0 0
2 173.384 3289.89 3007.52 0 0 0
2 969.418 3490.33 2771.15 0 0 0
2 1106.86 2000 2271.51 0 0 0
2 462.501 3006.45 3462.44 0 0 0
2 256.697 3603.41 2955.37 0 0 0
2 342.52 3550.77 3056.13 0 0 0
2 915.521 3052.32 3779.93 0 0 0
2 199.414 3049.76 2862.5 0 0 0
2 279.603 2877.95 3833.91 0 0 0
2 0 4000 3999.6 0 0 0
2 592.808 3044.6 2769.56 0 0 0
2 127.344 3830.02 3513.05 0 0 0