LAMMPS data file, Author: Jerry Qin

900 atoms
0 bonds
0 angles

2 atom types

-100 5100 xlo xhi
-100 5100 ylo yhi
-100 5100 zlo zhi

Masses

1 221851
2 422051

Atoms

1 2  1528.196 0.000 2544.851
2 2  821.321 4449.309 2805.966
3 2  4999.986 1388.169 4057.151
4 2  1229.288 1002.952 4999.989
5 2  3936.679 30.442 5000.000
6 2  2221.079 0.005 2117.070
7 2  1299.019 4999.979 4999.992
8 2  4999.965 1178.695 0.033
9 2  4999.997 4999.996 2612.861
10 2  0.003 4985.306 4521.483
11 2  2056.957 0.039 4999.972
12 2  1603.686 265.075 0.000
13 2  237.140 4198.193 5000.000
14 2  4850.215 1518.986 108.037
15 2  1144.262 4540.297 3161.632
16 2  2620.140 376.494 3008.240
17 2  1123.623 1011.583 995.932
18 2  0.000 1153.891 1479.547
19 2  3040.263 3770.746 2160.123
20 2  2316.334 4999.998 0.005
21 2  4999.918 4396.493 108.037
22 2  2831.311 2697.463 4999.997
23 2  1796.120 279.353 2764.929
24 2  2486.171 1114.089 4066.317
25 2  2256.189 2084.560 2295.881
26 2  0.040 0.023 0.426
27 2  4999.986 2308.445 1795.592
28 2  0.013 734.300 4545.282
29 2  0.005 4999.993 987.491
30 2  0.039 0.016 2982.676
31 2  4896.904 917.943 0.000
32 2  1991.065 2522.953 0.091
33 2  0.153 0.772 4998.590
34 2  4092.058 3676.793 1820.703
35 2  3657.768 2536.276 166.818
36 2  4999.978 2996.194 3191.013
37 2  5000.000 1199.311 4820.413
38 2  4827.452 1341.106 0.027
39 2  2013.955 2919.769 870.342
40 2  2697.698 53.287 2378.571
41 2  3586.471 134.678 4953.812
42 2  4989.037 4360.338 1892.994
43 2  4983.179 5000.000 2916.880
44 2  0.006 3619.245 3073.243
45 2  1888.774 553.935 5000.000
46 2  0.182 751.355 3314.623
47 2  3411.468 4999.996 1918.639
48 2  12.159 74.956 4846.103
49 2  2586.769 0.021 2591.840
50 2  4646.675 4984.959 3075.733
51 2  2081.992 4174.372 4156.214
52 2  0.015 0.010 1078.314
53 2  3834.290 0.000 3756.410
54 2  2453.663 1982.209 0.000
55 2  601.387 490.183 5000.000
56 2  1598.279 0.000 2299.796
57 2  1747.687 3778.489 0.437
58 2  4756.511 0.000 3280.493
59 2  4999.949 0.022 3061.954
60 2  0.000 862.729 1543.058
61 2  2073.627 36.942 2040.953
62 2  403.527 269.376 1368.244
63 2  0.073 4999.964 4691.102
64 2  0.000 3876.609 1755.144
65 2  2839.197 0.059 0.009
66 2  2669.825 4996.896 4997.996
67 2  1477.851 1812.306 4999.996
68 2  2297.462 0.000 586.292
69 2  441.891 0.000 3413.966
70 2  1311.994 4999.996 4421.734
71 2  0.019 2400.887 421.472
72 2  0.000 4317.965 33.712
73 2  0.037 3164.330 108.037
74 2  333.452 2131.011 0.000
75 2  2916.267 909.257 1092.490
76 2  4170.302 866.130 1883.523
77 2  1765.640 4442.825 1767.779
78 2  3483.680 629.394 2478.145
79 2  622.111 11.615 2203.020
80 2  1483.855 2046.073 2211.497
81 2  540.264 1354.707 2821.544
82 2  0.000 1752.273 1488.651
83 2  1231.012 3281.411 2583.390
84 2  2873.523 0.000 2898.581
85 2  4996.845 0.000 2712.339
86 2  1726.268 545.929 2925.812
87 2  0.000 2008.580 4070.813
88 2  1766.312 3702.336 151.283
89 2  172.681 3014.212 4.580
90 2  3056.175 0.000 4167.569
91 2  2454.292 0.000 5000.000
92 2  1482.759 44.940 2179.771
93 2  625.319 2760.112 0.000
94 2  1.896 79.418 2751.192
95 2  487.474 297.068 3313.273
96 2  2201.362 4092.794 5000.000
97 2  3489.771 93.405 0.000
98 2  576.668 0.000 2977.960
99 2  2366.631 0.000 2920.843
100 2  5000.000 3030.384 1649.156
101 2  611.303 0.000 4253.314
102 2  2607.587 3488.665 3078.005
103 2  1918.854 43.275 4098.426
104 2  750.087 3184.869 1200.809
105 2  2482.180 4533.819 3723.747
106 2  4038.286 0.002 496.881
107 2  45.744 1975.591 305.165
108 2  0.000 1756.457 912.931
109 2  1838.107 4917.450 3322.970
110 2  1229.070 442.314 824.228
111 2  1012.382 1863.188 326.916
112 2  683.033 3236.549 0.000
113 2  487.637 5000.000 2649.800
114 2  97.167 625.932 4945.359
115 2  2583.026 4361.067 720.876
116 2  0.000 1346.442 1148.074
117 2  339.276 861.898 1607.514
118 2  5000.000 3522.448 2298.605
119 2  376.435 2550.508 2337.703
120 2  748.671 1087.111 1587.199
121 2  0.000 3522.700 2164.640
122 2  1038.307 3076.664 1857.989
123 2  1303.961 1072.884 1085.846
124 2  197.348 325.349 1113.258
125 2  402.935 1621.772 167.021
126 2  551.721 887.723 1866.021
127 2  1104.130 400.783 1206.622
128 2  1122.241 1282.984 398.629
129 2  1528.698 408.214 879.583
130 2  890.744 712.173 615.266
131 2  303.076 1221.534 887.652
132 2  322.721 2177.144 819.935
133 2  1007.362 1012.396 765.978
134 2  429.008 890.937 1062.742
135 2  1515.937 99.864 1114.522
136 2  1348.323 726.892 1118.893
137 2  2347.655 24.770 63.619
138 2  2511.517 1244.942 0.000
139 2  788.296 988.217 1209.919
140 2  2627.010 3545.865 2405.170
141 2  1574.798 1428.677 596.408
142 2  97.072 473.044 1121.986
143 2  222.035 891.621 418.471
144 2  1125.498 0.000 641.767
145 2  1676.959 50.235 815.419
146 2  1585.102 1106.847 1261.171
147 2  1328.876 2048.510 970.323
148 2  464.672 1006.494 452.812
149 2  0.000 642.399 4382.944
150 2  967.312 527.874 880.692
151 2  4629.786 194.537 0.000
152 2  106.842 434.174 318.296
153 2  0.000 1719.425 1278.922
154 2  1201.337 859.638 275.656
155 2  1384.350 1220.648 361.082
156 2  897.559 0.000 1413.331
157 2  686.228 1254.135 495.837
158 2  2529.724 4470.460 1169.994
159 2  2089.522 1030.274 322.477
160 2  1155.254 702.924 1279.410
161 2  627.988 1790.956 806.845
162 2  1728.685 798.723 0.000
163 2  1342.193 701.705 485.857
164 2  222.260 557.181 1820.930
165 2  675.311 840.600 476.648
166 2  702.810 2087.532 2242.837
167 2  456.575 350.087 1552.395
168 2  719.603 233.458 1824.232
169 2  759.175 1554.003 0.000
170 2  1684.968 1167.462 0.000
171 2  186.487 1188.097 1895.583
172 2  1529.212 850.016 2442.222
173 2  1607.658 2221.363 94.972
174 2  404.263 4032.621 2826.144
175 2  67.827 2238.399 0.053
176 2  905.422 902.269 898.583
177 2  521.184 0.000 2484.347
178 2  1689.925 2554.618 4020.105
179 2  940.444 1225.281 999.279
180 2  1575.449 651.019 241.516
181 2  446.038 1478.943 896.469
182 2  1082.828 1445.858 1083.012
183 2  532.836 467.649 1070.759
184 2  922.709 921.782 1098.514
185 2  537.307 127.634 875.416
186 2  804.442 794.315 1086.703
187 2  780.252 993.083 213.614
188 2  618.156 464.395 923.601
189 2  583.939 17.483 1600.689
190 2  132.233 823.656 1078.534
191 2  1335.118 850.008 402.918
192 2  597.230 1432.295 215.272
193 2  1711.045 131.290 64.387
194 2  971.829 0.000 0.000
195 2  1002.689 639.359 1319.212
196 2  1014.405 418.388 1045.429
197 2  122.785 1258.654 2093.705
198 2  1622.874 965.507 217.997
199 2  481.123 1619.367 757.603
200 2  867.109 916.353 1668.120
201 2  1758.150 1435.138 334.245
202 2  1785.290 3087.489 1614.002
203 2  582.177 958.706 1702.476
204 2  1038.229 1414.810 470.111
205 2  207.792 2328.235 1038.121
206 2  546.465 1308.198 1306.261
207 2  2247.013 269.174 2286.153
208 2  4925.625 1056.417 4981.665
209 2  1755.071 1083.259 2534.925
210 2  1118.004 14.287 93.294
211 2  2056.963 659.308 4998.319
212 2  4626.251 3355.965 2436.599
213 2  1288.442 359.920 0.000
214 2  1528.636 1094.765 501.867
215 2  1036.263 743.703 299.496
216 2  1655.486 952.557 811.785
217 2  0.280 1635.665 423.363
218 2  321.319 1060.531 985.816
219 2  0.032 4829.551 0.226
220 2  1489.040 2405.734 2721.798
221 2  1546.156 218.790 539.989
222 2  419.919 605.555 1378.157
223 2  1241.086 0.000 3768.069
224 2  678.712 1618.990 798.525
225 2  1129.071 817.797 1139.137
226 2  1046.858 0.000 1719.348
227 2  3102.568 643.497 24.168
228 2  468.685 1032.823 1197.670
229 2  244.188 1266.946 687.058
230 2  1172.287 301.719 257.430
231 2  241.881 429.635 1963.266
232 2  1436.312 944.765 911.776
233 2  187.707 2404.619 886.751
234 2  432.447 1753.298 592.347
235 2  0.000 4517.614 2109.374
236 2  1356.102 1671.531 119.347
237 2  1028.867 854.255 671.174
238 2  1362.855 0.000 1168.759
239 2  6.557 130.224 297.166
240 2  367.312 826.356 835.953
241 2  1372.957 375.114 1266.155
242 2  1331.107 1043.879 180.257
243 2  917.551 292.218 765.879
244 2  265.707 714.880 1225.941
245 2  2183.411 1865.501 2144.278
246 2  348.319 272.273 1197.480
247 2  1458.791 1028.326 754.568
248 2  1528.011 347.333 427.785
249 2  358.904 653.234 886.473
250 2  401.415 835.365 384.880
251 2  0.000 958.106 1010.693
252 2  607.157 960.435 1130.693
253 2  4746.399 3647.012 1689.613
254 2  0.000 1217.757 1036.891
255 2  407.410 487.349 432.730
256 2  0.000 518.645 430.085
257 2  1029.152 1488.708 1921.667
258 2  454.506 871.740 661.704
259 2  1827.181 972.241 0.000
260 2  932.723 679.538 1136.479
261 2  3078.836 4362.179 2251.002
262 2  1164.863 1276.518 1610.068
263 2  1035.229 668.583 1001.292
264 2  1614.749 757.060 1095.433
265 2  1087.459 1117.704 427.668
266 2  37.200 2426.615 34.956
267 2  692.639 566.314 3.802
268 2  114.105 846.360 596.219
269 2  162.798 190.258 1811.523
270 2  916.934 172.073 226.855
271 2  664.559 255.759 523.141
272 2  258.455 406.387 1663.518
273 2  3695.986 3055.514 3260.291
274 2  0.000 2132.714 421.787
275 2  467.916 444.568 2026.582
276 2  170.683 811.221 1410.714
277 2  1207.552 28.867 1041.213
278 2  1158.469 1008.791 1253.428
279 2  1893.398 1371.895 581.007
280 2  2121.496 2457.306 87.144
281 2  0.000 174.953 1016.013
282 2  1534.452 4863.020 235.628
283 2  540.219 231.602 0.000
284 2  729.563 554.315 1292.027
285 2  200.228 1012.045 632.900
286 2  680.586 694.257 980.992
287 2  288.944 517.669 1162.126
288 2  387.064 789.514 1985.459
289 2  544.928 1160.960 536.311
290 2  318.033 409.400 1445.284
291 2  756.977 281.000 364.701
292 2  1778.655 2765.204 1113.008
293 2  3098.193 4357.685 1643.267
294 2  1750.398 148.890 241.124
295 2  3477.787 2305.269 19.891
296 2  1351.622 2182.384 2118.262
297 2  680.888 562.413 1103.919
298 2  599.458 245.196 1067.009
299 2  0.000 3908.522 1259.065
300 2  0.000 5000.000 3151.437
301 2  882.680 3894.872 4621.614
302 2  257.043 0.477 1388.917
303 2  75.730 931.733 834.157
304 2  1828.102 272.309 622.826
305 2  519.188 594.324 875.787
306 2  1358.580 1258.720 980.474
307 2  439.428 1324.971 973.059
308 2  494.263 1025.061 105.755
309 2  0.000 435.393 702.431
310 2  397.861 610.365 550.771
311 2  1575.355 88.634 239.937
312 2  687.960 1099.243 613.866
313 2  52.154 765.992 319.582
314 2  663.730 1453.479 876.011
315 2  509.801 735.257 469.655
316 2  1124.268 716.399 2043.313
317 2  326.419 141.269 1535.432
318 2  544.733 1320.626 0.000
319 2  1699.367 1160.027 1959.567
320 2  3.004 179.124 1374.673
321 2  19.513 340.149 1225.739
322 2  780.240 431.633 629.867
323 2  405.162 1285.844 1969.165
324 2  128.878 2708.706 2572.502
325 2  1617.574 1295.289 2696.218
326 2  227.743 863.034 744.834
327 2  18.227 270.856 863.320
328 2  676.482 1289.643 966.394
329 2  341.061 2232.093 1155.811
330 2  436.392 1164.141 1062.737
331 2  837.521 430.065 302.255
332 2  295.501 2092.999 543.696
333 2  1232.096 1865.453 577.133
334 2  4952.313 494.946 4968.930
335 2  1081.647 1260.877 1129.647
336 2  2108.049 937.895 0.000
337 2  1288.448 605.968 1324.643
338 2  2540.254 3483.119 1236.701
339 2  607.104 1153.249 1071.358
340 2  3252.416 0.000 381.635
341 2  453.158 1193.329 396.867
342 2  384.613 1026.880 806.705
343 2  856.994 618.395 759.872
344 2  503.674 754.730 1357.519
345 2  586.210 79.221 592.544
346 2  1900.097 1550.974 124.150
347 2  2585.318 1969.398 2421.752
348 2  205.291 335.014 937.664
349 2  843.632 695.603 1281.651
350 2  390.648 636.445 320.824
351 2  1866.241 248.766 0.000
352 2  5000.000 4217.590 1036.396
353 2  603.609 285.133 1239.584
354 2  458.382 1549.168 531.255
355 2  321.892 827.700 0.000
356 2  3168.104 1004.546 3215.152
357 2  578.996 228.520 250.394
358 2  1106.395 3332.804 100.954
359 2  1057.243 785.028 1413.520
360 2  2186.604 3074.903 1326.606
361 2  1538.207 1262.198 194.686
362 2  1662.233 1588.636 508.139
363 2  298.853 23.871 1011.862
364 2  114.319 1755.944 239.091
365 2  726.110 602.308 634.831
366 2  616.372 1589.657 353.048
367 2  1179.405 339.635 1066.798
368 2  767.186 551.972 161.643
369 2  1097.175 1409.089 105.214
370 2  434.278 535.646 3299.095
371 2  15.534 649.413 4213.786
372 2  0.000 1797.427 357.878
373 2  1482.340 861.787 0.000
374 2  1945.031 1248.356 0.000
375 2  0.000 2167.649 1743.720
376 2  636.623 693.906 1264.022
377 2  2466.436 25.709 2474.536
378 2  601.517 1333.805 714.489
379 2  1164.865 518.273 1008.576
380 2  421.553 347.328 545.270
381 2  3908.259 5000.000 391.178
382 2  1276.753 76.588 616.441
383 2  89.154 0.000 472.558
384 2  4941.267 116.881 18.372
385 2  1461.773 671.947 1304.710
386 2  454.598 701.829 682.382
387 2  1540.003 820.173 1880.971
388 2  3267.261 0.000 2921.665
389 2  81.367 2283.923 280.486
390 2  1514.858 1132.652 959.053
391 2  663.720 1028.806 92.702
392 2  170.677 732.633 449.859
393 2  949.647 1169.272 834.251
394 2  1864.148 1577.633 335.782
395 2  222.759 630.748 585.350
396 2  431.545 4.350 1431.226
397 2  171.288 1441.239 321.994
398 2  1670.118 2464.639 440.386
399 2  844.634 1494.840 987.929
400 2  0.000 2541.770 3170.510
401 2  456.678 3920.503 3607.251
402 2  3476.146 975.096 0.000
403 2  967.532 777.936 1610.408
404 2  610.409 1069.587 273.433
405 2  192.012 582.464 355.993
406 2  34.347 1295.892 1567.284
407 2  135.339 1492.470 963.591
408 2  591.602 880.150 332.812
409 2  0.000 2570.780 2288.572
410 2  968.568 954.064 535.992
411 2  1417.632 560.037 201.448
412 2  839.121 1217.241 1674.386
413 2  911.042 1340.936 374.992
414 2  941.734 566.814 2016.666
415 2  1048.385 404.267 372.157
416 2  729.083 1411.392 367.837
417 2  1707.495 363.321 1967.365
418 2  126.147 290.634 142.493
419 2  1107.361 216.515 1675.188
420 2  556.169 579.221 621.101
421 2  823.516 1623.030 704.985
422 2  280.503 208.915 844.610
423 2  1400.136 157.800 1422.761
424 2  196.428 2879.151 1609.585
425 2  1066.673 2547.498 525.842
426 2  1301.374 1215.397 160.033
427 2  2660.310 835.830 2949.062
428 2  503.160 916.304 884.840
429 2  0.000 2797.997 4690.419
430 2  307.551 465.834 162.514
431 2  212.401 619.079 1026.348
432 2  2152.648 612.189 4789.492
433 2  1832.856 411.586 390.687
434 2  1355.365 1549.208 390.952
435 2  1332.122 1373.575 284.112
436 2  457.692 879.735 204.526
437 2  3523.177 460.923 3158.907
438 2  281.931 714.744 1535.845
439 2  807.569 1556.699 296.713
440 2  1401.238 3794.618 1707.919
441 2  2761.934 0.000 4214.597
442 2  1040.369 630.980 614.169
443 2  204.191 3851.106 4475.725
444 2  1332.158 1436.816 856.538
445 2  659.262 1857.801 1034.452
446 2  179.988 4359.849 0.000
447 2  929.099 1712.798 483.529
448 2  371.359 0.000 2271.843
449 2  594.215 1598.089 945.602
450 2  567.707 566.812 440.310
451 2  2934.495 2789.558 2742.166
452 2  53.061 1095.896 1256.569
453 2  0.000 1163.811 80.626
454 2  1914.653 1088.205 346.490
455 2  2829.043 3840.802 1662.356
456 2  0.000 1517.173 1174.323
457 2  3343.488 0.000 1550.917
458 2  896.648 1661.101 148.341
459 2  4999.998 145.087 204.212
460 2  557.631 689.467 302.281
461 2  1589.104 227.432 767.552
462 2  23.034 1947.179 534.181
463 2  763.956 1096.722 1011.314
464 2  1319.219 403.796 678.438
465 2  898.758 1337.961 544.812
466 2  740.850 900.693 10.672
467 2  1332.277 1029.400 1366.950
468 2  1275.132 1419.378 516.154
469 2  234.733 0.000 1558.645
470 2  886.892 1366.802 874.340
471 2  1149.950 3.878 1244.316
472 2  512.054 170.250 1504.083
473 2  1644.012 1393.814 1637.102
474 2  1724.883 525.553 1901.900
475 2  2795.369 4597.858 1497.202
476 2  423.963 2264.059 4657.129
477 2  1444.286 205.632 675.495
478 2  2119.752 975.976 694.783
479 2  1605.845 1839.481 2676.780
480 2  991.966 1784.569 0.000
481 2  1153.739 550.085 347.592
482 2  692.330 243.443 2294.020
483 2  2996.714 5000.000 4344.525
484 2  564.780 445.616 1399.678
485 2  866.993 1159.618 18.024
486 2  142.909 81.213 621.105
487 2  801.093 2783.164 3166.053
488 2  1595.156 897.331 991.571
489 2  58.310 62.022 2090.368
490 2  1634.484 2183.971 553.032
491 2  649.165 277.053 1574.443
492 2  6.262 547.632 232.564
493 2  13.201 642.917 1300.317
494 2  1744.290 276.283 901.482
495 2  2198.167 0.000 147.233
496 2  18.224 3466.545 358.437
497 2  0.000 2956.947 1699.522
498 2  431.077 1497.545 360.799
499 2  856.312 795.526 773.061
500 2  347.876 1022.122 1317.172
501 2  225.349 1154.252 336.269
502 2  522.262 1746.506 1215.705
503 2  1193.257 271.228 741.270
504 2  1293.344 426.464 184.680
505 2  572.958 1276.241 1749.648
506 2  928.388 234.204 1230.595
507 2  258.628 574.537 1333.955
508 2  1147.330 1744.748 2039.888
509 2  1040.345 1316.308 247.437
510 2  401.213 0.000 459.569
511 2  648.005 500.718 753.611
512 2  4926.486 2211.185 874.114
513 2  919.231 1164.438 573.492
514 2  1611.674 697.422 70.333
515 2  1101.780 1517.895 743.825
516 2  853.445 290.825 120.878
517 2  4925.231 0.000 4932.816
518 2  1431.673 832.564 547.430
519 2  949.973 106.247 1589.679
520 2  1209.079 1123.303 551.594
521 2  514.228 748.161 952.055
522 2  1755.856 358.969 149.681
523 2  1188.600 3044.380 1785.396
524 2  4464.999 567.796 3166.016
525 2  1118.530 908.469 80.972
526 2  287.470 1637.341 751.454
527 2  0.000 0.000 1566.758
528 2  837.603 22.278 1782.215
529 2  1679.227 778.101 287.124
530 2  684.547 910.223 970.415
531 2  3065.318 340.245 0.000
532 2  739.330 2943.834 427.258
533 2  1892.236 2268.049 2628.453
534 2  1497.464 542.194 667.674
535 2  925.126 1153.391 255.435
536 2  496.372 1407.068 1114.196
537 2  1731.540 575.064 292.330
538 2  234.084 619.145 161.970
539 2  1069.200 0.000 1531.398
540 2  1757.406 433.808 968.332
541 2  5000.000 622.779 89.243
542 2  1479.631 1392.106 437.035
543 2  400.317 882.964 1399.692
544 2  991.959 465.142 545.528
545 2  1074.479 1493.212 919.252
546 2  1116.589 578.320 814.878
547 2  284.493 1365.977 166.562
548 2  2645.916 14.741 4654.101
549 2  2660.633 2791.166 45.283
550 2  1884.743 965.813 461.351
551 2  2160.096 1155.896 232.117
552 2  720.785 684.439 1814.617
553 2  0.019 4999.551 0.085
554 2  542.414 594.108 1920.516
555 2  711.447 674.384 481.550
556 2  658.784 1099.130 1238.766
557 2  1124.294 290.462 65.316
558 2  0.000 4248.497 523.217
559 2  2524.904 1778.468 1447.669
560 2  1466.180 1458.981 1392.510
561 2  144.009 152.077 33.648
562 2  136.387 2681.225 1117.330
563 2  250.891 498.397 766.769
564 2  1501.139 0.050 114.898
565 2  750.384 982.849 380.658
566 2  2102.385 2691.325 1178.612
567 2  1483.696 72.603 476.614
568 2  1254.836 619.691 905.789
569 2  83.039 470.441 1725.297
570 2  788.316 852.205 1318.520
571 2  716.980 1250.364 1526.584
572 2  0.000 9.971 681.059
573 2  1966.714 3109.712 2920.305
574 2  716.789 344.623 994.418
575 2  492.027 0.000 0.000
576 2  1600.918 2424.186 683.217
577 2  438.472 200.332 1013.897
578 2  1367.519 109.024 135.463
579 2  324.805 1345.703 1354.992
580 2  3968.195 4224.112 3103.055
581 2  1470.092 805.834 160.820
582 2  1264.121 471.608 1165.972
583 2  882.475 644.680 1494.463
584 2  1922.577 1648.764 2150.217
585 2  1831.411 0.000 765.206
586 2  50.973 439.879 102.287
587 2  2090.550 0.000 4413.602
588 2  544.555 1173.622 710.421
589 2  4110.730 2775.784 2821.691
590 2  463.155 1573.939 1380.712
591 2  1011.915 565.520 198.695
592 2  4999.994 1663.939 2397.829
593 2  1139.830 947.449 498.304
594 2  89.352 1930.628 2372.018
595 2  1024.197 606.598 445.499
596 2  1392.974 525.460 805.262
597 2  1572.188 685.631 615.097
598 2  2950.900 1815.918 2984.848
599 2  778.283 535.193 910.287
600 2  2829.198 2958.866 2844.589
601 2  456.897 1812.322 2501.294
602 2  1335.290 718.877 224.656
603 2  58.257 1604.621 4039.855
604 2  438.235 1044.632 645.646
605 2  389.653 418.003 1274.738
606 2  1286.820 1114.647 0.000
607 2  370.209 537.176 1014.087
608 2  1474.149 750.793 964.750
609 2  858.005 211.788 953.311
610 2  1691.556 6.158 625.439
611 2  5000.000 478.087 0.000
612 2  2873.387 3432.971 0.000
613 2  344.252 1214.264 226.999
614 2  3232.978 0.000 2078.307
615 2  1733.650 1213.609 269.390
616 2  2323.174 2128.748 3192.195
617 2  645.610 672.606 775.363
618 2  155.886 0.000 772.959
619 2  986.204 942.116 1516.650
620 2  3032.082 2477.670 1110.832
621 2  51.077 641.909 535.427
622 2  436.304 1076.452 274.180
623 2  893.905 516.010 1270.277
624 2  0.000 1304.957 2640.319
625 2  181.042 1156.306 98.098
626 2  0.000 269.488 660.195
627 2  315.093 0.000 1892.398
628 2  647.659 674.884 158.680
629 2  2971.769 2456.124 2564.164
630 2  3719.112 822.177 952.786
631 2  1171.962 659.589 218.839
632 2  808.799 218.623 1572.646
633 2  395.835 3763.072 0.000
634 2  1063.960 469.064 1724.588
635 2  202.117 356.284 448.997
636 2  1267.274 880.839 1227.097
637 2  103.861 1242.648 2759.612
638 2  497.554 504.697 276.943
639 2  164.001 1377.161 29.243
640 2  479.409 466.085 753.117
641 2  740.783 567.132 342.554
642 2  741.328 345.609 771.453
643 2  689.964 853.383 789.632
644 2  470.850 128.721 1177.481
645 2  1009.674 282.742 623.103
646 2  429.822 736.748 1798.107
647 2  2209.563 608.298 2071.601
648 2  3547.364 2892.463 672.326
649 2  1870.465 264.318 1020.319
650 2  595.996 1815.636 616.870
651 2  1890.241 325.921 827.469
652 2  27.007 1976.861 1848.477
653 2  541.222 328.258 408.944
654 2  872.763 672.317 944.983
655 2  3358.539 421.093 75.313
656 2  886.258 382.300 915.575
657 2  1494.398 1842.729 221.196
658 2  1671.948 3062.951 3071.394
659 2  2571.884 40.007 52.006
660 2  1604.152 759.841 1556.900
661 2  2317.224 0.000 1056.771
662 2  5000.000 3515.986 5000.000
663 2  0.001 920.296 0.000
664 2  3138.546 1045.235 378.342
665 2  1353.354 532.042 0.000
666 2  1409.601 678.217 66.101
667 2  889.639 159.016 470.163
668 2  1680.359 0.000 344.304
669 2  1589.742 451.246 143.146
670 2  1277.700 350.035 439.405
671 2  3624.044 1777.125 3726.614
672 2  0.000 1390.569 949.464
673 2  1389.290 539.588 510.808
674 2  919.117 2962.044 1945.845
675 2  1005.748 1622.684 649.232
676 2  131.346 810.129 6.982
677 2  1755.421 620.304 127.762
678 2  234.206 332.425 269.683
679 2  1025.951 2030.898 1449.753
680 2  864.351 2311.355 377.894
681 2  928.161 1820.894 730.138
682 2  736.038 398.995 0.000
683 2  328.476 223.546 1962.266
684 2  2534.788 692.903 3317.262
685 2  318.246 485.995 2332.994
686 2  698.337 1246.902 277.147
687 2  411.408 1765.112 899.166
688 2  601.278 3311.688 863.900
689 2  4687.652 4081.355 5000.000
690 2  129.964 1346.610 457.541
691 2  329.049 278.570 21.792
692 2  683.559 1042.214 831.485
693 2  329.240 1873.135 399.885
694 2  1737.817 657.538 651.318
695 2  2276.683 1058.828 1009.375
696 2  795.013 1873.306 0.000
697 2  283.894 697.187 729.484
698 2  1021.360 2106.062 331.524
699 2  1098.305 0.000 3320.148
700 2  494.095 2036.710 178.648
701 2  2959.630 1169.746 19.839
702 2  2231.556 4280.954 0.883
703 2  4003.023 184.102 1141.262
704 2  4633.399 1615.387 4999.998
705 2  34.416 0.000 3704.721
706 2  1184.056 708.520 420.873
707 2  1892.064 910.208 3215.742
708 2  707.204 30.701 2632.657
709 2  3821.800 1985.575 651.584
710 2  305.621 10.854 4481.088
711 2  817.881 248.550 596.877
712 2  4142.624 3128.552 192.610
713 2  0.000 2337.929 2237.519
714 2  2066.923 182.197 4999.998
715 2  171.318 977.053 999.304
716 2  1510.791 200.425 129.242
717 2  1707.344 199.361 481.580
718 2  316.105 947.947 287.315
719 2  284.186 838.065 990.764
720 2  267.193 794.691 200.428
721 2  1641.177 280.667 277.920
722 2  0.000 1359.533 4758.389
723 2  424.409 11.376 3062.714
724 2  4967.681 3261.138 4197.945
725 2  2620.496 2632.295 0.000
726 2  560.963 866.521 1473.431
727 2  596.508 0.000 246.680
728 2  0.000 2584.174 1146.992
729 2  1536.757 199.399 975.096
730 2  229.760 2039.880 325.885
731 2  203.534 1548.822 182.483
732 2  3100.780 624.959 1530.274
733 2  422.927 1381.233 722.552
734 2  1269.590 1088.852 385.194
735 2  1007.305 329.717 220.878
736 2  266.181 1228.584 1221.218
737 2  718.675 0.000 1239.608
738 2  306.324 470.084 589.031
739 2  1715.698 3023.007 4152.912
740 2  1053.419 1116.419 1647.757
741 2  663.888 2331.557 19.254
742 2  2511.344 792.161 382.751
743 2  3630.105 475.044 2944.760
744 2  378.306 0.000 1656.269
745 2  2419.084 0.000 4724.980
746 2  1360.876 415.790 1520.124
747 2  1040.311 161.626 997.794
748 2  904.131 870.490 392.625
749 2  1508.573 1365.620 805.059
750 2  1327.291 966.569 526.638
751 2  301.896 1397.047 1075.745
752 2  684.094 2678.953 357.127
753 2  487.758 1194.565 875.270
754 2  2388.865 3101.131 4539.412
755 2  4039.765 2385.891 5000.000
756 2  710.927 1448.922 563.176
757 2  714.713 127.771 272.430
758 2  86.735 1644.596 1082.706
759 2  3697.706 1072.729 3837.864
760 2  1734.924 1538.835 703.460
761 2  1020.653 2186.663 0.000
762 2  876.944 1912.696 874.576
763 2  1136.235 2366.970 1054.715
764 2  2650.822 2690.552 1830.857
765 2  984.245 1312.655 0.000
766 2  1936.303 182.311 493.342
767 2  1313.791 492.507 343.984
768 2  1626.387 0.000 1196.546
769 2  1390.233 1448.229 3326.426
770 2  667.269 0.000 719.247
771 2  2462.849 4390.149 312.077
772 2  1373.968 843.622 737.638
773 2  174.182 147.096 1643.794
774 2  336.937 1750.855 1061.432
775 2  447.046 1.386 165.595
776 2  427.852 345.900 273.147
777 2  1551.180 2431.516 1014.399
778 2  1094.983 312.624 920.205
779 2  39.517 0.007 3940.822
780 2  1149.688 715.644 716.477
781 2  1034.382 781.735 516.004
782 2  4046.478 0.000 4321.375
783 2  1027.039 983.646 312.853
784 2  500.251 815.132 1198.352
785 2  1540.550 797.964 815.249
786 2  68.035 1423.558 2741.832
787 2  3195.939 2402.426 3313.446
788 2  604.251 1690.497 489.526
789 2  759.221 1646.985 546.173
790 2  829.538 0.000 471.684
791 2  53.326 3735.023 736.377
792 2  2064.508 0.000 1401.329
793 2  497.511 191.955 500.656
794 2  4043.736 2797.116 1514.599
795 2  2004.028 1216.395 279.090
796 2  1392.830 1851.653 797.581
797 2  18.121 341.121 1426.075
798 2  1351.688 1260.258 659.582
799 2  1329.995 0.001 474.269
800 2  413.584 381.799 960.061
801 2  596.206 1515.063 688.487
802 2  240.029 2006.698 1315.470
803 2  843.296 701.213 364.722
804 2  1453.953 970.648 1143.386
805 2  1466.296 369.879 596.995
806 2  0.000 2803.566 1590.899
807 2  442.194 1363.246 257.163
808 2  1139.815 2918.396 158.621
809 2  126.645 195.113 746.474
810 2  1345.146 169.541 448.329
811 2  2992.077 696.713 612.072
812 2  280.139 297.510 688.567
813 2  1182.104 3856.647 2755.947
814 2  3556.286 2829.529 3383.416
815 2  3554.681 223.083 2646.582
816 2  749.166 3487.308 1908.010
817 2  225.809 3852.182 959.422
818 2  1885.399 29.486 105.457
819 2  1465.799 39.696 715.891
820 2  866.346 334.581 1092.001
821 2  1195.116 901.597 678.067
822 2  5000.000 2184.796 4267.638
823 2  0.000 362.847 1035.477
824 2  1666.380 4110.859 1693.119
825 2  4568.489 4610.812 2057.208
826 2  4186.923 2355.756 4080.480
827 2  3163.968 1246.115 1921.516
828 2  1108.152 454.833 672.162
829 2  0.000 1187.056 820.440
830 2  0.000 791.828 1180.521
831 2  118.281 1012.278 1389.618
832 2  754.123 936.292 653.313
833 2  312.266 833.787 576.268
834 2  578.176 2372.044 1320.011
835 2  1344.623 381.974 933.545
836 2  642.325 794.657 1698.846
837 2  946.136 2575.165 703.813
838 2  752.582 1289.162 650.479
839 2  3229.523 0.001 5000.000
840 2  131.132 787.805 3416.721
841 2  290.529 2056.711 153.403
842 2  1313.614 420.137 2494.261
843 2  943.630 2056.334 3638.074
844 2  1131.870 363.000 525.820
845 2  0.000 2749.297 4074.041
846 2  2721.160 2315.250 0.000
847 2  0.000 3123.682 1563.218
848 2  3781.784 1117.584 24.430
849 2  1675.234 3937.648 1665.204
850 2  0.003 3.105 3152.735
851 2  3362.300 415.472 4999.984
852 2  2408.239 3764.291 16.479
853 2  885.140 1.765 3793.604
854 2  3207.438 0.000 146.338
855 2  525.276 529.010 1255.796
856 2  2977.403 0.000 1180.741
857 2  0.008 0.005 1248.552
858 2  0.000 4808.423 377.644
859 2  4680.416 3775.151 0.000
860 2  0.001 3462.193 2680.246
861 2  2129.349 2476.285 2144.414
862 2  5000.000 1745.024 5000.000
863 2  1921.594 4013.782 7.902
864 2  -0.000 1246.798 507.645
865 2  690.352 426.023 423.261
866 2  1835.823 0.012 2241.200
867 2  867.737 0.001 4999.991
868 2  4999.998 2004.190 0.016
869 2  1153.978 4432.545 4671.787
870 2  1528.461 1637.705 2084.242
871 2  1058.133 3080.198 4999.995
872 2  4641.816 4537.348 4999.996
873 2  3512.688 0.000 421.413
874 2  3626.643 0.009 3640.086
875 2  4106.902 3208.339 4155.873
876 2  3635.543 4999.969 4999.980
877 2  249.706 18.749 2762.809
878 2  0.051 0.036 170.426
879 2  1109.315 2131.708 2307.289
880 2  2768.105 661.633 2344.282
881 2  4967.641 3591.373 4803.081
882 2  46.289 3030.182 2261.721
883 2  799.961 4999.978 805.041
884 2  1704.302 2415.967 0.000
885 2  1991.670 4999.995 1316.049
886 2  997.857 0.002 1168.470
887 2  0.000 618.798 2281.313
888 2  2131.236 0.000 3520.177
889 2  0.016 2739.365 3361.076
890 2  16.826 594.695 3250.740
891 2  1202.281 5000.000 3291.288
892 2  809.370 2304.988 1422.101
893 2  4958.890 4841.439 3518.225
894 2  613.559 1221.961 5000.000
895 2  3946.767 0.000 1506.688
896 2  4613.138 1345.633 524.317
897 2  3633.881 5000.000 1832.478
898 2  1163.089 1869.419 3659.287
899 2  4999.800 3828.409 4291.082
900 2  530.882 1329.754 499.510
