LAMMPS (23 Jun 2022 - Update 1)
OMP_NUM_THREADS environment is not set. Defaulting to 1 thread. (src/comm.cpp:98)
  using 1 OpenMP thread(s) per MPI task
# Read restart
read_restart ${read_res}
read_restart ./pgnpmf/100900/equpmf86.res
Reading restart file ...
  restart file = 23 Jun 2022, LAMMPS = 23 Jun 2022
  restoring atom style atomic from restart
  orthogonal box = (2012.2724 2012.2724 2012.2724) to (2987.7276 2987.7276 2987.7276)
  1 by 1 by 1 MPI processor grid
  restoring pair style table from restart
  900 atoms
  read_restart CPU = 0.006 seconds

# Settings

pair_style table spline 9941

pair_coeff 1 1 ./pgnpmf/N20.txt DE_GNP 75.6
pair_coeff 2 2 ./pgnpmf/N100.txt DE_GNP 115.92
WARNING: 3 of 9941 force values in table DE_GNP are inconsistent with -dE/dr.
WARNING:  Should only be flagged at inflection points (src/pair_table.cpp:463)
pair_coeff 1 2 ./pgnpmf/mixed_potential.txt DE_GNP 95.66
WARNING: 1562 of 9941 force values in table DE_GNP are inconsistent with -dE/dr.
WARNING:  Should only be flagged at inflection points (src/pair_table.cpp:463)

#Neigh_list Calc Frequency

neigh_modify delay 0 every 1 check yes

# Saving Frequency (50 frames)

variable ts_save equal ${steps_equ}
variable ts_save equal 5000

# Dump
#dump 1 all custom ${ts_save} ./pgnpmf/${folder}/equilibration/trajectory/trajectory_${usic}_${trial}.equ.custom type x y z ix iy iz
#dump_modify 1 first no sort id
#dump 2 all cfg 50000 ./equilibration/trajectory/ovito/dumpgen.tens_*.cfg mass type xs ys zs fx fy fz

# thermo_style
thermo_style custom step temp press pe density ke etotal lx ly lz xlo xhi ylo yhi zlo zhi vol dt time cpu tpcpu spcpu cpuremain

# run info
timestep ${ts}
timestep 0.1
thermo 200

# fix

fix 1 all momentum 1000 linear 1 1 1 angular
variable T equal ${temp}
variable T equal 300
fix 2 all nvt temp ${T} 370000 100.0
fix 2 all nvt temp 300 370000 100.0

run 100000
Generated 0 of 1 mixed pair_coeff terms from geometric mixing rule
Unused restart file global fix info:
  fix style: npt, fix ID: 5
Neighbor list info ...
  update every 1 steps, delay 0 steps, check yes
  max neighbors/atom: 2000, page size: 100000
  master list distance cutoff = 117.92
  ghost atom cutoff = 117.92
  binsize = 58.96, bins = 17 17 17
  1 neighbor lists, perpetual/occasional/extra = 1 0 0
  (1) pair table, perpetual
      attributes: half, newton on
      pair build: half/bin/atomonly/newton
      stencil: half/bin/3d
      bin: standard
Per MPI rank memory allocation (min/avg/max) = 3.128 | 3.128 | 3.128 Mbytes
   Step          Temp          Press          PotEng        Density         KinEng         TotEng           Lx             Ly             Lz            Xlo            Xhi            Ylo            Yhi            Zlo            Zhi           Volume           Dt            Time           CPU           T/CPU          S/CPU         CPULeft    
  60205000   307.61428      0.23025598    -43183673       0.67957067     824.32882     -43182849       975.45512      975.45512      975.45512      2012.2724      2987.7276      2012.2724      2987.7276      2012.2724      2987.7276      9.2815793e+08  0.1            20025000       0              0              0              0            
  60205200   344.97115      0.15587804    -43183761       0.67957067     924.43584     -43182836       975.45512      975.45512      975.45512      2012.2724      2987.7276      2012.2724      2987.7276      2012.2724      2987.7276      9.2815793e+08  0.1            20025020       0.020047       997.62535      9975.9216      10.004424    
  60205400   397.97757      0.078275169   -43183854       0.67957067     1066.4797     -43182787       975.45512      975.45512      975.45512      2012.2724      2987.7276      2012.2724      2987.7276      2012.2724      2987.7276      9.2815793e+08  0.1            20025040       0.039994662    1002.6344      10026.391      9.9590583    
  60205600   456.07617     -0.0046781516  -43183953       0.67957067     1222.1693     -43182731       975.45512      975.45512      975.45512      2012.2724      2987.7276      2012.2724      2987.7276      2012.2724      2987.7276      9.2815793e+08  0.1            20025060       0.060091865    995.16276      9951.6044      9.9554936    
  60205800   525.81687     -0.092415027   -43184060       0.67957067     1409.0568     -43182651       975.45512      975.45512      975.45512      2012.2724      2987.7276      2012.2724      2987.7276      2012.2724      2987.7276      9.2815793e+08  0.1            20025080       0.080235353    992.87749      9928.7651      9.9493907    
  60206000   607.68826     -0.18555766    -43184175       0.67957067     1628.4516     -43182547       975.45512      975.45512      975.45512      2012.2724      2987.7276      2012.2724      2987.7276      2012.2724      2987.7276      9.2815793e+08  0.1            20025100       0.10041393     991.15228      9911.542       9.941141     
  60206200   702.11795     -0.28433603    -43184299       0.67957067     1881.4993     -43182417       975.45512      975.45512      975.45512      2012.2724      2987.7276      2012.2724      2987.7276      2012.2724      2987.7276      9.2815793e+08  0.1            20025120       0.12063057     989.2785       9892.7375      9.9320669    
  60206400   810.57347     -0.38917043    -43184431       0.67957067     2172.1328     -43182259       975.45512      975.45512      975.45512      2012.2724      2987.7276      2012.2724      2987.7276      2012.2724      2987.7276      9.2815793e+08  0.1            20025140       0.14059954     1001.5584      10015.647      9.9023336    
  60206600   934.67506     -0.50027384    -43184574       0.67957067     2504.6938     -43182069       975.45512      975.45512      975.45512      2012.2724      2987.7276      2012.2724      2987.7276      2012.2724      2987.7276      9.2815793e+08  0.1            20025160       0.16077951     991.08283      9910.8131      9.8880384    
  60206800   1076.2894     -0.61782116    -43184726       0.67957067     2884.1846     -43181842       975.45512      975.45512      975.45512      2012.2724      2987.7276      2012.2724      2987.7276      2012.2724      2987.7276      9.2815793e+08  0.1            20025180       0.18104925     986.6936       9866.9175      9.8773289    
  60207000   1237.3672     -0.74195294    -43184890       0.67957067     3315.8325     -43181574       975.45512      975.45512      975.45512      2012.2724      2987.7276      2012.2724      2987.7276      2012.2724      2987.7276      9.2815793e+08  0.1            20025200       0.20128795     988.20586      9882.0845      9.8631857    
  60207200   1420.5046     -0.87249784    -43185065       0.67957067     3806.5948     -43181259       975.45512      975.45512      975.45512      2012.2724      2987.7276      2012.2724      2987.7276      2012.2724      2987.7276      9.2815793e+08  0.1            20025220       0.22122795     1003.0079      10030.1        9.834654     
  60207400   1628.2314     -1.0096188     -43185253       0.67957067     4363.2503     -43180890       975.45512      975.45512      975.45512      2012.2724      2987.7276      2012.2724      2987.7276      2012.2724      2987.7276      9.2815793e+08  0.1            20025240       0.24116683     1003.0664      10030.665      9.8075096    
  60207600   1863.4465     -1.1532284     -43185454       0.67957067     4993.5675     -43180460       975.45512      975.45512      975.45512      2012.2724      2987.7276      2012.2724      2987.7276      2012.2724      2987.7276      9.2815793e+08  0.1            20025260       0.26125382     995.66978      9956.6557      9.787028     
  60207800   2129.3422     -1.3031958     -43185668       0.67957067     5706.101      -43179962       975.45512      975.45512      975.45512      2012.2724      2987.7276      2012.2724      2987.7276      2012.2724      2987.7276      9.2815793e+08  0.1            20025280       0.28132572     996.41788      9964.1813      9.7660754    
  60208000   2429.2568     -1.4593358     -43185897       0.67957067     6509.7967     -43179387       975.45512      975.45512      975.45512      2012.2724      2987.7276      2012.2724      2987.7276      2012.2724      2987.7276      9.2815793e+08  0.1            20025300       0.30150456     991.13239      9911.316       9.7487025    
  60208200   2767.2451     -1.6212728     -43186141       0.67957067     7415.5201     -43178726       975.45512      975.45512      975.45512      2012.2724      2987.7276      2012.2724      2987.7276      2012.2724      2987.7276      9.2815793e+08  0.1            20025320       0.32179982     985.45474      9854.559       9.7344933    
  60208400   3147.3422     -1.7891503     -43186401       0.67957067     8434.0848     -43177967       975.45512      975.45512      975.45512      2012.2724      2987.7276      2012.2724      2987.7276      2012.2724      2987.7276      9.2815793e+08  0.1            20025340       0.34174146     1002.9276      10029.302      9.7095201    
  60208600   3573.9876     -1.9629977     -43186678       0.67957067     9577.3869     -43177101       975.45512      975.45512      975.45512      2012.2724      2987.7276      2012.2724      2987.7276      2012.2724      2987.7276      9.2815793e+08  0.1            20025360       0.36189135     992.56071      9925.5874      9.6906877    
  60208800   4051.9177     -2.1429355     -43186973       0.67957067     10858.119     -43176115       975.45512      975.45512      975.45512      2012.2724      2987.7276      2012.2724      2987.7276      2012.2724      2987.7276      9.2815793e+08  0.1            20025380       0.38199961     994.61669      9946.153       9.6706617    
  60209000   4585.9779     -2.3293149     -43187287       0.67957067     12289.266     -43174997       975.45512      975.45512      975.45512      2012.2724      2987.7276      2012.2724      2987.7276      2012.2724      2987.7276      9.2815793e+08  0.1            20025400       0.40219249     990.44812      9904.5008      9.6526563    
  60209200   5181.6414     -2.5227191     -43187619       0.67957067     13885.494     -43173734       975.45512      975.45512      975.45512      2012.2724      2987.7276      2012.2724      2987.7276      2012.2724      2987.7276      9.2815793e+08  0.1            20025420       0.42213811     1002.7269      10027.287      9.6288021    
  60209400   5844.2296     -2.8694401     -43195350       0.67957067     15661.064     -43179689       975.45512      975.45512      975.45512      2012.2724      2987.7276      2012.2724      2987.7276      2012.2724      2987.7276      9.2815793e+08  0.1            20025440       0.44207761     1003.0342      10030.354      9.6051712    
  60209600   6579.1891     -3.0810694     -43195725       0.67957067     17630.57      -43178094       975.45512      975.45512      975.45512      2012.2724      2987.7276      2012.2724      2987.7276      2012.2724      2987.7276      9.2815793e+08  0.1            20025460       0.46219008     994.4078       9944.03        9.5854535    
  60209800   7391.9781     -3.158644      -43188743       0.67957067     19808.64      -43168935       975.45512      975.45512      975.45512      2012.2724      2987.7276      2012.2724      2987.7276      2012.2724      2987.7276      9.2815793e+08  0.1            20025480       0.48227008     996.01653      9960.1797      9.5650539    
  60210000   8287.566      -3.3923934     -43189163       0.67957067     22208.59      -43166954       975.45512      975.45512      975.45512      2012.2724      2987.7276      2012.2724      2987.7276      2012.2724      2987.7276      9.2815793e+08  0.1            20025500       0.50246078     990.55368      9905.5363      9.5467842    
  60210200   9270.9448     -3.6378305     -43189606       0.67957067     24843.798     -43164762       975.45512      975.45512      975.45512      2012.2724      2987.7276      2012.2724      2987.7276      2012.2724      2987.7276      9.2815793e+08  0.1            20025520       0.52263008     991.60709      9916.0679      9.5279769    
  60210400   10346.118     -3.8947291     -43190074       0.67957067     27724.993     -43162349       975.45512      975.45512      975.45512      2012.2724      2987.7276      2012.2724      2987.7276      2012.2724      2987.7276      9.2815793e+08  0.1            20025540       0.54280576     991.29155      9912.9126      9.5091804    
  60210600   11516.216     -4.1623008     -43190567       0.67957067     30860.559     -43159706       975.45512      975.45512      975.45512      2012.2724      2987.7276      2012.2724      2987.7276      2012.2724      2987.7276      9.2815793e+08  0.1            20025560       0.56295983     992.35687      9923.5647      9.4899201    
  60210800   12783.052     -4.4390746     -43191085       0.67957067     34255.361     -43156830       975.45512      975.45512      975.45512      2012.2724      2987.7276      2012.2724      2987.7276      2012.2724      2987.7276      9.2815793e+08  0.1            20025580       0.58304215     995.89958      9958.9879      9.4694346    
  60211000   14146.579     -4.5790337     -43184252       0.67957067     37909.27      -43146343       975.45512      975.45512      975.45512      2012.2724      2987.7276      2012.2724      2987.7276      2012.2724      2987.7276      9.2815793e+08  0.1            20025600       0.60319693     992.32107      9923.2363      9.450109     
  60211200   15605.052     -4.8709395     -43184823       0.67957067     41817.61      -43143006       975.45512      975.45512      975.45512      2012.2724      2987.7276      2012.2724      2987.7276      2012.2724      2987.7276      9.2815793e+08  0.1            20025620       0.62313722     1002.9949      10029.965      9.4274844    
  60211400   17153.633     -5.1679526     -43185421       0.67957067     45967.419     -43139453       975.45512      975.45512      975.45512      2012.2724      2987.7276      2012.2724      2987.7276      2012.2724      2987.7276      9.2815793e+08  0.1            20025640       0.64307057     1003.3421      10033.427      9.4049284    
  60211600   18784.495     -5.4695402     -43186045       0.67957067     50337.718     -43135707       975.45512      975.45512      975.45512      2012.2724      2987.7276      2012.2724      2987.7276      2012.2724      2987.7276      9.2815793e+08  0.1            20025660       0.66318327     994.39811      9943.9593      9.3850694    
  60211800   20486.17      -5.7757945     -43186696       0.67957067     54897.779     -43131798       975.45512      975.45512      975.45512      2012.2724      2987.7276      2012.2724      2987.7276      2012.2724      2987.7276      9.2815793e+08  0.1            20025680       0.68326504     995.92582      9959.2428      9.3647721    
  60212000   22242.932     -6.0900384     -43187372       0.67957067     59605.457     -43127766       975.45512      975.45512      975.45512      2012.2724      2987.7276      2012.2724      2987.7276      2012.2724      2987.7276      9.2815793e+08  0.1            20025700       0.70338353     994.11118      9941.1222      9.3449731    
  60212200   24035.047     -6.5626975     -43195451       0.67957067     64407.874     -43131043       975.45512      975.45512      975.45512      2012.2724      2987.7276      2012.2724      2987.7276      2012.2724      2987.7276      9.2815793e+08  0.1            20025720       0.72341295     998.53111      9985.331       9.3240088    
  60212400   25837.612     -6.9095976     -43196177       0.67957067     69238.294     -43126939       975.45512      975.45512      975.45512      2012.2724      2987.7276      2012.2724      2987.7276      2012.2724      2987.7276      9.2815793e+08  0.1            20025740       0.74348755     996.28322      9962.7761      9.3036627    
  60212600   27620.94      -7.2814794     -43196927       0.67957067     74017.166     -43122910       975.45512      975.45512      975.45512      2012.2724      2987.7276      2012.2724      2987.7276      2012.2724      2987.7276      9.2815793e+08  0.1            20025760       0.76459235     947.65307      9476.5387      9.295853     
  60212800   29350.874     -7.6823367     -43197698       0.67957067     78652.952     -43119045       975.45512      975.45512      975.45512      2012.2724      2987.7276      2012.2724      2987.7276      2012.2724      2987.7276      9.2815793e+08  0.1            20025780       0.78475084     992.13766      9921.3918      9.2761761    
  60213000   30989.415     -8.2590078     -43205867       0.67957067     83043.831     -43122823       975.45512      975.45512      975.45512      2012.2724      2987.7276      2012.2724      2987.7276      2012.2724      2987.7276      9.2815793e+08  0.1            20025800       0.80525402     975.45464      9754.5259      9.2604409    
  60213200   32496.44      -8.7194412     -43206676       0.67957067     87082.277     -43119594       975.45512      975.45512      975.45512      2012.2724      2987.7276      2012.2724      2987.7276      2012.2724      2987.7276      9.2815793e+08  0.1            20025820       0.82518727     1003.3533      10033.587      9.2380881    
  60213400   33831.3       -9.2070007     -43207501       0.67957067     90659.367     -43116841       975.45512      975.45512      975.45512      2012.2724      2987.7276      2012.2724      2987.7276      2012.2724      2987.7276      9.2815793e+08  0.1            20025840       0.84512818     1002.9618      10029.627      9.2159376    
  60213600   34957.165     -9.866622      -43215715       0.67957067     93676.402     -43122039       975.45512      975.45512      975.45512      2012.2724      2987.7276      2012.2724      2987.7276      2012.2724      2987.7276      9.2815793e+08  0.1            20025860       0.86581248     966.91848      9669.1483      9.2017909    
  60213800   35845.249     -10.409238     -43216561       0.67957067     96056.242     -43120505       975.45512      975.45512      975.45512      2012.2724      2987.7276      2012.2724      2987.7276      2012.2724      2987.7276      9.2815793e+08  0.1            20025880       0.88608722     986.4473       9864.454       9.183103     
  60214000   36480.896     -10.979322     -43217411       0.67957067     97759.615     -43119652       975.45512      975.45512      975.45512      2012.2724      2987.7276      2012.2724      2987.7276      2012.2724      2987.7276      9.2815793e+08  0.1            20025900       0.90621996     993.40691      9934.0957      9.1629069    
  60214200   36869.658     -11.577882     -43218264       0.67957067     98801.4       -43119462       975.45512      975.45512      975.45512      2012.2724      2987.7276      2012.2724      2987.7276      2012.2724      2987.7276      9.2815793e+08  0.1            20025920       0.92614616     1003.7055      10037.087      9.1406739    
  60214400   37039.876     -12.211753     -43219115       0.67957067     99257.542     -43119858       975.45512      975.45512      975.45512      2012.2724      2987.7276      2012.2724      2987.7276      2012.2724      2987.7276      9.2815793e+08  0.1            20025940       0.94607529     1003.5559      10035.562      9.1185689    
  60214600   37041.689     -12.88283      -43219964       0.67957067     99262.402     -43120702       975.45512      975.45512      975.45512      2012.2724      2987.7276      2012.2724      2987.7276      2012.2724      2987.7276      9.2815793e+08  0.1            20025960       0.96613837     996.85646      9968.5214      9.0978175    
  60214800   36940.51      -13.574587     -43220809       0.67957067     98991.267     -43121818       975.45512      975.45512      975.45512      2012.2724      2987.7276      2012.2724      2987.7276      2012.2724      2987.7276      9.2815793e+08  0.1            20025980       0.9864527      984.52446      9845.2451      9.0794058    
  60215000   36807.667     -14.260491     -43221649       0.67957067     98635.281     -43123014       975.45512      975.45512      975.45512      2012.2724      2987.7276      2012.2724      2987.7276      2012.2724      2987.7276      9.2815793e+08  0.1            20026000       1.0068728      979.428        9794.2478      9.0618699    
  60215200   36712.508     -14.918078     -43222485       0.67957067     98380.277     -43124104       975.45512      975.45512      975.45512      2012.2724      2987.7276      2012.2724      2987.7276      2012.2724      2987.7276      9.2815793e+08  0.1            20026020       1.026802       1003.552       10035.568      9.0398974    
  60215400   36716.686     -15.533833     -43223316       0.67957067     98391.474     -43124924       975.45512      975.45512      975.45512      2012.2724      2987.7276      2012.2724      2987.7276      2012.2724      2987.7276      9.2815793e+08  0.1            20026040       1.0467207      1004.0848      10040.871      9.0179131    
  60215600   36872.401     -16.100532     -43224144       0.67957067     98808.752     -43125335       975.45512      975.45512      975.45512      2012.2724      2987.7276      2012.2724      2987.7276      2012.2724      2987.7276      9.2815793e+08  0.1            20026060       1.066829       994.61001      9946.0823      8.9976089    
  60215800   37221.682     -16.48167      -43217593       0.67957067     99744.736     -43117848       975.45512      975.45512      975.45512      2012.2724      2987.7276      2012.2724      2987.7276      2012.2724      2987.7276      9.2815793e+08  0.1            20026080       1.0868662      998.14624      9981.446       8.9767228    
  60216000   37794.993     -16.980416     -43218421       0.67957067     101281.07     -43117140       975.45512      975.45512      975.45512      2012.2724      2987.7276      2012.2724      2987.7276      2012.2724      2987.7276      9.2815793e+08  0.1            20026100       1.1070456      991.1039       9911.0469      8.957019     
  60216200   38608.781     -17.317588     -43211874       0.67957067     103461.81     -43108413       975.45512      975.45512      975.45512      2012.2724      2987.7276      2012.2724      2987.7276      2012.2724      2987.7276      9.2815793e+08  0.1            20026120       1.1271226      996.17062      9961.7122      8.9364842    
  60216400   39661.462     -17.79424      -43212712       0.67957067     106282.73     -43106429       975.45512      975.45512      975.45512      2012.2724      2987.7276      2012.2724      2987.7276      2012.2724      2987.7276      9.2815793e+08  0.1            20026140       1.1470468      1003.8024      10038.044      8.9147785    
  60216600   40931.151     -18.284665     -43213558       0.67957067     109685.18     -43103873       975.45512      975.45512      975.45512      2012.2724      2987.7276      2012.2724      2987.7276      2012.2724      2987.7276      9.2815793e+08  0.1            20026160       1.1671207      996.32108      9963.1994      8.8942759    
  60216800   42376.277     -18.807669     -43214414       0.67957067     113557.75     -43100857       975.45512      975.45512      975.45512      2012.2724      2987.7276      2012.2724      2987.7276      2012.2724      2987.7276      9.2815793e+08  0.1            20026180       1.1872404      994.04927      9940.4631      8.8741312    
  60217000   43939.896     -19.360858     -43215282       0.67957067     117747.86     -43097534       975.45512      975.45512      975.45512      2012.2724      2987.7276      2012.2724      2987.7276      2012.2724      2987.7276      9.2815793e+08  0.1            20026200       1.2076         982.334        9823.3487      8.8557455    
  60217200   45556.797     -19.927397     -43216162       0.67957067     122080.75     -43094081       975.45512      975.45512      975.45512      2012.2724      2987.7276      2012.2724      2987.7276      2012.2724      2987.7276      9.2815793e+08  0.1            20026220       1.2278988      985.284        9852.8026      8.8368573    
  60217400   47158.833     -20.489322     -43217052       0.67957067     126373.8      -43090679       975.45512      975.45512      975.45512      2012.2724      2987.7276      2012.2724      2987.7276      2012.2724      2987.7276      9.2815793e+08  0.1            20026240       1.2484522      973.07274      9730.7601      8.8197221    
  60217600   48679.819     -21.02814      -43217954       0.67957067     130449.66     -43087504       975.45512      975.45512      975.45512      2012.2724      2987.7276      2012.2724      2987.7276      2012.2724      2987.7276      9.2815793e+08  0.1            20026260       1.2685563      994.82388      9948.2363      8.7993618    
  60217800   50059.055     -21.406074     -43211485       0.67957067     134145.66     -43077339       975.45512      975.45512      975.45512      2012.2724      2987.7276      2012.2724      2987.7276      2012.2724      2987.7276      9.2815793e+08  0.1            20026280       1.288616       997.01896      9970.205       8.7787077    
  60218000   51244.644     -21.942657     -43212400       0.67957067     137322.74     -43075078       975.45512      975.45512      975.45512      2012.2724      2987.7276      2012.2724      2987.7276      2012.2724      2987.7276      9.2815793e+08  0.1            20026300       1.3088707      987.42719      9874.2495      8.7593766    
  60218200   52197.868     -22.514044     -43213319       0.67957067     139877.14     -43073442       975.45512      975.45512      975.45512      2012.2724      2987.7276      2012.2724      2987.7276      2012.2724      2987.7276      9.2815793e+08  0.1            20026320       1.3287704      1005.0431      10050.477      8.7376816    
  60218400   52896.972     -23.122558     -43214240       0.67957067     141750.57     -43072490       975.45512      975.45512      975.45512      2012.2724      2987.7276      2012.2724      2987.7276      2012.2724      2987.7276      9.2815793e+08  0.1            20026340       1.3491794      979.96227      9799.603       8.7193332    
  60218600   53341.345     -23.76784      -43215160       0.67957067     142941.37     -43072219       975.45512      975.45512      975.45512      2012.2724      2987.7276      2012.2724      2987.7276      2012.2724      2987.7276      9.2815793e+08  0.1            20026360       1.3692411      996.92171      9969.2156      8.6987179    
  60218800   53553.57      -24.454115     -43216078       0.67957067     143510.08     -43072568       975.45512      975.45512      975.45512      2012.2724      2987.7276      2012.2724      2987.7276      2012.2724      2987.7276      9.2815793e+08  0.1            20026380       1.3892668      998.71989      9987.2054      8.6778932    
  60219000   53578.202     -25.319012     -43224370       0.67957067     143576.09     -43080793       975.45512      975.45512      975.45512      2012.2724      2987.7276      2012.2724      2987.7276      2012.2724      2987.7276      9.2815793e+08  0.1            20026400       1.4093352      996.59076      9965.9061      8.6573539    
  60219200   53476.883     -26.053303     -43225278       0.67957067     143304.58     -43081974       975.45512      975.45512      975.45512      2012.2724      2987.7276      2012.2724      2987.7276      2012.2724      2987.7276      9.2815793e+08  0.1            20026420       1.4292404      1004.7609      10047.645      8.6358413    
  60219400   53320.068     -26.791918     -43226180       0.67957067     142884.36     -43083296       975.45512      975.45512      975.45512      2012.2724      2987.7276      2012.2724      2987.7276      2012.2724      2987.7276      9.2815793e+08  0.1            20026440       1.4491379      1005.1507      10051.504      8.6143281    
  60219600   53179.987     -27.520089     -43227075       0.67957067     142508.98     -43084566       975.45512      975.45512      975.45512      2012.2724      2987.7276      2012.2724      2987.7276      2012.2724      2987.7276      9.2815793e+08  0.1            20026460       1.4692342      995.20783      9952.0376      8.5940228    
  60219800   53124.096     -28.217822     -43227965       0.67957067     142359.2      -43085605       975.45512      975.45512      975.45512      2012.2724      2987.7276      2012.2724      2987.7276      2012.2724      2987.7276      9.2815793e+08  0.1            20026480       1.4892707      998.18096      9981.8126      8.5733777    
  60220000   53211.07      -28.870806     -43228849       0.67957067     142592.27     -43086256       975.45512      975.45512      975.45512      2012.2724      2987.7276      2012.2724      2987.7276      2012.2724      2987.7276      9.2815793e+08  0.1            20026500       1.5093957      993.78719      9937.8749      8.553251     
  60220200   53488.991     -29.322231     -43222351       0.67957067     143337.03     -43079014       975.45512      975.45512      975.45512      2012.2724      2987.7276      2012.2724      2987.7276      2012.2724      2987.7276      9.2815793e+08  0.1            20026520       1.5292935      1005.1356      10051.367      8.5318562    
  60220400   53993.184     -29.853835     -43223228       0.67957067     144688.14     -43078540       975.45512      975.45512      975.45512      2012.2724      2987.7276      2012.2724      2987.7276      2012.2724      2987.7276      9.2815793e+08  0.1            20026540       1.549187       1005.3512      10053.527      8.510477     
  60220600   54744.553     -30.04433      -43209349       0.67957067     146701.62     -43062648       975.45512      975.45512      975.45512      2012.2724      2987.7276      2012.2724      2987.7276      2012.2724      2987.7276      9.2815793e+08  0.1            20026560       1.5692381      997.4542       9974.4798      8.4899892    
  60220800   55746.419     -30.500119     -43210227       0.67957067     149386.37     -43060841       975.45512      975.45512      975.45512      2012.2724      2987.7276      2012.2724      2987.7276      2012.2724      2987.7276      9.2815793e+08  0.1            20026580       1.589274       998.20622      9982.0976      8.4694306    
  60221000   56982.856     -30.948045     -43211109       0.67957067     152699.71     -43058409       975.45512      975.45512      975.45512      2012.2724      2987.7276      2012.2724      2987.7276      2012.2724      2987.7276      9.2815793e+08  0.1            20026600       1.6093251      997.45629      9974.5494      8.4489646    
  60221200   58418.412     -31.370698     -43211995       0.67957067     156546.64     -43055448       975.45512      975.45512      975.45512      2012.2724      2987.7276      2012.2724      2987.7276      2012.2724      2987.7276      9.2815793e+08  0.1            20026620       1.6292052      1006.027       10060.314      8.4276242    
  60221400   59999.647     -31.759247     -43212887       0.67957067     160783.95     -43052103       975.45512      975.45512      975.45512      2012.2724      2987.7276      2012.2724      2987.7276      2012.2724      2987.7276      9.2815793e+08  0.1            20026640       1.6490691      1006.8551      10068.548      8.4062373    
  60221600   61660.168     -32.152723     -43213784       0.67957067     165233.73     -43048550       975.45512      975.45512      975.45512      2012.2724      2987.7276      2012.2724      2987.7276      2012.2724      2987.7276      9.2815793e+08  0.1            20026660       1.669137       996.61251      9966.0909      8.3859132    
  60221800   63327.232     -32.586474     -43214686       0.67957067     169701.04     -43044985       975.45512      975.45512      975.45512      2012.2724      2987.7276      2012.2724      2987.7276      2012.2724      2987.7276      9.2815793e+08  0.1            20026680       1.6891307      1000.3189      10003.219      8.3652256    
  60222000   64927.335     -33.066741     -43215595       0.67957067     173988.91     -43041606       975.45512      975.45512      975.45512      2012.2724      2987.7276      2012.2724      2987.7276      2012.2724      2987.7276      9.2815793e+08  0.1            20026700       1.7092173      995.68688      9956.8356      8.3450097    
  60222200   66391.615     -33.581378     -43216508       0.67957067     177912.81     -43038595       975.45512      975.45512      975.45512      2012.2724      2987.7276      2012.2724      2987.7276      2012.2724      2987.7276      9.2815793e+08  0.1            20026720       1.7290803      1006.8972      10069.008      8.3237189    
  60222400   67659.832     -33.970955     -43210046       0.67957067     181311.32     -43028735       975.45512      975.45512      975.45512      2012.2724      2987.7276      2012.2724      2987.7276      2012.2724      2987.7276      9.2815793e+08  0.1            20026740       1.7491586      996.1029       9960.9838      8.3034843    
  60222600   68685.858     -34.359887     -43203587       0.67957067     184060.81     -43019526       975.45512      975.45512      975.45512      2012.2724      2987.7276      2012.2724      2987.7276      2012.2724      2987.7276      9.2815793e+08  0.1            20026760       1.7691944      998.21325      9982.1395      8.2830536    
  60222800   69441.603     -34.454061     -43182371       0.67957067     186086.01     -42996285       975.45512      975.45512      975.45512      2012.2724      2987.7276      2012.2724      2987.7276      2012.2724      2987.7276      9.2815793e+08  0.1            20026780       1.7892492      997.26639      9972.657       8.2627199    
  60223000   69920.957     -35.015099     -43183285       0.67957067     187370.56     -42995914       975.45512      975.45512      975.45512      2012.2724      2987.7276      2012.2724      2987.7276      2012.2724      2987.7276      9.2815793e+08  0.1            20026800       1.809289       998.01221      9980.1321      8.2423237    
  60223200   70143.19      -35.630306     -43184193       0.67957067     187966.09     -42996227       975.45512      975.45512      975.45512      2012.2724      2987.7276      2012.2724      2987.7276      2012.2724      2987.7276      9.2815793e+08  0.1            20026820       1.8291744      1005.7625      10057.661      8.2212408    
  60223400   70151.429     -36.277309     -43185095       0.67957067     187988.17     -42997106       975.45512      975.45512      975.45512      2012.2724      2987.7276      2012.2724      2987.7276      2012.2724      2987.7276      9.2815793e+08  0.1            20026840       1.8496129      978.54396      9785.3955      8.2026382    
  60223600   70007.634     -36.941109     -43185988       0.67957067     187602.83     -42998386       975.45512      975.45512      975.45512      2012.2724      2987.7276      2012.2724      2987.7276      2012.2724      2987.7276      9.2815793e+08  0.1            20026860       1.8697648      992.46392      9924.6486      8.182741     
  60223800   69786.172     -37.614069     -43186874       0.67957067     187009.37     -42999865       975.45512      975.45512      975.45512      2012.2724      2987.7276      2012.2724      2987.7276      2012.2724      2987.7276      9.2815793e+08  0.1            20026880       1.8898682      994.85872      9948.5842      8.1626288    
  60224000   69565.053     -38.125054     -43180375       0.67957067     186416.83     -42993958       975.45512      975.45512      975.45512      2012.2724      2987.7276      2012.2724      2987.7276      2012.2724      2987.7276      9.2815793e+08  0.1            20026900       1.910054       990.79428      9907.9536      8.1428683    
  60224200   69418.8       -38.748843     -43181244       0.67957067     186024.91     -42995219       975.45512      975.45512      975.45512      2012.2724      2987.7276      2012.2724      2987.7276      2012.2724      2987.7276      9.2815793e+08  0.1            20026920       1.9300037      1002.5202      10025.218      8.1221052    
  60224400   69413.658     -39.341948     -43182105       0.67957067     186011.13     -42996094       975.45512      975.45512      975.45512      2012.2724      2987.7276      2012.2724      2987.7276      2012.2724      2987.7276      9.2815793e+08  0.1            20026940       1.9499651      1001.9343      10019.34       8.1014077    
  60224600   69604.843     -39.770657     -43175580       0.67957067     186523.46     -42989057       975.45512      975.45512      975.45512      2012.2724      2987.7276      2012.2724      2987.7276      2012.2724      2987.7276      9.2815793e+08  0.1            20026960       1.9701596      990.36817      9903.669       8.0816816    
  60224800   70034.351     -40.153445     -43169050       0.67957067     187674.43     -42981376       975.45512      975.45512      975.45512      2012.2724      2987.7276      2012.2724      2987.7276      2012.2724      2987.7276      9.2815793e+08  0.1            20026980       1.9902451      995.74364      9957.4231      8.0615043    
  60225000   70728.106     -40.744368     -43177273       0.67957067     189533.52     -42987740       975.45512      975.45512      975.45512      2012.2724      2987.7276      2012.2724      2987.7276      2012.2724      2987.7276      9.2815793e+08  0.1            20027000       2.0103691      993.83909      9938.4062      8.0414825    
  60225200   71693.406     -41.090659     -43178116       0.67957067     192120.28     -42985995       975.45512      975.45512      975.45512      2012.2724      2987.7276      2012.2724      2987.7276      2012.2724      2987.7276      9.2815793e+08  0.1            20027020       2.0303145      1002.7335      10027.348      8.0207533    
  60225400   72917.096     -41.34974      -43178956       0.67957067     195399.46     -42983557       975.45512      975.45512      975.45512      2012.2724      2987.7276      2012.2724      2987.7276      2012.2724      2987.7276      9.2815793e+08  0.1            20027040       2.0502115      1005.1823      10051.831      7.9998503    
  60225600   74365.093     -41.560831     -43179795       0.67957067     199279.73     -42980516       975.45512      975.45512      975.45512      2012.2724      2987.7276      2012.2724      2987.7276      2012.2724      2987.7276      9.2815793e+08  0.1            20027060       2.0703174      994.73215      9947.2863      7.979773     
  60225800   75984.117     -41.76774      -43180635       0.67957067     203618.3      -42977016       975.45512      975.45512      975.45512      2012.2724      2987.7276      2012.2724      2987.7276      2012.2724      2987.7276      9.2815793e+08  0.1            20027080       2.090371       997.32502      9973.2657      7.9594955    
  60226000   77705.75      -41.85226      -43174097       0.67957067     208231.85     -42965865       975.45512      975.45512      975.45512      2012.2724      2987.7276      2012.2724      2987.7276      2012.2724      2987.7276      9.2815793e+08  0.1            20027100       2.11056        990.63317      9906.3228      7.939732     
  60226200   79452.905     -42.121712     -43174938       0.67957067     212913.78     -42962025       975.45512      975.45512      975.45512      2012.2724      2987.7276      2012.2724      2987.7276      2012.2724      2987.7276      9.2815793e+08  0.1            20027120       2.1304777      1004.1382      10041.423      7.9189507    
  60226400   81145.214     -42.438366     -43175781       0.67957067     217448.75     -42958332       975.45512      975.45512      975.45512      2012.2724      2987.7276      2012.2724      2987.7276      2012.2724      2987.7276      9.2815793e+08  0.1            20027140       2.1504325      1002.2619      10022.611      7.8983229    
  60226600   82705.987     -42.807836     -43176625       0.67957067     221631.22     -42954994       975.45512      975.45512      975.45512      2012.2724      2987.7276      2012.2724      2987.7276      2012.2724      2987.7276      9.2815793e+08  0.1            20027160       2.1705406      994.62534      9946.2114      7.8782644    
  60226800   84067.574     -43.065448     -43170092       0.67957067     225279.93     -42944812       975.45512      975.45512      975.45512      2012.2724      2987.7276      2012.2724      2987.7276      2012.2724      2987.7276      9.2815793e+08  0.1            20027180       2.1907115      991.53128      9915.3202      7.8584292    
  60227000   85175.904     -43.186902     -43156180       0.67957067     228249.98     -42927930       975.45512      975.45512      975.45512      2012.2724      2987.7276      2012.2724      2987.7276      2012.2724      2987.7276      9.2815793e+08  0.1            20027200       2.2108049      995.35002      9953.5072      7.8383137    
  60227200   85996.875     -43.6303       -43157020       0.67957067     230449.97     -42926570       975.45512      975.45512      975.45512      2012.2724      2987.7276      2012.2724      2987.7276      2012.2724      2987.7276      9.2815793e+08  0.1            20027220       2.2306913      1005.7151      10057.185      7.8174725    
  60227400   86519.225     -44.119459     -43157855       0.67957067     231849.74     -42926005       975.45512      975.45512      975.45512      2012.2724      2987.7276      2012.2724      2987.7276      2012.2724      2987.7276      9.2815793e+08  0.1            20027240       2.2506022      1004.4734      10044.722      7.796734     
  60227600   86758.075     -44.753688     -43166060       0.67957067     232489.8      -42933570       975.45512      975.45512      975.45512      2012.2724      2987.7276      2012.2724      2987.7276      2012.2724      2987.7276      9.2815793e+08  0.1            20027260       2.27073        993.64687      9936.446       7.7767534    
  60227800   86754.276     -44.923097     -43152123       0.67957067     232479.62     -42919643       975.45512      975.45512      975.45512      2012.2724      2987.7276      2012.2724      2987.7276      2012.2724      2987.7276      9.2815793e+08  0.1            20027280       2.2909524      989.00347      9890.0445      7.7570897    
  60228000   86569.881     -45.379694     -43152931       0.67957067     231985.49     -42920945       975.45512      975.45512      975.45512      2012.2724      2987.7276      2012.2724      2987.7276      2012.2724      2987.7276      9.2815793e+08  0.1            20027300       2.3111824      988.62855      9886.2527      7.7374424    
  60228200   86282.172     -45.861292     -43153727       0.67957067     231214.5      -42922512       975.45512      975.45512      975.45512      2012.2724      2987.7276      2012.2724      2987.7276      2012.2724      2987.7276      9.2815793e+08  0.1            20027320       2.3310822      1005.0366      10050.413      7.7166908    
  60228400   85975.185     -46.249448     -43147134       0.67957067     230391.85     -42916742       975.45512      975.45512      975.45512      2012.2724      2987.7276      2012.2724      2987.7276      2012.2724      2987.7276      9.2815793e+08  0.1            20027340       2.3516274      973.46756      9734.6381      7.6980674    
  60228600   85731.589     -46.657787     -43140532       0.67957067     229739.07     -42910793       975.45512      975.45512      975.45512      2012.2724      2987.7276      2012.2724      2987.7276      2012.2724      2987.7276      9.2815793e+08  0.1            20027360       2.3717549      993.66267      9936.6366      7.6780591    
  60228800   85626.379     -47.313002     -43148676       0.67957067     229457.14     -42919219       975.45512      975.45512      975.45512      2012.2724      2987.7276      2012.2724      2987.7276      2012.2724      2987.7276      9.2815793e+08  0.1            20027380       2.3918304      996.24212      9962.4366      7.6578818    
  60229000   85722.592     -47.601628     -43142057       0.67957067     229714.96     -42912342       975.45512      975.45512      975.45512      2012.2724      2987.7276      2012.2724      2987.7276      2012.2724      2987.7276      9.2815793e+08  0.1            20027400       2.4119671      993.20829      9932.0686      7.6379008    
  60229200   86069.043     -47.822897     -43135430       0.67957067     230643.37     -42904787       975.45512      975.45512      975.45512      2012.2724      2987.7276      2012.2724      2987.7276      2012.2724      2987.7276      9.2815793e+08  0.1            20027420       2.4321343      991.71246      9917.1275      7.6180121    
  60229400   86697.272     -47.847124     -43121419       0.67957067     232326.86     -42889093       975.45512      975.45512      975.45512      2012.2724      2987.7276      2012.2724      2987.7276      2012.2724      2987.7276      9.2815793e+08  0.1            20027440       2.4520716      1003.1432      10031.464      7.5974065    
  60229600   87619.025     -48.12453      -43122158       0.67957067     234796.93     -42887362       975.45512      975.45512      975.45512      2012.2724      2987.7276      2012.2724      2987.7276      2012.2724      2987.7276      9.2815793e+08  0.1            20027460       2.4721454      996.32158      9963.1974      7.5772308    
  60229800   88824.627     -48.375283     -43122893       0.67957067     238027.64     -42884865       975.45512      975.45512      975.45512      2012.2724      2987.7276      2012.2724      2987.7276      2012.2724      2987.7276      9.2815793e+08  0.1            20027480       2.4922141      996.57626      9965.7537      7.5570411    
  60230000   90281.608     -48.590605     -43123623       0.67957067     241931.98     -42881691       975.45512      975.45512      975.45512      2012.2724      2987.7276      2012.2724      2987.7276      2012.2724      2987.7276      9.2815793e+08  0.1            20027500       2.5123713      992.20563      9922.0617      7.5371183    
  60230200   91936.304     -48.619405     -43116973       0.67957067     246366.15     -42870607       975.45512      975.45512      975.45512      2012.2724      2987.7276      2012.2724      2987.7276      2012.2724      2987.7276      9.2815793e+08  0.1            20027520       2.5323733      999.89851      9998.9916      7.5167315    
  60230400   93717.443     -48.80246      -43117696       0.67957067     251139.15     -42866557       975.45512      975.45512      975.45512      2012.2724      2987.7276      2012.2724      2987.7276      2012.2724      2987.7276      9.2815793e+08  0.1            20027540       2.5524145      997.94264      9979.404       7.496466     
  60230600   95542.987     -49.021208     -43118416       0.67957067     256031.15     -42862385       975.45512      975.45512      975.45512      2012.2724      2987.7276      2012.2724      2987.7276      2012.2724      2987.7276      9.2815793e+08  0.1            20027560       2.5725547      993.03835      9930.3959      7.4764916    
  60230800   97326.62      -49.228828     -43119134       0.67957067     260810.84     -42858323       975.45512      975.45512      975.45512      2012.2724      2987.7276      2012.2724      2987.7276      2012.2724      2987.7276      9.2815793e+08  0.1            20027580       2.5926333      996.08762      9960.8841      7.4563372    
  60231000   98984.353     -49.417679     -43119849       0.67957067     265253.14     -42854596       975.45512      975.45512      975.45512      2012.2724      2987.7276      2012.2724      2987.7276      2012.2724      2987.7276      9.2815793e+08  0.1            20027600       2.6127841      992.51451      9925.1298      7.43639      
  60231200   100441.12     -49.585963     -43120559       0.67957067     269156.92     -42851402       975.45512      975.45512      975.45512      2012.2724      2987.7276      2012.2724      2987.7276      2012.2724      2987.7276      9.2815793e+08  0.1            20027620       2.6327292      1002.7553      10027.573      7.4158596    
  60231400   101636.04     -49.629121     -43113886       0.67957067     272358.99     -42841527       975.45512      975.45512      975.45512      2012.2724      2987.7276      2012.2724      2987.7276      2012.2724      2987.7276      9.2815793e+08  0.1            20027640       2.6526582      1003.5637      10035.643      7.3952934    
  60231600   102528.21     -49.871508     -43114584       0.67957067     274749.8      -42839835       975.45512      975.45512      975.45512      2012.2724      2987.7276      2012.2724      2987.7276      2012.2724      2987.7276      9.2815793e+08  0.1            20027660       2.6727464      995.60802      9956.0763      7.3751765    
  60231800   103101.16     -50.0068       -43107897       0.67957067     276285.14     -42831612       975.45512      975.45512      975.45512      2012.2724      2987.7276      2012.2724      2987.7276      2012.2724      2987.7276      9.2815793e+08  0.1            20027680       2.6928132      996.67072      9966.6928      7.3550013    
  60232000   103365.43     -50.289762     -43108578       0.67957067     276993.33     -42831585       975.45512      975.45512      975.45512      2012.2724      2987.7276      2012.2724      2987.7276      2012.2724      2987.7276      9.2815793e+08  0.1            20027700       2.7129627      992.57943      9925.7815      7.3350515    
  60232200   103359.01     -50.565841     -43109248       0.67957067     276976.12     -42832271       975.45512      975.45512      975.45512      2012.2724      2987.7276      2012.2724      2987.7276      2012.2724      2987.7276      9.2815793e+08  0.1            20027720       2.7329027      1003.0098      10030.146      7.3145374    
  60232400   103144.01     -51.009415     -43117283       0.67957067     276399.98     -42840883       975.45512      975.45512      975.45512      2012.2724      2987.7276      2012.2724      2987.7276      2012.2724      2987.7276      9.2815793e+08  0.1            20027740       2.7528281      1003.7452      10037.45       7.2939935    
  60232600   102800.85     -51.36915      -43117931       0.67957067     275480.41     -42842451       975.45512      975.45512      975.45512      2012.2724      2987.7276      2012.2724      2987.7276      2012.2724      2987.7276      9.2815793e+08  0.1            20027760       2.7729723      992.83856      9928.3437      7.2740329    
  60232800   102417.96     -51.921569     -43125946       0.67957067     274454.35     -42851492       975.45512      975.45512      975.45512      2012.2724      2987.7276      2012.2724      2987.7276      2012.2724      2987.7276      9.2815793e+08  0.1            20027780       2.7930319      997.0303       9970.297       7.2538495    
  60233000   102084.3      -52.20283      -43119196       0.67957067     273560.21     -42845636       975.45512      975.45512      975.45512      2012.2724      2987.7276      2012.2724      2987.7276      2012.2724      2987.7276      9.2815793e+08  0.1            20027800       2.8140212      952.86378      9528.6337      7.2360586    
  60233200   101882.72     -52.457055     -43112437       0.67957067     273020.05     -42839417       975.45512      975.45512      975.45512      2012.2724      2987.7276      2012.2724      2987.7276      2012.2724      2987.7276      9.2815793e+08  0.1            20027820       2.8339444      1003.857       10038.604      7.2155076    
  60233400   101884.16     -52.91479      -43120424       0.67957067     273023.91     -42847400       975.45512      975.45512      975.45512      2012.2724      2987.7276      2012.2724      2987.7276      2012.2724      2987.7276      9.2815793e+08  0.1            20027840       2.8538816      1003.1504      10031.52       7.1950009    
  60233600   102144.33     -53.281437     -43128402       0.67957067     273721.1      -42854681       975.45512      975.45512      975.45512      2012.2724      2987.7276      2012.2724      2987.7276      2012.2724      2987.7276      9.2815793e+08  0.1            20027860       2.8739782      995.19436      9951.902       7.1749005    
  60233800   102701.42     -53.878429     -43151128       0.67957067     275213.94     -42875914       975.45512      975.45512      975.45512      2012.2724      2987.7276      2012.2724      2987.7276      2012.2724      2987.7276      9.2815793e+08  0.1            20027880       2.8940427      996.78328      9967.8532      7.1547205    
  60234000   103572.2      -54.015268     -43151714       0.67957067     277547.42     -42874167       975.45512      975.45512      975.45512      2012.2724      2987.7276      2012.2724      2987.7276      2012.2724      2987.7276      9.2815793e+08  0.1            20027900       2.9143321      985.73877      9857.3732      7.1350927    
  60234200   104750.82     -54.136883     -43152294       0.67957067     280705.83     -42871588       975.45512      975.45512      975.45512      2012.2724      2987.7276      2012.2724      2987.7276      2012.2724      2987.7276      9.2815793e+08  0.1            20027920       2.9342585      1003.695       10036.985      7.1145753    
  60234400   106206.84     -54.22151      -43152869       0.67957067     284607.59     -42868261       975.45512      975.45512      975.45512      2012.2724      2987.7276      2012.2724      2987.7276      2012.2724      2987.7276      9.2815793e+08  0.1            20027940       2.9542588      999.9814       9999.786       7.0942442    
  60234600   107886.38     -54.390843     -43160816       0.67957067     289108.34     -42871708       975.45512      975.45512      975.45512      2012.2724      2987.7276      2012.2724      2987.7276      2012.2724      2987.7276      9.2815793e+08  0.1            20027960       2.9745006      988.05457      9880.532       7.0744917    
  60234800   109716.55     -54.343766     -43161380       0.67957067     294012.72     -42867368       975.45512      975.45512      975.45512      2012.2724      2987.7276      2012.2724      2987.7276      2012.2724      2987.7276      9.2815793e+08  0.1            20027980       2.9945812      995.98732      9959.8751      7.0543526    
  60235000   111611.04     -54.387641     -43169318       0.67957067     299089.49     -42870228       975.45512      975.45512      975.45512      2012.2724      2987.7276      2012.2724      2987.7276      2012.2724      2987.7276      9.2815793e+08  0.1            20028000       3.0147101      993.59647      9935.9568      7.0343272    
  60235200   113478.05     -54.160607     -43162493       0.67957067     304092.59     -42858400       975.45512      975.45512      975.45512      2012.2724      2987.7276      2012.2724      2987.7276      2012.2724      2987.7276      9.2815793e+08  0.1            20028020       3.0346381      1003.6124      10036.15       7.0138358    
  60235400   115227.15     -54.315929     -43170418       0.67957067     308779.76     -42861638       975.45512      975.45512      975.45512      2012.2724      2987.7276      2012.2724      2987.7276      2012.2724      2987.7276      9.2815793e+08  0.1            20028040       3.0546851      997.65436      9976.5292      6.9936247    
  60235600   116776.79     -54.44313      -43170959       0.67957067     312932.4      -42858027       975.45512      975.45512      975.45512      2012.2724      2987.7276      2012.2724      2987.7276      2012.2724      2987.7276      9.2815793e+08  0.1            20028060       3.0748047      994.05402      9940.551       6.9735802    
  60235800   118059.72     -54.636828     -43171495       0.67957067     316370.33     -42855125       975.45512      975.45512      975.45512      2012.2724      2987.7276      2012.2724      2987.7276      2012.2724      2987.7276      9.2815793e+08  0.1            20028080       3.0950469      988.037        9880.3431      6.9538102    
  60236000   119028.44     -54.844344     -43172024       0.67957067     318966.24     -42853058       975.45512      975.45512      975.45512      2012.2724      2987.7276      2012.2724      2987.7276      2012.2724      2987.7276      9.2815793e+08  0.1            20028100       3.1153031      987.34705      9873.4978      6.9340654    
  60236200   119660.45     -55.036787     -43172544       0.67957067     320659.88     -42851884       975.45512      975.45512      975.45512      2012.2724      2987.7276      2012.2724      2987.7276      2012.2724      2987.7276      9.2815793e+08  0.1            20028120       3.1352456      1002.8873      10028.901      6.9136217    
  60236400   119961.41     -55.38237      -43180432       0.67957067     321466.38     -42858965       975.45512      975.45512      975.45512      2012.2724      2987.7276      2012.2724      2987.7276      2012.2724      2987.7276      9.2815793e+08  0.1            20028140       3.1551849      1003.0432      10030.432      6.8931779    
  60236600   119965.73     -55.471925     -43173553       0.67957067     321477.95     -42852075       975.45512      975.45512      975.45512      2012.2724      2987.7276      2012.2724      2987.7276      2012.2724      2987.7276      9.2815793e+08  0.1            20028160       3.1752882      994.86253      9948.5768      6.8730956    
  60236800   119734.27     -55.723723     -43174043       0.67957067     320857.7      -42853185       975.45512      975.45512      975.45512      2012.2724      2987.7276      2012.2724      2987.7276      2012.2724      2987.7276      9.2815793e+08  0.1            20028180       3.1954476      992.09459      9920.972       6.853133     
  60237000   119347.58     -55.983529     -43174522       0.67957067     319821.47     -42854700       975.45512      975.45512      975.45512      2012.2724      2987.7276      2012.2724      2987.7276      2012.2724      2987.7276      9.2815793e+08  0.1            20028200       3.2161407      966.50341      9665.0219      6.8343023    
  60237200   118898.36     -56.397144     -43182369       0.67957067     318617.67     -42863751       975.45512      975.45512      975.45512      2012.2724      2987.7276      2012.2724      2987.7276      2012.2724      2987.7276      9.2815793e+08  0.1            20028220       3.236067       1003.6979      10037.003      6.8138337    
  60237400   118481.65     -56.491283     -43175451       0.67957067     317500.98     -42857950       975.45512      975.45512      975.45512      2012.2724      2987.7276      2012.2724      2987.7276      2012.2724      2987.7276      9.2815793e+08  0.1            20028240       3.2560967      998.52024      9985.182       6.7935877    
  60237600   118186.95     -56.361326     -43161146       0.67957067     316711.27     -42844434       975.45512      975.45512      975.45512      2012.2724      2987.7276      2012.2724      2987.7276      2012.2724      2987.7276      9.2815793e+08  0.1            20028260       3.2762352      993.12144      9931.2031      6.7735694    
  60237800   118092.78     -56.146376     -43146830       0.67957067     316458.93     -42830371       975.45512      975.45512      975.45512      2012.2724      2987.7276      2012.2724      2987.7276      2012.2724      2987.7276      9.2815793e+08  0.1            20028280       3.2964845      987.68954      9876.8876      6.7537764    
  60238000   118262.01     -56.175275     -43147259       0.67957067     316912.41     -42830347       975.45512      975.45512      975.45512      2012.2724      2987.7276      2012.2724      2987.7276      2012.2724      2987.7276      9.2815793e+08  0.1            20028300       3.3168776      980.7245       9807.2488      6.7342698    
  60238200   118739.85     -56.06596      -43140301       0.67957067     318192.91     -42822108       975.45512      975.45512      975.45512      2012.2724      2987.7276      2012.2724      2987.7276      2012.2724      2987.7276      9.2815793e+08  0.1            20028320       3.3368107      1003.3532      10033.567      6.713827     
  60238400   119549.62     -55.968391     -43133336       0.67957067     320362.89     -42812973       975.45512      975.45512      975.45512      2012.2724      2987.7276      2012.2724      2987.7276      2012.2724      2987.7276      9.2815793e+08  0.1            20028340       3.3567459      1003.2523      10032.537      6.6933944    
  60238600   120689.78     -55.93748      -43133743       0.67957067     323418.21     -42810325       975.45512      975.45512      975.45512      2012.2724      2987.7276      2012.2724      2987.7276      2012.2724      2987.7276      9.2815793e+08  0.1            20028360       3.3768481      994.91504      9949.1222      6.6732981    
  60238800   122132.36     -55.605426     -43126765       0.67957067     327283.96     -42799482       975.45512      975.45512      975.45512      2012.2724      2987.7276      2012.2724      2987.7276      2012.2724      2987.7276      9.2815793e+08  0.1            20028380       3.3969119      996.82243      9968.2039      6.6531264    
  60239000   123824.7      -55.037909     -43112404       0.67957067     331819.01     -42780585       975.45512      975.45512      975.45512      2012.2724      2987.7276      2012.2724      2987.7276      2012.2724      2987.7276      9.2815793e+08  0.1            20028400       3.4170153      994.85748      9948.5827      6.6330326    
  60239200   125692.65     -54.781248     -43112793       0.67957067     336824.66     -42775968       975.45512      975.45512      975.45512      2012.2724      2987.7276      2012.2724      2987.7276      2012.2724      2987.7276      9.2815793e+08  0.1            20028420       3.4369422      1003.6667      10036.7        6.6125992    
  60239400   127647.16     -54.549228     -43113176       0.67957067     342062.25     -42771114       975.45512      975.45512      975.45512      2012.2724      2987.7276      2012.2724      2987.7276      2012.2724      2987.7276      9.2815793e+08  0.1            20028440       3.4568656      1003.8469      10038.468      6.592165     
  60239600   129591.74     -54.009666     -43098799       0.67957067     347273.25     -42751526       975.45512      975.45512      975.45512      2012.2724      2987.7276      2012.2724      2987.7276      2012.2724      2987.7276      9.2815793e+08  0.1            20028460       3.4769818      994.22015      9942.199       6.5721014    
  60239800   131429.89     -53.651979     -43091794       0.67957067     352199.01     -42739595       975.45512      975.45512      975.45512      2012.2724      2987.7276      2012.2724      2987.7276      2012.2724      2987.7276      9.2815793e+08  0.1            20028480       3.4970808      995.07438      9950.73        6.552005     
  60240000   133073.33     -53.42121      -43084783       0.67957067     356603.01     -42728180       975.45512      975.45512      975.45512      2012.2724      2987.7276      2012.2724      2987.7276      2012.2724      2987.7276      9.2815793e+08  0.1            20028500       3.5171888      994.6291       9946.291       6.5319249    
  60240200   134448.47     -53.39862      -43085144       0.67957067     360288.06     -42724856       975.45512      975.45512      975.45512      2012.2724      2987.7276      2012.2724      2987.7276      2012.2724      2987.7276      9.2815793e+08  0.1            20028520       3.5371116      1003.8778      10038.784      6.5115035    
  60240400   135500.95     -53.341351     -43085499       0.67957067     363108.43     -42722390       975.45512      975.45512      975.45512      2012.2724      2987.7276      2012.2724      2987.7276      2012.2724      2987.7276      9.2815793e+08  0.1            20028540       3.5570265      1004.2712      10042.731      6.4910735    
  60240600   136201.63     -53.259339     -43085844       0.67957067     364986.07     -42720858       975.45512      975.45512      975.45512      2012.2724      2987.7276      2012.2724      2987.7276      2012.2724      2987.7276      9.2815793e+08  0.1            20028560       3.5770907      996.80077      9967.9679      6.4709197    
  60240800   136550.55     -53.192301     -43086180       0.67957067     365921.11     -42720259       975.45512      975.45512      975.45512      2012.2724      2987.7276      2012.2724      2987.7276      2012.2724      2987.7276      9.2815793e+08  0.1            20028580       3.5976321      973.64248      9736.4077      6.4516225    
  60241000   136577.85     -53.446273     -43101262       0.67957067     365994.25     -42735268       975.45512      975.45512      975.45512      2012.2724      2987.7276      2012.2724      2987.7276      2012.2724      2987.7276      9.2815793e+08  0.1            20028600       3.6177395      994.66126      9946.6224      6.4315396    
  60241200   136342.7      -53.795309     -43116337       0.67957067     365364.12     -42750973       975.45512      975.45512      975.45512      2012.2724      2987.7276      2012.2724      2987.7276      2012.2724      2987.7276      9.2815793e+08  0.1            20028620       3.6376679      1003.5928      10035.967      6.411141     
  60241400   135925.11     -53.946039     -43116648       0.67957067     364245.06     -42752403       975.45512      975.45512      975.45512      2012.2724      2987.7276      2012.2724      2987.7276      2012.2724      2987.7276      9.2815793e+08  0.1            20028640       3.6575989      1003.4622      10034.633      6.3907521    
  60241600   135419.84     -54.110391     -43116951       0.67957067     362891.07     -42754060       975.45512      975.45512      975.45512      2012.2724      2987.7276      2012.2724      2987.7276      2012.2724      2987.7276      9.2815793e+08  0.1            20028660       3.677733       993.33324      9933.293       6.3707207    
  60241800   134926.9      -54.085653     -43109869       0.67957067     361570.12     -42748299       975.45512      975.45512      975.45512      2012.2724      2987.7276      2012.2724      2987.7276      2012.2724      2987.7276      9.2815793e+08  0.1            20028680       3.6978131      996.01192      9960.1256      6.3505948    
  60242000   134543.31     -53.821695     -43095403       0.67957067     360542.19     -42734860       975.45512      975.45512      975.45512      2012.2724      2987.7276      2012.2724      2987.7276      2012.2724      2987.7276      9.2815793e+08  0.1            20028700       3.7179696      992.24127      9922.4156      6.3305994    
  60242200   134355.54     -54.019626     -43110442       0.67957067     360039.02     -42750403       975.45512      975.45512      975.45512      2012.2724      2987.7276      2012.2724      2987.7276      2012.2724      2987.7276      9.2815793e+08  0.1            20028720       3.7379034      1003.32        10033.187      6.3102265    
  60242400   134434.33     -53.527537     -43095965       0.67957067     360250.16     -42735715       975.45512      975.45512      975.45512      2012.2724      2987.7276      2012.2724      2987.7276      2012.2724      2987.7276      9.2815793e+08  0.1            20028740       3.7578355      1003.4031      10034.079      6.2898554    
  60242600   134830.3      -53.254802     -43096235       0.67957067     361311.25     -42734924       975.45512      975.45512      975.45512      2012.2724      2987.7276      2012.2724      2987.7276      2012.2724      2987.7276      9.2815793e+08  0.1            20028760       3.7779376      994.92464      9949.2038      6.2697713    
  60242800   135572.56     -53.123674     -43103877       0.67957067     363300.32     -42740577       975.45512      975.45512      975.45512      2012.2724      2987.7276      2012.2724      2987.7276      2012.2724      2987.7276      9.2815793e+08  0.1            20028780       3.7980154      996.12289      9961.2488      6.2496469    
  60243000   136664.9      -53.000808     -43111515       0.67957067     366227.52     -42745287       975.45512      975.45512      975.45512      2012.2724      2987.7276      2012.2724      2987.7276      2012.2724      2987.7276      9.2815793e+08  0.1            20028800       3.8182925      986.33628      9863.3322      6.2298482    
  60243200   138083.46     -52.752139     -43111770       0.67957067     370028.92     -42741741       975.45512      975.45512      975.45512      2012.2724      2987.7276      2012.2724      2987.7276      2012.2724      2987.7276      9.2815793e+08  0.1            20028820       3.8382629      1001.4828      10014.873      6.209548     
  60243400   139777.1      -52.362419     -43104643       0.67957067     374567.44     -42730075       975.45512      975.45512      975.45512      2012.2724      2987.7276      2012.2724      2987.7276      2012.2724      2987.7276      9.2815793e+08  0.1            20028840       3.8595662      938.82094      9388.1582      6.19139      
  60243600   141671.19     -52.108274     -43104889       0.67957067     379643.12     -42725245       975.45512      975.45512      975.45512      2012.2724      2987.7276      2012.2724      2987.7276      2012.2724      2987.7276      9.2815793e+08  0.1            20028860       3.881242       922.68368      9226.8257      6.1737919    
  60243800   143674.43     -51.713029     -43097752       0.67957067     385011.29     -42712741       975.45512      975.45512      975.45512      2012.2724      2987.7276      2012.2724      2987.7276      2012.2724      2987.7276      9.2815793e+08  0.1            20028880       3.9030548      916.89481      9168.9573      6.1563674    
  60244000   145686.33     -51.451353     -43097991       0.67957067     390402.68     -42707588       975.45512      975.45512      975.45512      2012.2724      2987.7276      2012.2724      2987.7276      2012.2724      2987.7276      9.2815793e+08  0.1            20028900       3.9247556      921.62624      9216.2701      6.1387229    
  60244200   147605.39     -51.287515     -43105603       0.67957067     395545.28     -42710057       975.45512      975.45512      975.45512      2012.2724      2987.7276      2012.2724      2987.7276      2012.2724      2987.7276      9.2815793e+08  0.1            20028920       3.9457423      952.98374      9529.8487      6.1199293    
  60244400   149337.05     -50.917021     -43105831       0.67957067     400185.7      -42705645       975.45512      975.45512      975.45512      2012.2724      2987.7276      2012.2724      2987.7276      2012.2724      2987.7276      9.2815793e+08  0.1            20028940       3.9662975      972.98876      9729.8758      6.1004499    
  60244600   150800.61     -50.693775     -43113430       0.67957067     404107.66     -42709322       975.45512      975.45512      975.45512      2012.2724      2987.7276      2012.2724      2987.7276      2012.2724      2987.7276      9.2815793e+08  0.1            20028960       3.9863905      995.37405      9953.7568      6.0802545    
  60244800   151936.32     -50.434932     -43113645       0.67957067     407151.09     -42706494       975.45512      975.45512      975.45512      2012.2724      2987.7276      2012.2724      2987.7276      2012.2724      2987.7276      9.2815793e+08  0.1            20028980       4.0065173      993.70123      9937.0305      6.0601113    
  60245000   152710.04     -50.054465     -43099101       0.67957067     409224.47     -42689877       975.45512      975.45512      975.45512      2012.2724      2987.7276      2012.2724      2987.7276      2012.2724      2987.7276      9.2815793e+08  0.1            20029000       4.026733       989.33008      9893.2831      6.0401018    
  60245200   153116.44     -50.043739     -43099311       0.67957067     410313.52     -42688997       975.45512      975.45512      975.45512      2012.2724      2987.7276      2012.2724      2987.7276      2012.2724      2987.7276      9.2815793e+08  0.1            20029020       4.046719       1000.6985      10007.002      6.0197484    
  60245400   153180.2      -49.837197     -43092140       0.67957067     410484.38     -42681656       975.45512      975.45512      975.45512      2012.2724      2987.7276      2012.2724      2987.7276      2012.2724      2987.7276      9.2815793e+08  0.1            20029040       4.0669024      990.91524      9909.1328      5.9996899    
  60245600   152954.64     -49.762184     -43092341       0.67957067     409879.91     -42682461       975.45512      975.45512      975.45512      2012.2724      2987.7276      2012.2724      2987.7276      2012.2724      2987.7276      9.2815793e+08  0.1            20029060       4.0878738      953.67932      9536.7946      5.9807831    
  60245800   152518.89     -50.046717     -43107290       0.67957067     408712.22     -42698578       975.45512      975.45512      975.45512      2012.2724      2987.7276      2012.2724      2987.7276      2012.2724      2987.7276      9.2815793e+08  0.1            20029080       4.1083754      975.52805      9755.2629      5.9611746    
  60246000   151969.81     -50.081734     -43107480       0.67957067     407240.83     -42700239       975.45512      975.45512      975.45512      2012.2724      2987.7276      2012.2724      2987.7276      2012.2724      2987.7276      9.2815793e+08  0.1            20029100       4.1286275      987.55425      9875.5488      5.941198     
  60246200   151411.53     -50.066934     -43107665       0.67957067     405744.78     -42701920       975.45512      975.45512      975.45512      2012.2724      2987.7276      2012.2724      2987.7276      2012.2724      2987.7276      9.2815793e+08  0.1            20029120       4.1485709      1002.8375      10028.417      5.9207781    
  60246400   150946.39     -50.264622     -43122602       0.67957067     404498.32     -42718104       975.45512      975.45512      975.45512      2012.2724      2987.7276      2012.2724      2987.7276      2012.2724      2987.7276      9.2815793e+08  0.1            20029140       4.1686635      995.3958       9953.9099      5.9005742    
  60246600   150667.78     -49.955472     -43115404       0.67957067     403751.71     -42711652       975.45512      975.45512      975.45512      2012.2724      2987.7276      2012.2724      2987.7276      2012.2724      2987.7276      9.2815793e+08  0.1            20029160       4.188722       997.08184      9970.8472      5.8803234    
  60246800   150653.18     -49.867348     -43122956       0.67957067     403712.6      -42719244       975.45512      975.45512      975.45512      2012.2724      2987.7276      2012.2724      2987.7276      2012.2724      2987.7276      9.2815793e+08  0.1            20029180       4.2088065      995.79253      9957.9049      5.8601108    
  60247000   150961.2      -49.620443     -43123127       0.67957067     404538.01     -42718589       975.45512      975.45512      975.45512      2012.2724      2987.7276      2012.2724      2987.7276      2012.2724      2987.7276      9.2815793e+08  0.1            20029200       4.2289418      993.28026      9932.8337      5.8399693    
  60247200   151627.83     -49.369797     -43123295       0.67957067     406324.4      -42716970       975.45512      975.45512      975.45512      2012.2724      2987.7276      2012.2724      2987.7276      2012.2724      2987.7276      9.2815793e+08  0.1            20029220       4.2490904      992.62549      9926.2243      5.8198464    
  60247400   152662.64     -48.979843     -43116082       0.67957067     409097.45     -42706985       975.45512      975.45512      975.45512      2012.2724      2987.7276      2012.2724      2987.7276      2012.2724      2987.7276      9.2815793e+08  0.1            20029240       4.2692066      994.22065      9942.1916      5.7996791    
  60247600   154046.15     -48.727761     -43116247       0.67957067     412804.9      -42703442       975.45512      975.45512      975.45512      2012.2724      2987.7276      2012.2724      2987.7276      2012.2724      2987.7276      9.2815793e+08  0.1            20029260       4.2891364      1003.527       10035.312      5.7792609    
  60247800   155730.43     -48.310344     -43109033       0.67957067     417318.34     -42691715       975.45512      975.45512      975.45512      2012.2724      2987.7276      2012.2724      2987.7276      2012.2724      2987.7276      9.2815793e+08  0.1            20029280       4.3098234      966.78434      9667.8036      5.7598597    
  60248000   157641.36     -48.021618     -43109196       0.67957067     422439.15     -42686757       975.45512      975.45512      975.45512      2012.2724      2987.7276      2012.2724      2987.7276      2012.2724      2987.7276      9.2815793e+08  0.1            20029300       4.3300567      988.47395      9884.7414      5.7398447    
  60248200   159686.09     -47.677868     -43109358       0.67957067     427918.51     -42681440       975.45512      975.45512      975.45512      2012.2724      2987.7276      2012.2724      2987.7276      2012.2724      2987.7276      9.2815793e+08  0.1            20029320       4.3500043      1002.6245      10026.287      5.7194522    
  60248400   161760.58     -47.242        -43109520       0.67957067     433477.64     -42676042       975.45512      975.45512      975.45512      2012.2724      2987.7276      2012.2724      2987.7276      2012.2724      2987.7276      9.2815793e+08  0.1            20029340       4.370109       994.79073      9947.8969      5.6992687    
  60248600   163758.12     -46.746236     -43109680       0.67957067     438830.54     -42670850       975.45512      975.45512      975.45512      2012.2724      2987.7276      2012.2724      2987.7276      2012.2724      2987.7276      9.2815793e+08  0.1            20029360       4.3902028      995.33571      9953.36        5.6790717    
  60248800   165578.33     -46.261061     -43109838       0.67957067     443708.25     -42666130       975.45512      975.45512      975.45512      2012.2724      2987.7276      2012.2724      2987.7276      2012.2724      2987.7276      9.2815793e+08  0.1            20029380       4.4101371      1003.2945      10032.961      5.658671     
  60249000   167134.58     -45.997471     -43117372       0.67957067     447878.61     -42669494       975.45512      975.45512      975.45512      2012.2724      2987.7276      2012.2724      2987.7276      2012.2724      2987.7276      9.2815793e+08  0.1            20029400       4.4302756      993.12248      9931.1962      5.6385346    
  60249200   168360.41     -45.640193     -43117527       0.67957067     451163.5      -42666364       975.45512      975.45512      975.45512      2012.2724      2987.7276      2012.2724      2987.7276      2012.2724      2987.7276      9.2815793e+08  0.1            20029420       4.4501903      1004.2831      10042.87       5.6181155    
  60249400   169213.57     -45.377067     -43117679       0.67957067     453449.77     -42664230       975.45512      975.45512      975.45512      2012.2724      2987.7276      2012.2724      2987.7276      2012.2724      2987.7276      9.2815793e+08  0.1            20029440       4.4702904      995.02344      9950.2012      5.5979331    
  60249600   169681.95     -45.359611     -43125208       0.67957067     454704.9      -42670503       975.45512      975.45512      975.45512      2012.2724      2987.7276      2012.2724      2987.7276      2012.2724      2987.7276      9.2815793e+08  0.1            20029460       4.4903382      997.6147       9976.1371      5.5776866    
  60249800   169785.32     -45.485314     -43140114       0.67957067     454981.9      -42685132       975.45512      975.45512      975.45512      2012.2724      2987.7276      2012.2724      2987.7276      2012.2724      2987.7276      9.2815793e+08  0.1            20029480       4.5102436      1004.7514      10047.567      5.5572662    
[...]
  60894400   308.39628      0.74180973    -43544651       0.69405354     826.4244      -43543825       968.6224       968.6224       968.6224       2015.6888      2984.3112      2015.6888      2984.3112      2015.6888      2984.3112      9.0878998e+08  0.1            20093940       35.259361      823.77049      8237.7103      1.2914625    
  60894600   308.37667     -0.82937408    -43544743       0.69400663     826.37184     -43543917       968.64423      968.64423      968.64423      2015.6779      2984.3221      2015.6779      2984.3221      2015.6779      2984.3221      9.0885141e+08  0.1            20093960       35.283437      830.69115      8306.9129      1.2670848    
  60894800   308.37068     -0.24008628    -43544836       0.69402851     826.3558      -43544010       968.63405      968.63405      968.63405      2015.683       2984.317       2015.683       2984.317       2015.683       2984.317       9.0882276e+08  0.1            20093980       35.307979      814.93054      8149.3044      1.242724     
  60895000   308.34062      1.1482075     -43544928       0.69407577     826.27524     -43544102       968.61206      968.61206      968.61206      2015.694       2984.306       2015.694       2984.306       2015.694       2984.306       9.0876088e+08  0.1            20094000       35.333014      798.8921       7988.9079      1.2183799    
  60895200   308.37681      2.0499752     -43545020       0.6941075      826.37222     -43544193       968.5973       968.5973       968.5973       2015.7013      2984.2987      2015.7013      2984.2987      2015.7013      2984.2987      9.0871933e+08  0.1            20094020       35.357458      818.18461      8181.8612      1.1940148    
  60895400   308.39785      2.0599478     -43545112       0.69411087     826.4286      -43544285       968.59573      968.59573      968.59573      2015.7021      2984.2979      2015.7021      2984.2979      2015.7021      2984.2979      9.0871491e+08  0.1            20094040       35.381692      825.27552      8252.7398      1.1696428    
  60895600   308.38706      1.449778      -43545205       0.69409455     826.39969     -43544378       968.60333      968.60333      968.60333      2015.6983      2984.3017      2015.6983      2984.3017      2015.6983      2984.3017      9.0873628e+08  0.1            20094060       35.406022      822.06147      8220.6238      1.145274     
  60895800   308.36833      0.70652149    -43545297       0.694074       826.34949     -43544471       968.61289      968.61289      968.61289      2015.6936      2984.3064      2015.6936      2984.3064      2015.6936      2984.3064      9.0876319e+08  0.1            20094080       35.430102      830.54743      8305.4681      1.1208974    
  60896000   308.32039      0.18835316    -43545390       0.69406059     826.22101     -43544564       968.61912      968.61912      968.61912      2015.6904      2984.3096      2015.6904      2984.3096      2015.6904      2984.3096      9.0878074e+08  0.1            20094100       35.454417      822.53908      8225.3881      1.0965284    
  60896200   308.34641      0.01657726    -43545482       0.69405818     826.29075     -43544656       968.62024      968.62024      968.62024      2015.6899      2984.3101      2015.6899      2984.3101      2015.6899      2984.3101      9.087839e+08   0.1            20094120       35.478598      827.08666      8270.869       1.0721555    
  60896400   308.36843      0.13581435    -43545574       0.69406499     826.34975     -43544748       968.61708      968.61708      968.61708      2015.6915      2984.3085      2015.6915      2984.3085      2015.6915      2984.3085      9.0877498e+08  0.1            20094140       35.502675      830.67524      8306.76        1.0477798    
  60896600   308.366        0.42212633    -43545666       0.69407708     826.34325     -43544840       968.61145      968.61145      968.61145      2015.6943      2984.3057      2015.6943      2984.3057      2015.6943      2984.3057      9.0875915e+08  0.1            20094160       35.527351      810.52335      8105.2335      1.0234217    
  60896800   308.35737      0.76205367    -43545758       0.69409085     826.32012     -43544932       968.60505      968.60505      968.60505      2015.6975      2984.3025      2015.6975      2984.3025      2015.6975      2984.3025      9.0874113e+08  0.1            20094180       35.551606      824.56746      8245.6644      0.99905134   
  60897000   308.3174       1.0848802     -43545850       0.69410405     826.213       -43545024       968.59891      968.59891      968.59891      2015.7005      2984.2995      2015.7005      2984.2995      2015.7005      2984.2995      9.0872385e+08  0.1            20094200       35.575992      820.12031      8201.2135      0.97468477   
  60897200   308.34739      1.3619982     -43545942       0.69411578     826.29337     -43545116       968.59345      968.59345      968.59345      2015.7033      2984.2967      2015.7033      2984.2967      2015.7033      2984.2967      9.0870849e+08  0.1            20094220       35.600185      826.70119      8267.0153      0.95031299   
  60897400   308.3702       1.592394      -43546034       0.694126       826.35449     -43545208       968.5887       968.5887       968.5887       2015.7057      2984.2943      2015.7057      2984.2943      2015.7057      2984.2943      9.0869511e+08  0.1            20094240       35.624467      823.64768      8236.4687      0.92594379   
  60897600   308.37421      2.5799287     -43546125       0.69416013     826.36524     -43545299       968.57282      968.57282      968.57282      2015.7136      2984.2864      2015.7136      2984.2864      2015.7136      2984.2864      9.0865043e+08  0.1            20094260       35.64869       825.65826      8256.5716      0.90157321   
  60897800   308.33726     -0.34689783    -43538841       0.69406585     826.26622     -43538015       968.61668      968.61668      968.61668      2015.6917      2984.3083      2015.6917      2984.3083      2015.6917      2984.3083      9.0877386e+08  0.1            20094280       35.673595      803.06662      8030.6788      0.87721959   
  60898000   308.29137     -0.94114777    -43538933       0.69404998     826.14324     -43538106       968.62406      968.62406      968.62406      2015.688       2984.312       2015.688       2984.312       2015.688       2984.312       9.0879464e+08  0.1            20094300       35.697904      822.7463       8227.44        0.85285098   
  60898200   308.33216      0.38949882    -43553781       0.69410428     826.25256     -43552954       968.5988       968.5988       968.5988       2015.7006      2984.2994      2015.7006      2984.2994      2015.7006      2984.2994      9.0872354e+08  0.1            20094320       35.722549      811.49588      8114.9772      0.82849027   
  60898400   308.31874     -2.7876721     -43539114       0.69399744     826.21659     -43538288       968.6485       968.6485       968.6485       2015.6757      2984.3243      2015.6757      2984.3243      2015.6757      2984.3243      9.0886344e+08  0.1            20094340       35.747324      807.28129      8072.809       0.80413207   
  60898600   308.33328     -0.83542746    -43546587       0.69406669     826.25556     -43545760       968.61629      968.61629      968.61629      2015.6919      2984.3081      2015.6919      2984.3081      2015.6919      2984.3081      9.0877276e+08  0.1            20094360       35.771584      824.38899      8243.8943      0.7797621    
  60898800   308.34175      1.0645333     -43554056       0.69413415     826.27825     -43553230       968.58491      968.58491      968.58491      2015.7075      2984.2925      2015.7075      2984.2925      2015.7075      2984.2925      9.0868444e+08  0.1            20094380       35.79569       829.6786       8296.777       0.755389     
  60899000   308.33313      4.3617168     -43554143       0.69424078     826.25515     -43553317       968.53532      968.53532      968.53532      2015.7323      2984.2677      2015.7323      2984.2677      2015.7323      2984.2677      9.0854488e+08  0.1            20094400       35.820134      818.20081      8182.0299      0.73102318   
  60899200   308.32299      0.53196997    -43546863       0.69411833     826.22798     -43546036       968.59226      968.59226      968.59226      2015.7039      2984.2961      2015.7039      2984.2961      2015.7039      2984.2961      9.0870515e+08  0.1            20094420       35.84468       814.80448      8148.0345      0.70665925   
  60899400   308.31906     -1.7896577     -43546953       0.69404799     826.21747     -43546127       968.62499      968.62499      968.62499      2015.6875      2984.3125      2015.6875      2984.3125      2015.6875      2984.3125      9.0879725e+08  0.1            20094440       35.868963      823.59847      8235.9806      0.6822901    
  60899600   308.33694      0.79055519    -43547046       0.69413205     826.26538     -43546220       968.58588      968.58588      968.58588      2015.7071      2984.2929      2015.7071      2984.2929      2015.7071      2984.2929      9.0868719e+08  0.1            20094460       35.893148      826.95517      8269.5544      0.65791925   
  60899800   308.34105      2.2704787     -43554514       0.69418601     826.27638     -43553688       968.56079      968.56079      968.56079      2015.7196      2984.2804      2015.7196      2984.2804      2015.7196      2984.2804      9.0861656e+08  0.1            20094480       35.917418      824.06721      8240.6772      0.63355015   
  60900000   308.30573      2.937373      -43554605       0.69420969     826.18173     -43553779       968.54977      968.54977      968.54977      2015.7251      2984.2749      2015.7251      2984.2749      2015.7251      2984.2749      9.0858557e+08  0.1            20094500       35.941685      824.16185      8241.6097      0.60918114   
  60900200   308.32933      2.6486742     -43554697       0.69420333     826.24499     -43553871       968.55273      968.55273      968.55273      2015.7236      2984.2764      2015.7236      2984.2764      2015.7236      2984.2764      9.0859389e+08  0.1            20094520       35.965934      824.77788      8247.7832      0.58481197   
  60900400   308.32294     -0.028748554   -43547413       0.6941173      826.22785     -43546587       968.59275      968.59275      968.59275      2015.7036      2984.2964      2015.7036      2984.2964      2015.7036      2984.2964      9.087065e+08   0.1            20094540       35.990024      830.23348      8302.3383      0.56044048   
  60900600   308.3405       2.3685328     -43547504       0.69419528     826.2749      -43546677       968.55647      968.55647      968.55647      2015.7218      2984.2782      2015.7218      2984.2782      2015.7218      2984.2782      9.0860442e+08  0.1            20094560       36.015356      789.52213      7895.2091      0.53608787   
  60900800   308.31175      0.53809698    -43547597       0.69414053     826.19787     -43546771       968.58194      968.58194      968.58194      2015.709       2984.291       2015.709       2984.291       2015.709       2984.291       9.0867609e+08  0.1            20094580       36.039621      824.24011      8242.4164      0.51171878   
  60901000   308.25883     -0.57059871    -43547688       0.69410843     826.05605     -43546862       968.59687      968.59687      968.59687      2015.7016      2984.2984      2015.7016      2984.2984      2015.7016      2984.2984      9.0871811e+08  0.1            20094600       36.063968      821.43411      8214.3407      0.48735095   
  60901200   308.29473      0.53861419    -43547780       0.69414593     826.15226     -43546954       968.57943      968.57943      968.57943      2015.7103      2984.2897      2015.7103      2984.2897      2015.7103      2984.2897      9.0866902e+08  0.1            20094620       36.088063      830.05217      8300.5148      0.4629799    
  60901400   308.33014      2.2434126     -43547870       0.69420204     826.24715     -43547044       968.55333      968.55333      968.55333      2015.7233      2984.2767      2015.7233      2984.2767      2015.7233      2984.2767      9.0859558e+08  0.1            20094640       36.112351      823.44204      8234.4282      0.43861158   
  60901600   308.32054      1.821263      -43547962       0.69419146     826.22142     -43547136       968.55825      968.55825      968.55825      2015.7209      2984.2791      2015.7209      2984.2791      2015.7209      2984.2791      9.0860942e+08  0.1            20094660       36.136642      823.37496      8233.7411      0.41424338   
  60901800   308.29143      0.0059457649  -43548055       0.69413725     826.14342     -43547228       968.58346      968.58346      968.58346      2015.7083      2984.2917      2015.7083      2984.2917      2015.7083      2984.2917      9.0868038e+08  0.1            20094680       36.161235      813.23389      8132.3217      0.38987856   
  60902000   308.25094      0.15562994    -43548146       0.6941446      826.0349      -43547320       968.58005      968.58005      968.58005      2015.71        2984.29        2015.71        2984.29        2015.71        2984.29        9.0867076e+08  0.1            20094700       36.186957      777.54388      7775.4512      0.36552483   
  60902200   308.29346      1.9726998     -43548236       0.69420412     826.14885     -43547410       968.55236      968.55236      968.55236      2015.7238      2984.2762      2015.7238      2984.2762      2015.7238      2984.2762      9.0859285e+08  0.1            20094720       36.211363      819.47986      8194.8049      0.34115686   
  60902400   308.30969      1.648686      -43548328       0.69419662     826.19235     -43547502       968.55585      968.55585      968.55585      2015.7221      2984.2779      2015.7221      2984.2779      2015.7221      2984.2779      9.0860267e+08  0.1            20094740       36.235816      817.87104      8178.7074      0.31678926   
  60902600   308.28727     -0.11382033    -43548420       0.69414412     826.13227     -43547594       968.58027      968.58027      968.58027      2015.7099      2984.2901      2015.7099      2984.2901      2015.7099      2984.2901      9.0867139e+08  0.1            20094760       36.262064      761.98215      7619.8058      0.29243601   
  60902800   308.29673      2.1216632     -43548510       0.69421665     826.15763     -43547684       968.54653      968.54653      968.54653      2015.7267      2984.2733      2015.7267      2984.2733      2015.7267      2984.2733      9.0857645e+08  0.1            20094780       36.287012      801.63974      8016.425       0.26807062   
  60903000   308.24582      1.0127029     -43548603       0.69418461     826.02118     -43547777       968.56144      968.56144      968.56144      2015.7193      2984.2807      2015.7193      2984.2807      2015.7193      2984.2807      9.0861838e+08  0.1            20094800       36.311286      823.94096      8239.3875      0.24369992   
  60903200   308.26529      0.53151156    -43541316       0.69416758     826.07338     -43540490       968.56936      968.56936      968.56936      2015.7153      2984.2847      2015.7153      2984.2847      2015.7153      2984.2847      9.0864068e+08  0.1            20094820       36.335617      822.00325      8220.0575      0.21932969   
  60903400   308.29059      1.0907579     -43548785       0.69419231     826.14116     -43547959       968.55786      968.55786      968.55786      2015.7211      2984.2789      2015.7211      2984.2789      2015.7211      2984.2789      9.0860831e+08  0.1            20094840       36.361276      779.44324      7794.4112      0.19496664   
  60903600   308.28877      1.5117099     -43548876       0.69420808     826.13629     -43548050       968.55052      968.55052      968.55052      2015.7247      2984.2753      2015.7247      2984.2753      2015.7247      2984.2753      9.0858767e+08  0.1            20094860       36.387577      760.43129      7604.3077      0.17060486   
  60903800   308.27764      1.552529      -43548967       0.69421197     826.10647     -43548141       968.54871      968.54871      968.54871      2015.7256      2984.2744      2015.7256      2984.2744      2015.7256      2984.2744      9.0858257e+08  0.1            20094880       36.412409      805.42145      8054.2359      0.14623458   
  60904000   308.22787      0.60858849    -43541681       0.69418052     825.9731      -43540855       968.56334      968.56334      968.56334      2015.7183      2984.2817      2015.7183      2984.2817      2015.7183      2984.2817      9.0862374e+08  0.1            20094900       36.436928      815.69518      8156.9505      0.12186264   
  60904200   308.24375     -0.30188756    -43541772       0.69415475     826.01564     -43540946       968.57532      968.57532      968.57532      2015.7123      2984.2877      2015.7123      2984.2877      2015.7123      2984.2877      9.0865747e+08  0.1            20094920       36.461237      822.74512      8227.4478      0.097489942  
  60904400   308.27154      0.74875355    -43541863       0.69419017     826.09013     -43541037       968.55885      968.55885      968.55885      2015.7206      2984.2794      2015.7206      2984.2794      2015.7206      2984.2794      9.0861111e+08  0.1            20094940       36.485427      826.77491      8267.7498      0.073117092  
  60904600   308.26668      0.81328831    -43541954       0.69419482     826.07709     -43541128       968.55669      968.55669      968.55669      2015.7217      2984.2783      2015.7217      2984.2783      2015.7217      2984.2783      9.0860503e+08  0.1            20094960       36.509731      822.90209      8229.0321      0.048744637  
  60904800   308.23475     -1.7424112     -43542044       0.69411778     825.99153     -43541218       968.59252      968.59252      968.59252      2015.7037      2984.2963      2015.7037      2984.2963      2015.7037      2984.2963      9.0870587e+08  0.1            20094980       36.533974      825.00144      8250.0127      0.024372232  
  60905000   308.19226     -2.3389638     -43542135       0.69410185     825.87766     -43541309       968.59993      968.59993      968.59993      2015.7         2984.3         2015.7         2984.3         2015.7         2984.3         9.0872672e+08  0.1            20095000       36.558293      822.39804      8223.9598      0            
Loop time of 36.5583 on 1 procs for 300000 steps with 900 atoms

Performance: 70.900 ns/day, 0.339 hours/ns, 8206.067 timesteps/s
99.5% CPU use with 1 MPI tasks x 1 OpenMP threads

MPI task timing breakdown:
Section |  min time  |  avg time  |  max time  |%varavg| %total
---------------------------------------------------------------
Pair    | 26.733     | 26.733     | 26.733     |   0.0 | 73.13
Neigh   | 0.025462   | 0.025462   | 0.025462   |   0.0 |  0.07
Comm    | 1.2138     | 1.2138     | 1.2138     |   0.0 |  3.32
Output  | 0.074304   | 0.074304   | 0.074304   |   0.0 |  0.20
Modify  | 7.6597     | 7.6597     | 7.6597     |   0.0 | 20.95
Other   |            | 0.8516     |            |       |  2.33

Nlocal:            900 ave         900 max         900 min
Histogram: 1 0 0 0 0 0 0 0 0 0
Nghost:           1174 ave        1174 max        1174 min
Histogram: 1 0 0 0 0 0 0 0 0 0
Neighs:           4930 ave        4930 max        4930 min
Histogram: 1 0 0 0 0 0 0 0 0 0

Total # of neighbors = 4930
Ave neighs/atom = 5.4777778
Neighbor list builds = 55
Dangerous builds = 23

# run_style
run_style verlet

# write restart
write_restart ${write_res}
write_restart ./pgnpmf/100900/equpmf87.res
System init for write_restart ...
Generated 0 of 1 mixed pair_coeff terms from geometric mixing rule

Total wall time: 0:01:17
