LAMMPS (23 Jun 2022 - Update 1)
OMP_NUM_THREADS environment is not set. Defaulting to 1 thread. (src/comm.cpp:98)
  using 1 OpenMP thread(s) per MPI task
# Read restart
read_restart ${read_res}
read_restart ./pgnpmf/100900/equpmf85.res
Reading restart file ...
  restart file = 23 Jun 2022, LAMMPS = 23 Jun 2022
  restoring atom style atomic from restart
  orthogonal box = (2009.3074 2009.3074 2009.3074) to (2990.6926 2990.6926 2990.6926)
  1 by 1 by 1 MPI processor grid
  restoring pair style table from restart
  900 atoms
  read_restart CPU = 0.009 seconds

# Settings

pair_style table spline 9941

pair_coeff 1 1 ./pgnpmf/N20.txt DE_GNP 75.6
pair_coeff 2 2 ./pgnpmf/N100.txt DE_GNP 115.92
WARNING: 3 of 9941 force values in table DE_GNP are inconsistent with -dE/dr.
WARNING:  Should only be flagged at inflection points (src/pair_table.cpp:463)
pair_coeff 1 2 ./pgnpmf/mixed_potential.txt DE_GNP 95.66
WARNING: 1562 of 9941 force values in table DE_GNP are inconsistent with -dE/dr.
WARNING:  Should only be flagged at inflection points (src/pair_table.cpp:463)

#Neigh_list Calc Frequency

neigh_modify delay 0 every 1 check yes

# Saving Frequency (50 frames)

variable ts_save equal ${steps_equ}
variable ts_save equal 5000

# Dump
#dump 1 all custom ${ts_save} ./pgnpmf/${folder}/equilibration/trajectory/trajectory_${usic}_${trial}.equ.custom type x y z ix iy iz
#dump_modify 1 first no sort id
#dump 2 all cfg 50000 ./equilibration/trajectory/ovito/dumpgen.tens_*.cfg mass type xs ys zs fx fy fz

# thermo_style
thermo_style custom step temp press pe density ke etotal lx ly lz xlo xhi ylo yhi zlo zhi vol dt time cpu tpcpu spcpu cpuremain

# run info
timestep ${ts}
timestep 0.1
thermo 200

# fix

fix 1 all momentum 1000 linear 1 1 1 angular
variable T equal ${temp}
variable T equal 300
fix 2 all nvt temp ${T} 370000 100.0
fix 2 all nvt temp 300 370000 100.0

run 100000
Generated 0 of 1 mixed pair_coeff terms from geometric mixing rule
Unused restart file global fix info:
  fix style: npt, fix ID: 5
Neighbor list info ...
  update every 1 steps, delay 0 steps, check yes
  max neighbors/atom: 2000, page size: 100000
  master list distance cutoff = 117.92
  ghost atom cutoff = 117.92
  binsize = 58.96, bins = 17 17 17
  1 neighbor lists, perpetual/occasional/extra = 1 0 0
  (1) pair table, perpetual
      attributes: half, newton on
      pair build: half/bin/atomonly/newton
      stencil: half/bin/3d
      bin: standard
Per MPI rank memory allocation (min/avg/max) = 3.129 | 3.129 | 3.129 Mbytes
   Step          Temp          Press          PotEng        Density         KinEng         TotEng           Lx             Ly             Lz            Xlo            Xhi            Ylo            Yhi            Zlo            Zhi           Volume           Dt            Time           CPU           T/CPU          S/CPU         CPULeft    
  59505000   307.54462     -0.38505779    -43206762       0.6673259      824.14215     -43205938       981.38521      981.38521      981.38521      2009.3074      2990.6926      2009.3074      2990.6926      2009.3074      2990.6926      9.451887e+08   0.1            19955000       0              0              0              0            
  59505200   344.65272     -0.45608392    -43206849       0.6673259      923.58251     -43205925       981.38521      981.38521      981.38521      2009.3074      2990.6926      2009.3074      2990.6926      2009.3074      2990.6926      9.451887e+08   0.1            19955020       0.02022524     988.83721      9888.0461      10.093338    
  59505400   397.36337     -0.53009306    -43206941       0.6673259      1064.8338     -43205876       981.38521      981.38521      981.38521      2009.3074      2990.6926      2009.3074      2990.6926      2009.3074      2990.6926      9.451887e+08   0.1            19955040       0.04047508     987.66759      9876.7003      10.078711    
  59505600   455.11941     -0.60918658    -43207040       0.6673259      1219.6054     -43205821       981.38521      981.38521      981.38521      2009.3074      2990.6926      2009.3074      2990.6926      2009.3074      2990.6926      9.451887e+08   0.1            19955060       0.060576453    994.9576       9949.5795      10.035777    
  59505800   524.45739     -0.69286228    -43207146       0.6673259      1405.4138     -43205741       981.38521      981.38521      981.38521      2009.3074      2990.6926      2009.3074      2990.6926      2009.3074      2990.6926      9.451887e+08   0.1            19955080       0.080765703    990.62424      9906.2384      10.015157    
  59506000   605.83381     -0.78180863    -43207260       0.6673259      1623.4821     -43205637       981.38521      981.38521      981.38521      2009.3074      2990.6926      2009.3074      2990.6926      2009.3074      2990.6926      9.451887e+08   0.1            19955100       0.10127067     975.37714      9753.7705      10.025956    
  59506200   699.69414     -0.87635062    -43207383       0.6673259      1875.0041     -43205508       981.38521      981.38521      981.38521      2009.3074      2990.6926      2009.3074      2990.6926      2009.3074      2990.6926      9.451887e+08   0.1            19955120       0.1213324      996.92369      9969.2454      9.9898333    
  59506400   807.48436     -0.97706608    -43207514       0.6673259      2163.8548     -43205350       981.38521      981.38521      981.38521      2009.3074      2990.6926      2009.3074      2990.6926      2009.3074      2990.6926      9.451887e+08   0.1            19955140       0.14168377     982.73463      9827.3381      9.978699     
  59506600   930.8119      -1.0843608     -43207655       0.6673259      2494.3416     -43205161       981.38521      981.38521      981.38521      2009.3074      2990.6926      2009.3074      2990.6926      2009.3074      2990.6926      9.451887e+08   0.1            19955160       0.16174115     997.14125      9971.4204      9.9471756    
  59506800   1071.5295     -1.1986547     -43207806       0.6673259      2871.4292     -43204935       981.38521      981.38521      981.38521      2009.3074      2990.6926      2009.3074      2990.6926      2009.3074      2990.6926      9.451887e+08   0.1            19955180       0.18195066     989.63261      9896.3388      9.9265037    
  59507000   1231.555      -1.3204294     -43207968       0.6673259      3300.2573     -43204668       981.38521      981.38521      981.38521      2009.3074      2990.6926      2009.3074      2990.6926      2009.3074      2990.6926      9.451887e+08   0.1            19955200       0.20225265     985.12452      9851.236       9.9104574    
  59507200   1413.495      -1.44993       -43208142       0.6673259      3787.8108     -43204354       981.38521      981.38521      981.38521      2009.3074      2990.6926      2009.3074      2990.6926      2009.3074      2990.6926      9.451887e+08   0.1            19955220       0.22232201     996.54538      9965.4413      9.8832934    
  59507400   1619.8516     -1.5878316     -43208327       0.6673259      4340.7944     -43203987       981.38521      981.38521      981.38521      2009.3074      2990.6926      2009.3074      2990.6926      2009.3074      2990.6926      9.451887e+08   0.1            19955240       0.24257734     987.39311      9873.9384      9.8648762    
  59507600   1853.5052     -1.7346026     -43208526       0.6673259      4966.9274     -43203559       981.38521      981.38521      981.38521      2009.3074      2990.6926      2009.3074      2990.6926      2009.3074      2990.6926      9.451887e+08   0.1            19955260       0.26264063     996.84717      9968.4672      9.8389803    
  59507800   2117.6295     -1.8906754     -43208738       0.6673259      5674.714      -43203063       981.38521      981.38521      981.38521      2009.3074      2990.6926      2009.3074      2990.6926      2009.3074      2990.6926      9.451887e+08   0.1            19955280       0.28286316     988.9933       9889.8797      9.819453     
  59508000   2415.5249     -2.0564966     -43208964       0.6673259      6472.9985     -43202491       981.38521      981.38521      981.38521      2009.3074      2990.6926      2009.3074      2990.6926      2009.3074      2990.6926      9.451887e+08   0.1            19955300       0.30310887     987.86541      9878.7087      9.80057      
  59508200   2751.2692     -2.08996       -43201828       0.6673259      7372.7088     -43194455       981.38521      981.38521      981.38521      2009.3074      2990.6926      2009.3074      2990.6926      2009.3074      2990.6926      9.451887e+08   0.1            19955320       0.32413632     951.13677      9511.3705      9.8051716    
  59508400   3128.8842     -2.2760742     -43202085       0.6673259      8384.622      -43193701       981.38521      981.38521      981.38521      2009.3074      2990.6926      2009.3074      2990.6926      2009.3074      2990.6926      9.451887e+08   0.1            19955340       0.34437086     988.40917      9884.0966      9.7842279    
  59508600   3552.7727     -2.4724638     -43202359       0.6673259      9520.5364     -43192839       981.38521      981.38521      981.38521      2009.3074      2990.6926      2009.3074      2990.6926      2009.3074      2990.6926      9.451887e+08   0.1            19955360       0.36443549     996.77985      9967.7891      9.7588143    
  59508800   4027.7444     -2.536812      -43195274       0.6673259      10793.341     -43184480       981.38521      981.38521      981.38521      2009.3074      2990.6926      2009.3074      2990.6926      2009.3074      2990.6926      9.451887e+08   0.1            19955380       0.38491582     976.54476      9765.4214      9.7444911    
  59509000   4558.6087     -2.7527649     -43195584       0.6673259      12215.924     -43183368       981.38521      981.38521      981.38521      2009.3074      2990.6926      2009.3074      2990.6926      2009.3074      2990.6926      9.451887e+08   0.1            19955400       0.40504548     993.55965      9935.6182      9.7211303    
  59509200   5150.8066     -2.9762476     -43195914       0.6673259      13802.865     -43182111       981.38521      981.38521      981.38521      2009.3074      2990.6926      2009.3074      2990.6926      2009.3074      2990.6926      9.451887e+08   0.1            19955420       0.42510901     996.83386      9968.345       9.6965712    
  59509400   5809.6177     -3.2055871     -43196263       0.6673259      15568.313     -43180695       981.38521      981.38521      981.38521      2009.3074      2990.6926      2009.3074      2990.6926      2009.3074      2990.6926      9.451887e+08   0.1            19955440       0.44536974     987.13258      9871.3258      9.6767042    
  59509600   6540.4932     -3.4385387     -43196634       0.6673259      17526.875     -43179107       981.38521      981.38521      981.38521      2009.3074      2990.6926      2009.3074      2990.6926      2009.3074      2990.6926      9.451887e+08   0.1            19955460       0.46548779     994.13184      9941.3233      9.6538448    
  59509800   7348.8304     -3.6726552     -43197027       0.6673259      19693.015     -43177334       981.38521      981.38521      981.38521      2009.3074      2990.6926      2009.3074      2990.6926      2009.3074      2990.6926      9.451887e+08   0.1            19955480       0.48586523     981.47717      9814.7842      9.6363578    
  59510000   8239.6977     -3.763376      -43190064       0.6673259      22080.315     -43167984       981.38521      981.38521      981.38521      2009.3074      2990.6926      2009.3074      2990.6926      2009.3074      2990.6926      9.451887e+08   0.1            19955500       0.5059668      994.94662      9949.4488      9.6133993    
  59510200   9218.0962     -3.9933788     -43190503       0.6673259      24702.177     -43165800       981.38521      981.38521      981.38521      2009.3074      2990.6926      2009.3074      2990.6926      2009.3074      2990.6926      9.451887e+08   0.1            19955520       0.52602751     996.97264      9969.7244      9.5899153    
  59510400   10288.164     -4.3640624     -43198343       0.6673259      27569.689     -43170773       981.38521      981.38521      981.38521      2009.3074      2990.6926      2009.3074      2990.6926      2009.3074      2990.6926      9.451887e+08   0.1            19955540       0.54624553     989.21914      9892.1856      9.5694402    
  59510600   11452.999     -4.5940482     -43198830       0.6673259      30691.154     -43168139       981.38521      981.38521      981.38521      2009.3074      2990.6926      2009.3074      2990.6926      2009.3074      2990.6926      9.451887e+08   0.1            19955560       0.56661617     981.80379      9818.0495      9.5515567    
  59510800   12714.479     -4.8305546     -43199343       0.6673259      34071.604     -43165271       981.38521      981.38521      981.38521      2009.3074      2990.6926      2009.3074      2990.6926      2009.3074      2990.6926      9.451887e+08   0.1            19955580       0.58722743     970.34274      9703.4255      9.5374092    
  59511000   14072.653     -5.0784431     -43199881       0.6673259      37711.166     -43162169       981.38521      981.38521      981.38521      2009.3074      2990.6926      2009.3074      2990.6926      2009.3074      2990.6926      9.451887e+08   0.1            19955600       0.60731775     995.50579      9955.0514      9.5146698    
  59511200   15525.914     -5.3415525     -43200444       0.6673259      41605.539     -43158838       981.38521      981.38521      981.38521      2009.3074      2990.6926      2009.3074      2990.6926      2009.3074      2990.6926      9.451887e+08   0.1            19955620       0.62738831     996.48376      9964.8425      9.4918023    
  59511400   17069.684     -5.6228475     -43201033       0.6673259      45742.456     -43155291       981.38521      981.38521      981.38521      2009.3074      2990.6926      2009.3074      2990.6926      2009.3074      2990.6926      9.451887e+08   0.1            19955640       0.64764966     987.10208      9871.0164      9.4718991    
  59511600   18696.4       -5.926855      -43201649       0.6673259      50101.644     -43151547       981.38521      981.38521      981.38521      2009.3074      2990.6926      2009.3074      2990.6926      2009.3074      2990.6926      9.451887e+08   0.1            19955660       0.66771093     996.94446      9969.4486      9.4491442    
  59511800   20394.909     -6.2572223     -43202290       0.6673259      54653.222     -43147637       981.38521      981.38521      981.38521      2009.3074      2990.6926      2009.3074      2990.6926      2009.3074      2990.6926      9.451887e+08   0.1            19955680       0.68809969     980.93282      9809.335       9.4310354    
  59512000   22149.889     -6.4742726     -43195579       0.6673259      59356.126     -43136223       981.38521      981.38521      981.38521      2009.3074      2990.6926      2009.3074      2990.6926      2009.3074      2990.6926      9.451887e+08   0.1            19955700       0.70829435     990.36146      9903.6111      9.4102169    
  59512200   23941.911     -6.8630388     -43196271       0.6673259      64158.293     -43132113       981.38521      981.38521      981.38521      2009.3074      2990.6926      2009.3074      2990.6926      2009.3074      2990.6926      9.451887e+08   0.1            19955720       0.72836806     996.32769      9963.2674      9.3878758    
  59512400   25746.432     -7.2786582     -43196987       0.6673259      68993.956     -43127994       981.38521      981.38521      981.38521      2009.3074      2990.6926      2009.3074      2990.6926      2009.3074      2990.6926      9.451887e+08   0.1            19955740       0.74860903     988.09401      9880.9582      9.3677484    
  59512600   27534.195     -7.715867      -43197727       0.6673259      73784.71      -43123943       981.38521      981.38521      981.38521      2009.3074      2990.6926      2009.3074      2990.6926      2009.3074      2990.6926      9.451887e+08   0.1            19955760       0.76885817     987.69568      9876.9437      9.3477167    
  59512800   29271.319     -8.168892      -43198489       0.6673259      78439.766     -43120050       981.38521      981.38521      981.38521      2009.3074      2990.6926      2009.3074      2990.6926      2009.3074      2990.6926      9.451887e+08   0.1            19955780       0.78930608     978.09364      9780.9268      9.3300217    
  59513000   30919.817     -8.7744943     -43206649       0.6673259      82857.325     -43123792       981.38521      981.38521      981.38521      2009.3074      2990.6926      2009.3074      2990.6926      2009.3074      2990.6926      9.451887e+08   0.1            19955800       0.80981712     975.08502      9750.8602      9.3129152    
  59513200   32439.584     -9.2451941     -43207448       0.6673259      86929.919     -43120518       981.38521      981.38521      981.38521      2009.3074      2990.6926      2009.3074      2990.6926      2009.3074      2990.6926      9.451887e+08   0.1            19955820       0.82987549     997.09258      9970.9223      9.2905747    
  59513400   33789.872     -9.7366007     -43208261       0.6673259      90548.35      -43117712       981.38521      981.38521      981.38521      2009.3074      2990.6926      2009.3074      2990.6926      2009.3074      2990.6926      9.451887e+08   0.1            19955840       0.8501275      987.55479      9875.5464      9.2704561    
  59513600   34933.327     -10.270306     -43209085       0.6673259      93612.523     -43115472       981.38521      981.38521      981.38521      2009.3074      2990.6926      2009.3074      2990.6926      2009.3074      2990.6926      9.451887e+08   0.1            19955860       0.87020262     996.25845      9962.5835      9.24845      
  59513800   35840.641     -10.859642     -43209917       0.6673259      96043.894     -43113873       981.38521      981.38521      981.38521      2009.3074      2990.6926      2009.3074      2990.6926      2009.3074      2990.6926      9.451887e+08   0.1            19955880       0.89060836     980.117        9801.1715      9.2299577    
  59514000   36496.112     -11.508271     -43210755       0.6673259      97800.393     -43112954       981.38521      981.38521      981.38521      2009.3074      2990.6926      2009.3074      2990.6926      2009.3074      2990.6926      9.451887e+08   0.1            19955900       0.91069407     995.73269      9957.3348      9.2081451    
  59514200   36903.832     -12.212735     -43211594       0.6673259      98892.978     -43112701       981.38521      981.38521      981.38521      2009.3074      2990.6926      2009.3074      2990.6926      2009.3074      2990.6926      9.451887e+08   0.1            19955920       0.93075133     997.14582      9971.4577      9.1861266    
  59514400   37090.358     -12.958588     -43212434       0.6673259      99392.821     -43113041       981.38521      981.38521      981.38521      2009.3074      2990.6926      2009.3074      2990.6926      2009.3074      2990.6926      9.451887e+08   0.1            19955940       0.95096505     989.42498      9894.2449      9.1657002    
  59514600   37104.219     -13.581066     -43205894       0.6673259      99429.965     -43106464       981.38521      981.38521      981.38521      2009.3074      2990.6926      2009.3074      2990.6926      2009.3074      2990.6926      9.451887e+08   0.1            19955960       0.97111028     992.78888      9927.8917      9.1446378    
  59514800   37009.609     -14.335601     -43206729       0.6673259      99176.434     -43107552       981.38521      981.38521      981.38521      2009.3074      2990.6926      2009.3074      2990.6926      2009.3074      2990.6926      9.451887e+08   0.1            19955980       0.99144873     983.36167      9833.6099      9.1253898    
  59515000   36877.408     -15.05995      -43207559       0.6673259      98822.17      -43108736       981.38521      981.38521      981.38521      2009.3074      2990.6926      2009.3074      2990.6926      2009.3074      2990.6926      9.451887e+08   0.1            19956000       1.0115338      995.76437      9957.6521      9.1038186    
  59515200   36777.304     -15.749558     -43208383       0.6673259      98553.916     -43109829       981.38521      981.38521      981.38521      2009.3074      2990.6926      2009.3074      2990.6926      2009.3074      2990.6926      9.451887e+08   0.1            19956020       1.0315933      997.0372       9970.3706      9.0820797    
  59515400   36771.65      -16.410533     -43209202       0.6673259      98538.764     -43110663       981.38521      981.38521      981.38521      2009.3074      2990.6926      2009.3074      2990.6926      2009.3074      2990.6926      9.451887e+08   0.1            19956040       1.0519845      980.8166       9808.1862      9.0632636    
  59515600   36913.52      -17.047204     -43210018       0.6673259      98918.94      -43111099       981.38521      981.38521      981.38521      2009.3074      2990.6926      2009.3074      2990.6926      2009.3074      2990.6926      9.451887e+08   0.1            19956060       1.0720379      997.33413      9973.3224      9.0415406    
  59515800   37245.799     -17.805264     -43218210       0.6673259      99809.365     -43118401       981.38521      981.38521      981.38521      2009.3074      2990.6926      2009.3074      2990.6926      2009.3074      2990.6926      9.451887e+08   0.1            19956080       1.092406       981.92762      9819.27        9.0224782    
  59516000   37800.196     -18.269983     -43211647       0.6673259      101295.01     -43110352       981.38521      981.38521      981.38521      2009.3074      2990.6926      2009.3074      2990.6926      2009.3074      2990.6926      9.451887e+08   0.1            19956100       1.1124973      995.45589      9954.5579      9.0011275    
  59516200   38594.303     -18.877033     -43212465       0.6673259      103423.02     -43109042       981.38521      981.38521      981.38521      2009.3074      2990.6926      2009.3074      2990.6926      2009.3074      2990.6926      9.451887e+08   0.1            19956120       1.1325636      996.69873      9966.9873      8.9796237    
  59516400   39627.945     -19.48324      -43213289       0.6673259      106192.92     -43107096       981.38521      981.38521      981.38521      2009.3074      2990.6926      2009.3074      2990.6926      2009.3074      2990.6926      9.451887e+08   0.1            19956140       1.1528153      987.56815      9875.6883      8.9596118    
  59516600   40880.82      -20.069409     -43214121       0.6673259      109550.31     -43104570       981.38521      981.38521      981.38521      2009.3074      2990.6926      2009.3074      2990.6926      2009.3074      2990.6926      9.451887e+08   0.1            19956160       1.1730159      990.0697       9900.6955      8.9392019    
  59516800   42312.693     -20.614485     -43214962       0.6673259      113387.36     -43101574       981.38521      981.38521      981.38521      2009.3074      2990.6926      2009.3074      2990.6926      2009.3074      2990.6926      9.451887e+08   0.1            19956180       1.1932644      987.7288       9877.2983      8.9191572    
  59517000   43867.544     -21.115501     -43215813       0.6673259      117553.97     -43098259       981.38521      981.38521      981.38521      2009.3074      2990.6926      2009.3074      2990.6926      2009.3074      2990.6926      9.451887e+08   0.1            19956200       1.2133856      993.97616      9939.7537      8.8981724    
  59517200   45480.747     -21.450307     -43209297       0.6673259      121876.95     -43087420       981.38521      981.38521      981.38521      2009.3074      2990.6926      2009.3074      2990.6926      2009.3074      2990.6926      9.451887e+08   0.1            19956220       1.2341316      964.03833      9640.3652      8.8817131    
  59517400   47084.406     -21.947469     -43210170       0.6673259      126174.35     -43083996       981.38521      981.38521      981.38521      2009.3074      2990.6926      2009.3074      2990.6926      2009.3074      2990.6926      9.451887e+08   0.1            19956240       1.2543486      989.27023      9892.7262      8.8613769    
  59517600   48612.579     -22.487994     -43211053       0.6673259      130269.47     -43080784       981.38521      981.38521      981.38521      2009.3074      2990.6926      2009.3074      2990.6926      2009.3074      2990.6926      9.451887e+08   0.1            19956260       1.2745404      990.49908      9904.9859      8.8408704    
  59517800   50004.41      -23.061665     -43211946       0.6673259      133999.23     -43077946       981.38521      981.38521      981.38521      2009.3074      2990.6926      2009.3074      2990.6926      2009.3074      2990.6926      9.451887e+08   0.1            19956280       1.2948204      986.19407      9861.9485      8.8209746    
  59518000   51207.156     -23.651143     -43212845       0.6673259      137222.29     -43075623       981.38521      981.38521      981.38521      2009.3074      2990.6926      2009.3074      2990.6926      2009.3074      2990.6926      9.451887e+08   0.1            19956300       1.3149077      995.65362      9956.5194      8.7997776    
  59518200   52180.825     -24.256301     -43213748       0.6673259      139831.47     -43073917       981.38521      981.38521      981.38521      2009.3074      2990.6926      2009.3074      2990.6926      2009.3074      2990.6926      9.451887e+08   0.1            19956320       1.3349872      996.04148      9960.4188      8.7785623    
  59518400   52901.871     -24.896211     -43214652       0.6673259      141763.7      -43072888       981.38521      981.38521      981.38521      2009.3074      2990.6926      2009.3074      2990.6926      2009.3074      2990.6926      9.451887e+08   0.1            19956340       1.3552584      986.62195      9866.2122      8.7586205    
  59518600   53367.767     -25.576419     -43215554       0.6673259      143012.18     -43072541       981.38521      981.38521      981.38521      2009.3074      2990.6926      2009.3074      2990.6926      2009.3074      2990.6926      9.451887e+08   0.1            19956360       1.3754525      990.38887      9903.9088      8.7381783    
  59518800   53599.021     -26.273276     -43216452       0.6673259      143631.88     -43072820       981.38521      981.38521      981.38521      2009.3074      2990.6926      2009.3074      2990.6926      2009.3074      2990.6926      9.451887e+08   0.1            19956380       1.3956989      987.83169      9878.2954      8.7180708    
  59519000   53638.318     -26.842592     -43209967       0.6673259      143737.19     -43066230       981.38521      981.38521      981.38521      2009.3074      2990.6926      2009.3074      2990.6926      2009.3074      2990.6926      9.451887e+08   0.1            19956400       1.4157858      995.67137      9956.7231      8.6969793    
  59519200   53545.984     -27.56923      -43210853       0.6673259      143489.76     -43067363       981.38521      981.38521      981.38521      2009.3074      2990.6926      2009.3074      2990.6926      2009.3074      2990.6926      9.451887e+08   0.1            19956420       1.4358434      997.12936      9971.2922      8.6757393    
  59519400   53392.106     -28.299591     -43211732       0.6673259      143077.4      -43068655       981.38521      981.38521      981.38521      2009.3074      2990.6926      2009.3074      2990.6926      2009.3074      2990.6926      9.451887e+08   0.1            19956440       1.4560859      988.01874      9880.1859      8.6556309    
  59519600   53249.012     -29.020349     -43212604       0.6673259      142693.94     -43069910       981.38521      981.38521      981.38521      2009.3074      2990.6926      2009.3074      2990.6926      2009.3074      2990.6926      9.451887e+08   0.1            19956460       1.476305       989.16308      9891.6224      8.6353827    
  59519800   53184.674     -29.720928     -43213470       0.6673259      142521.54     -43070948       981.38521      981.38521      981.38521      2009.3074      2990.6926      2009.3074      2990.6926      2009.3074      2990.6926      9.451887e+08   0.1            19956480       1.4966025      985.34482      9853.453       8.6155856    
  59520000   53258.506     -30.409403     -43214330       0.6673259      142719.39     -43071610       981.38521      981.38521      981.38521      2009.3074      2990.6926      2009.3074      2990.6926      2009.3074      2990.6926      9.451887e+08   0.1            19956500       1.51668        996.13872      9961.3862      8.594529     
  59520200   53519.63      -31.082123     -43215185       0.6673259      143419.13     -43071766       981.38521      981.38521      981.38521      2009.3074      2990.6926      2009.3074      2990.6926      2009.3074      2990.6926      9.451887e+08   0.1            19956520       1.5367411      996.9548       9969.5594      8.5734064    
  59520400   54004.537     -31.729944     -43216037       0.6673259      144718.56     -43071318       981.38521      981.38521      981.38521      2009.3074      2990.6926      2009.3074      2990.6926      2009.3074      2990.6926      9.451887e+08   0.1            19956540       1.5569839      988.00429      9880.0483      8.5533093    
  59520600   54735.479     -32.347251     -43216888       0.6673259      146677.3      -43070211       981.38521      981.38521      981.38521      2009.3074      2990.6926      2009.3074      2990.6926      2009.3074      2990.6926      9.451887e+08   0.1            19956560       1.5771746      990.55574      9905.557       8.5329275    
  59520800   55717.084     -32.789098     -43210362       0.6673259      149307.76     -43061054       981.38521      981.38521      981.38521      2009.3074      2990.6926      2009.3074      2990.6926      2009.3074      2990.6926      9.451887e+08   0.1            19956580       1.5974322      987.28612      9872.8539      8.5129063    
  59521000   56934.83      -33.346694     -43211216       0.6673259      152571.01     -43058645       981.38521      981.38521      981.38521      2009.3074      2990.6926      2009.3074      2990.6926      2009.3074      2990.6926      9.451887e+08   0.1            19956600       1.6175061      996.31662      9963.1672      8.4919152    
  59521200   58354.591     -33.878731     -43212073       0.6673259      156375.61     -43055697       981.38521      981.38521      981.38521      2009.3074      2990.6926      2009.3074      2990.6926      2009.3074      2990.6926      9.451887e+08   0.1            19956620       1.6375458      998.01888      9980.1858      8.4707696    
  59521400   59924.187     -34.247136     -43205557       0.6673259      160581.74     -43044975       981.38521      981.38521      981.38521      2009.3074      2990.6926      2009.3074      2990.6926      2009.3074      2990.6926      9.451887e+08   0.1            19956640       1.6577577      989.51559      9895.1554      8.4505291    
  59521600   61578.306     -34.755091     -43206423       0.6673259      165014.36     -43041409       981.38521      981.38521      981.38521      2009.3074      2990.6926      2009.3074      2990.6926      2009.3074      2990.6926      9.451887e+08   0.1            19956660       1.6779468      990.63434      9906.3493      8.4301741    
  59521800   63244.947     -35.410771     -43214672       0.6673259      169480.53     -43045192       981.38521      981.38521      981.38521      2009.3074      2990.6926      2009.3074      2990.6926      2009.3074      2990.6926      9.451887e+08   0.1            19956680       1.6981393      990.46622      9904.6602      8.4098404    
  59522000   64850.248     -35.913258     -43215548       0.6673259      173782.34     -43041766       981.38521      981.38521      981.38521      2009.3074      2990.6926      2009.3074      2990.6926      2009.3074      2990.6926      9.451887e+08   0.1            19956700       1.7183012      991.97138      9919.7241      8.3893604    
  59522200   66325.041     -36.383949     -43216426       0.6673259      177734.41     -43038692       981.38521      981.38521      981.38521      2009.3074      2990.6926      2009.3074      2990.6926      2009.3074      2990.6926      9.451887e+08   0.1            19956720       1.738345       997.81498      9978.1364      8.3683192    
  59522400   67608.441     -36.997271     -43224683       0.6673259      181173.6      -43043510       981.38521      981.38521      981.38521      2009.3074      2990.6926      2009.3074      2990.6926      2009.3074      2990.6926      9.451887e+08   0.1            19956740       1.7586555      984.71312      9847.135       8.3485672    
  59522600   68653.417     -37.24023      -43210807       0.6673259      183973.87     -43026833       981.38521      981.38521      981.38521      2009.3074      2990.6926      2009.3074      2990.6926      2009.3074      2990.6926      9.451887e+08   0.1            19956760       1.7789336      986.28147      9862.7981      8.3286515    
  59522800   69431.167     -37.98629      -43219064       0.6673259      186058.05     -43033006       981.38521      981.38521      981.38521      2009.3074      2990.6926      2009.3074      2990.6926      2009.3074      2990.6926      9.451887e+08   0.1            19956780       1.7992146      986.14627      9861.469       8.30874      
  59523000   69934.43      -38.794452     -43227319       0.6673259      187406.67     -43039912       981.38521      981.38521      981.38521      2009.3074      2990.6926      2009.3074      2990.6926      2009.3074      2990.6926      9.451887e+08   0.1            19956800       1.8198117      971.00775      9710.0812      8.2902607    
  59523200   70180.445     -39.216987     -43213436       0.6673259      188065.92     -43025370       981.38521      981.38521      981.38521      2009.3074      2990.6926      2009.3074      2990.6926      2009.3074      2990.6926      9.451887e+08   0.1            19956820       1.8399247      994.38555      9943.8328      8.2695593    
  59523400   70209.67      -39.769731     -43206926       0.6673259      188144.24     -43018782       981.38521      981.38521      981.38521      2009.3074      2990.6926      2009.3074      2990.6926      2009.3074      2990.6926      9.451887e+08   0.1            19956840       1.8601725      987.76217      9877.6461      8.2494675    
  59523600   70081.606     -40.416133     -43207786       0.6673259      187801.06     -43019985       981.38521      981.38521      981.38521      2009.3074      2990.6926      2009.3074      2990.6926      2009.3074      2990.6926      9.451887e+08   0.1            19956860       1.8803711      990.16759      9901.6832      8.2291577    
  59523800   69868.905     -41.047079     -43208636       0.6673259      187231.07     -43021405       981.38521      981.38521      981.38521      2009.3074      2990.6926      2009.3074      2990.6926      2009.3074      2990.6926      9.451887e+08   0.1            19956880       1.9005808      989.62125      9896.2125      8.2088984    
  59524000   69648.933     -41.686839     -43209476       0.6673259      186641.61     -43022834       981.38521      981.38521      981.38521      2009.3074      2990.6926      2009.3074      2990.6926      2009.3074      2990.6926      9.451887e+08   0.1            19956900       1.9210114      978.92722      9789.2689      8.1895815    
  59524200   69497.052     -42.186562     -43202929       0.6673259      186234.6      -43016694       981.38521      981.38521      981.38521      2009.3074      2990.6926      2009.3074      2990.6926      2009.3074      2990.6926      9.451887e+08   0.1            19956920       1.9411762      991.82297      9918.1957      8.1691239    
  59524400   69480.5       -42.811398     -43203752       0.6673259      186190.25     -43017561       981.38521      981.38521      981.38521      2009.3074      2990.6926      2009.3074      2990.6926      2009.3074      2990.6926      9.451887e+08   0.1            19956940       1.9613666      990.57311      9905.7743      8.1487768    
  59524600   69655.273     -43.382374     -43204566       0.6673259      186658.6      -43017908       981.38521      981.38521      981.38521      2009.3074      2990.6926      2009.3074      2990.6926      2009.3074      2990.6926      9.451887e+08   0.1            19956960       1.9818217      977.74764      9777.4463      8.1295204    
  59524800   70064.138     -43.899556     -43205374       0.6673259      187754.25     -43017620       981.38521      981.38521      981.38521      2009.3074      2990.6926      2009.3074      2990.6926      2009.3074      2990.6926      9.451887e+08   0.1            19956980       2.0022094      980.98618      9809.8854      8.1099654    
  59525000   70734.366     -44.261136     -43198800       0.6673259      189550.29     -43009249       981.38521      981.38521      981.38521      2009.3074      2990.6926      2009.3074      2990.6926      2009.3074      2990.6926      9.451887e+08   0.1            19957000       2.0222923      995.873        9958.7082      8.0891754    
  59525200   71675.331     -44.909532     -43206977       0.6673259      192071.84     -43014906       981.38521      981.38521      981.38521      2009.3074      2990.6926      2009.3074      2990.6926      2009.3074      2990.6926      9.451887e+08   0.1            19957020       2.0425159      988.94195      9889.4415      8.0689552    
  59525400   72875.656     -45.419738     -43207775       0.6673259      195288.41     -43012487       981.38521      981.38521      981.38521      2009.3074      2990.6926      2009.3074      2990.6926      2009.3074      2990.6926      9.451887e+08   0.1            19957040       2.0626082      995.40684      9954.067       8.0482227    
  59525600   74303.275     -46.063402     -43215950       0.6673259      199114.07     -43016836       981.38521      981.38521      981.38521      2009.3074      2990.6926      2009.3074      2990.6926      2009.3074      2990.6926      9.451887e+08   0.1            19957060       2.0828552      987.8033       9878.0217      8.0280982    
  59525800   75906.566     -46.514175     -43216748       0.6673259      203410.49     -43013338       981.38521      981.38521      981.38521      2009.3074      2990.6926      2009.3074      2990.6926      2009.3074      2990.6926      9.451887e+08   0.1            19957080       2.1030676      989.49126      9894.9292      8.0078399    
  59526000   77617.708     -46.892683     -43217546       0.6673259      207995.92     -43009550       981.38521      981.38521      981.38521      2009.3074      2990.6926      2009.3074      2990.6926      2009.3074      2990.6926      9.451887e+08   0.1            19957100       2.1231317      996.80484      9968.04        7.9870252    
  59526200   79360.734     -47.385659     -43225723       0.6673259      212666.79     -43013056       981.38521      981.38521      981.38521      2009.3074      2990.6926      2009.3074      2990.6926      2009.3074      2990.6926      9.451887e+08   0.1            19957120       2.143312       991.06201      9910.6461      7.9666558    
  59526400   81055.275     -47.732029     -43226521       0.6673259      217207.73     -43009313       981.38521      981.38521      981.38521      2009.3074      2990.6926      2009.3074      2990.6926      2009.3074      2990.6926      9.451887e+08   0.1            19957140       2.163346       998.30607      9983.0503      7.9457529    
  59526600   82624.411     -48.381864     -43242073       0.6673259      221412.62     -43020660       981.38521      981.38521      981.38521      2009.3074      2990.6926      2009.3074      2990.6926      2009.3074      2990.6926      9.451887e+08   0.1            19957160       2.1836217      986.39972      9863.9806      7.9257438    
  59526800   84000.123     -48.929117     -43250246       0.6673259      225099.18     -43025147       981.38521      981.38521      981.38521      2009.3074      2990.6926      2009.3074      2990.6926      2009.3074      2990.6926      9.451887e+08   0.1            19957180       2.2038291      989.73678      9897.3624      7.9054845    
  59527000   85127.806     -49.510458     -43258416       0.6673259      228121.09     -43030295       981.38521      981.38521      981.38521      2009.3074      2990.6926      2009.3074      2990.6926      2009.3074      2990.6926      9.451887e+08   0.1            19957200       2.2238854      997.19385      9971.9499      7.88469      
  59527200   85972.084     -49.968884     -43259204       0.6673259      230383.54     -43028821       981.38521      981.38521      981.38521      2009.3074      2990.6926      2009.3074      2990.6926      2009.3074      2990.6926      9.451887e+08   0.1            19957220       2.2441105      988.87075      9888.7027      7.8645008    
  59527400   86520.036     -50.307617     -43252608       0.6673259      231851.91     -43020756       981.38521      981.38521      981.38521      2009.3074      2990.6926      2009.3074      2990.6926      2009.3074      2990.6926      9.451887e+08   0.1            19957240       2.2641569      997.68557      9976.8522      7.8436917    
  59527600   86784.986     -50.681133     -43246005       0.6673259      232561.91     -43013443       981.38521      981.38521      981.38521      2009.3074      2990.6926      2009.3074      2990.6926      2009.3074      2990.6926      9.451887e+08   0.1            19957260       2.2843194      991.93994      9919.392       7.8232941    
  59527800   86805.154     -51.078637     -43239393       0.6673259      232615.96     -43006777       981.38521      981.38521      981.38521      2009.3074      2990.6926      2009.3074      2990.6926      2009.3074      2990.6926      9.451887e+08   0.1            19957280       2.3050337      965.51191      9655.1131      7.8047688    
  59528000   86640.89      -51.497628     -43232773       0.6673259      232175.77     -43000597       981.38521      981.38521      981.38521      2009.3074      2990.6926      2009.3074      2990.6926      2009.3074      2990.6926      9.451887e+08   0.1            19957300       2.3250785      997.76854      9977.6959      7.783964     
  59528200   86367.726     -52.246741     -43240898       0.6673259      231443.76     -43009454       981.38521      981.38521      981.38521      2009.3074      2990.6926      2009.3074      2990.6926      2009.3074      2990.6926      9.451887e+08   0.1            19957320       2.3452572      991.14732      9911.4796      7.7636151    
  59528400   86068.409     -53.18549      -43256391       0.6673259      230641.67     -43025749       981.38521      981.38521      981.38521      2009.3074      2990.6926      2009.3074      2990.6926      2009.3074      2990.6926      9.451887e+08   0.1            19957340       2.3652857      998.57573      9985.7543      7.742778     
  59528600   85825.263     -53.692137     -43249741       0.6673259      229990.1      -43019751       981.38521      981.38521      981.38521      2009.3074      2990.6926      2009.3074      2990.6926      2009.3074      2990.6926      9.451887e+08   0.1            19957360       2.3854447      992.11133      9921.1147      7.722377     
  59528800   85713.151     -54.127848     -43243082       0.6673259      229689.66     -43013393       981.38521      981.38521      981.38521      2009.3074      2990.6926      2009.3074      2990.6926      2009.3074      2990.6926      9.451887e+08   0.1            19957380       2.4056571      989.49356      9894.9321      7.7021508    
  59529000   85795.595     -55.051723     -43265926       0.6673259      229910.59     -43036015       981.38521      981.38521      981.38521      2009.3074      2990.6926      2009.3074      2990.6926      2009.3074      2990.6926      9.451887e+08   0.1            19957400       2.4260447      980.98955      9809.9162      7.6824795    
  59529200   86122.232     -55.509674     -43266626       0.6673259      230785.9      -43035840       981.38521      981.38521      981.38521      2009.3074      2990.6926      2009.3074      2990.6926      2009.3074      2990.6926      9.451887e+08   0.1            19957420       2.4462513      989.77361      9897.7356      7.6622298    
  59529400   86725.76      -55.975078     -43267317       0.6673259      232403.2      -43034913       981.38521      981.38521      981.38521      2009.3074      2990.6926      2009.3074      2990.6926      2009.3074      2990.6926      9.451887e+08   0.1            19957440       2.4662656      999.28531      9992.8506      7.6413851    
  59529600   87620.231     -56.467458     -43268001       0.6673259      234800.16     -43033201       981.38521      981.38521      981.38521      2009.3074      2990.6926      2009.3074      2990.6926      2009.3074      2990.6926      9.451887e+08   0.1            19957460       2.4864621      990.27319      9902.7309      7.6211119    
  59529800   88798.431     -57.07233      -43276059       0.6673259      237957.44     -43038101       981.38521      981.38521      981.38521      2009.3074      2990.6926      2009.3074      2990.6926      2009.3074      2990.6926      9.451887e+08   0.1            19957480       2.5066786      989.28799      9892.8691      7.6009012    
  59530000   90229.515     -57.422596     -43276735       0.6673259      241792.38     -43034943       981.38521      981.38521      981.38521      2009.3074      2990.6926      2009.3074      2990.6926      2009.3074      2990.6926      9.451887e+08   0.1            19957500       2.5267187      998.00026      9979.9936      7.5801607    
  59530200   91861.581     -57.650796     -43277407       0.6673259      246165.91     -43031241       981.38521      981.38521      981.38521      2009.3074      2990.6926      2009.3074      2990.6926      2009.3074      2990.6926      9.451887e+08   0.1            19957520       2.5469277      989.6567       9896.5744      7.559933     
  59530400   93625.12      -57.822987     -43278074       0.6673259      250891.75     -43027182       981.38521      981.38521      981.38521      2009.3074      2990.6926      2009.3074      2990.6926      2009.3074      2990.6926      9.451887e+08   0.1            19957540       2.5669453      999.12132      9991.2132      7.5391432    
  59530600   95439.558     -58.006668     -43278736       0.6673259      255753.99     -43022982       981.38521      981.38521      981.38521      2009.3074      2990.6926      2009.3074      2990.6926      2009.3074      2990.6926      9.451887e+08   0.1            19957560       2.5870887      992.88011      9928.8139      7.5187311    
  59530800   97219.644     -58.200576     -43279396       0.6673259      260524.17     -43018872       981.38521      981.38521      981.38521      2009.3074      2990.6926      2009.3074      2990.6926      2009.3074      2990.6926      9.451887e+08   0.1            19957580       2.6072452      992.23787      9922.3644      7.4983609    
  59531000   98881.875     -58.095974     -43265296       0.6673259      264978.53     -43000318       981.38521      981.38521      981.38521      2009.3074      2990.6926      2009.3074      2990.6926      2009.3074      2990.6926      9.451887e+08   0.1            19957600       2.6272818      998.17519      9981.7474      7.4776526    
  59531200   100350.43     -58.435853     -43273323       0.6673259      268913.88     -43004409       981.38521      981.38521      981.38521      2009.3074      2990.6926      2009.3074      2990.6926      2009.3074      2990.6926      9.451887e+08   0.1            19957620       2.6474983      989.28706      9892.8858      7.4574614    
  59531400   101564        -58.717785     -43273964       0.6673259      272165.94     -43001798       981.38521      981.38521      981.38521      2009.3074      2990.6926      2009.3074      2990.6926      2009.3074      2990.6926      9.451887e+08   0.1            19957640       2.6675092      999.45824      9994.57        7.4366968    
  59531600   102480.66     -59.108015     -43274598       0.6673259      274622.36     -42999975       981.38521      981.38521      981.38521      2009.3074      2990.6926      2009.3074      2990.6926      2009.3074      2990.6926      9.451887e+08   0.1            19957660       2.687656       992.70905      9927.1092      7.4163182    
  59531800   103082.29     -59.577842     -43275222       0.6673259      276234.6      -42998988       981.38521      981.38521      981.38521      2009.3074      2990.6926      2009.3074      2990.6926      2009.3074      2990.6926      9.451887e+08   0.1            19957680       2.7079198      986.98658      9869.839       7.3962628    
  59532000   103377.03     -60.080909     -43275837       0.6673259      277024.42     -42998813       981.38521      981.38521      981.38521      2009.3074      2990.6926      2009.3074      2990.6926      2009.3074      2990.6926      9.451887e+08   0.1            19957700       2.7285844      967.83441      9678.3652      7.3772881    
  59532200   103400.28     -60.58067      -43276441       0.6673259      277086.71     -42999354       981.38521      981.38521      981.38521      2009.3074      2990.6926      2009.3074      2990.6926      2009.3074      2990.6926      9.451887e+08   0.1            19957720       2.7487779      990.41913      9904.182       7.3570275    
  59532400   103211.43     -60.906611     -43269655       0.6673259      276580.65     -42993074       981.38521      981.38521      981.38521      2009.3074      2990.6926      2009.3074      2990.6926      2009.3074      2990.6926      9.451887e+08   0.1            19957740       2.7688693      995.45391      9954.5441      7.3364971    
  59532600   102888.01     -61.491188     -43277613       0.6673259      275713.95     -43001899       981.38521      981.38521      981.38521      2009.3074      2990.6926      2009.3074      2990.6926      2009.3074      2990.6926      9.451887e+08   0.1            19957760       2.7892686      980.4208       9804.2186      7.3167812    
  59532800   102516.86     -61.906245     -43278181       0.6673259      274719.38     -43003462       981.38521      981.38521      981.38521      2009.3074      2990.6926      2009.3074      2990.6926      2009.3074      2990.6926      9.451887e+08   0.1            19957780       2.8095579      985.74592      9857.432       7.2967695    
  59533000   102185.91     -62.439835     -43286114       0.6673259      273832.51     -43012282       981.38521      981.38521      981.38521      2009.3074      2990.6926      2009.3074      2990.6926      2009.3074      2990.6926      9.451887e+08   0.1            19957800       2.8297503      990.47156      9904.7255      7.2765047    
  59533200   101978.02     -62.99893      -43294035       0.6673259      273275.42     -43020760       981.38521      981.38521      981.38521      2009.3074      2990.6926      2009.3074      2990.6926      2009.3074      2990.6926      9.451887e+08   0.1            19957820       2.8499494      990.14063      9901.4219      7.256258     
  59533400   101965.2      -63.310302     -43287188       0.6673259      273241.07     -43013947       981.38521      981.38521      981.38521      2009.3074      2990.6926      2009.3074      2990.6926      2009.3074      2990.6926      9.451887e+08   0.1            19957840       2.8699628      999.33275      9993.308       7.235544     
  59533600   102204.75     -63.737425     -43287710       0.6673259      273882.99     -43013827       981.38521      981.38521      981.38521      2009.3074      2990.6926      2009.3074      2990.6926      2009.3074      2990.6926      9.451887e+08   0.1            19957860       2.8901247      991.96754      9919.6764      7.2152104    
  59533800   102735.51     -64.068073     -43288221       0.6673259      275305.29     -43012915       981.38521      981.38521      981.38521      2009.3074      2990.6926      2009.3074      2990.6926      2009.3074      2990.6926      9.451887e+08   0.1            19957880       2.9103684      987.96222      9879.6261      7.1950814    
  59534000   103576.06     -64.293629     -43288720       0.6673259      277557.75     -43011163       981.38521      981.38521      981.38521      2009.3074      2990.6926      2009.3074      2990.6926      2009.3074      2990.6926      9.451887e+08   0.1            19957900       2.9304187      997.49151      9974.9191      7.1744771    
  59534200   104722.71     -64.286095     -43281833       0.6673259      280630.49     -43001202       981.38521      981.38521      981.38521      2009.3074      2990.6926      2009.3074      2990.6926      2009.3074      2990.6926      9.451887e+08   0.1            19957920       2.9506213      989.97183      9899.7144      7.1542499    
  59534400   106147.96     -64.35306      -43282316       0.6673259      284449.81     -42997867       981.38521      981.38521      981.38521      2009.3074      2990.6926      2009.3074      2990.6926      2009.3074      2990.6926      9.451887e+08   0.1            19957940       2.9707696      992.6382       9926.348       7.133893     
  59534600   107800.11     -64.397189     -43282793       0.6673259      288877.17     -42993916       981.38521      981.38521      981.38521      2009.3074      2990.6926      2009.3074      2990.6926      2009.3074      2990.6926      9.451887e+08   0.1            19957960       2.9912711      975.5378       9755.4004      7.1143782    
  59534800   109608.65     -64.590577     -43290642       0.6673259      293723.6      -42996919       981.38521      981.38521      981.38521      2009.3074      2990.6926      2009.3074      2990.6926      2009.3074      2990.6926      9.451887e+08   0.1            19957980       3.0116035      983.65393      9836.5418      7.0944523    
  59535000   111488.97     -64.618539     -43291108       0.6673259      298762.37     -42992346       981.38521      981.38521      981.38521      2009.3074      2990.6926      2009.3074      2990.6926      2009.3074      2990.6926      9.451887e+08   0.1            19958000       3.0316613      997.11937      9971.1907      7.0738801    
  59535200   113349.88     -64.588036     -43291566       0.6673259      303749.14     -42987817       981.38521      981.38521      981.38521      2009.3074      2990.6926      2009.3074      2990.6926      2009.3074      2990.6926      9.451887e+08   0.1            19958020       3.051877       989.32959      9893.2978      7.0536796    
  59535400   115101.74     -64.52969      -43292016       0.6673259      308443.69     -42983572       981.38521      981.38521      981.38521      2009.3074      2990.6926      2009.3074      2990.6926      2009.3074      2990.6926      9.451887e+08   0.1            19958040       3.0719131      998.1989       9981.978       7.0330678    
  59535600   116663.32     -64.639525     -43299836       0.6673259      312628.32     -42987208       981.38521      981.38521      981.38521      2009.3074      2990.6926      2009.3074      2990.6926      2009.3074      2990.6926      9.451887e+08   0.1            19958060       3.0920852      991.46664      9914.6881      7.0127719    
  59535800   117966.12     -64.666536     -43300269       0.6673259      316119.49     -42984150       981.38521      981.38521      981.38521      2009.3074      2990.6926      2009.3074      2990.6926      2009.3074      2990.6926      9.451887e+08   0.1            19958080       3.1128556      962.90709      9629.0699      6.9938221    
  59536000   118961.96     -65.039059     -43315449       0.6673259      318788.09     -42996661       981.38521      981.38521      981.38521      2009.3074      2990.6926      2009.3074      2990.6926      2009.3074      2990.6926      9.451887e+08   0.1            19958100       3.1329324      996.17479      9961.7454      6.9733047    
  59536200   119626.67     -65.023496     -43308486       0.6673259      320569.36     -42987916       981.38521      981.38521      981.38521      2009.3074      2990.6926      2009.3074      2990.6926      2009.3074      2990.6926      9.451887e+08   0.1            19958120       3.1531611      988.69702      9886.9814      6.9531279    
  59536400   119963.3      -64.887503     -43294133       0.6673259      321471.45     -42972662       981.38521      981.38521      981.38521      2009.3074      2990.6926      2009.3074      2990.6926      2009.3074      2990.6926      9.451887e+08   0.1            19958140       3.1733377      991.24797      9912.4689      6.9328367    
  59536600   120002.88     -65.087183     -43294524       0.6673259      321577.51     -42972946       981.38521      981.38521      981.38521      2009.3074      2990.6926      2009.3074      2990.6926      2009.3074      2990.6926      9.451887e+08   0.1            19958160       3.1935071      991.60138      9916.0237      6.9125313    
  59536800   119803.03     -65.356602     -43294902       0.6673259      321041.96     -42973860       981.38521      981.38521      981.38521      2009.3074      2990.6926      2009.3074      2990.6926      2009.3074      2990.6926      9.451887e+08   0.1            19958180       3.2136962      990.63135      9906.3012      6.89227      
  59537000   119441.99     -65.521724     -43287892       0.6673259      320074.46     -42967818       981.38521      981.38521      981.38521      2009.3074      2990.6926      2009.3074      2990.6926      2009.3074      2990.6926      9.451887e+08   0.1            19958200       3.2337904      995.31446      9953.1391      6.8718079    
  59537200   119009.73     -65.817071     -43288249       0.6673259      318916.1      -42969333       981.38521      981.38521      981.38521      2009.3074      2990.6926      2009.3074      2990.6926      2009.3074      2990.6926      9.451887e+08   0.1            19958220       3.2540284      988.23736      9882.3819      6.8516532    
  59537400   118600.06     -66.057123     -43288594       0.6673259      317818.3      -42970775       981.38521      981.38521      981.38521      2009.3074      2990.6926      2009.3074      2990.6926      2009.3074      2990.6926      9.451887e+08   0.1            19958240       3.2741491      994.0018       9940.0017      6.8312526    
  59537600   118302.11     -66.382083     -43296304       0.6673259      317019.87     -42979284       981.38521      981.38521      981.38521      2009.3074      2990.6926      2009.3074      2990.6926      2009.3074      2990.6926      9.451887e+08   0.1            19958260       3.2943358      990.74986      9907.5139      6.810992     
  59537800   118195.35     -66.815866     -43311380       0.6673259      316733.78     -42994646       981.38521      981.38521      981.38521      2009.3074      2990.6926      2009.3074      2990.6926      2009.3074      2990.6926      9.451887e+08   0.1            19958280       3.3145747      988.1999       9882.0015      6.7908391    
  59538000   118344.29     -66.94646      -43311689       0.6673259      317132.91     -42994556       981.38521      981.38521      981.38521      2009.3074      2990.6926      2009.3074      2990.6926      2009.3074      2990.6926      9.451887e+08   0.1            19958300       3.334626       997.43927      9974.3908      6.7703045    
  59538200   118795.26     -67.35107      -43326743       0.6673259      318341.38     -43008402       981.38521      981.38521      981.38521      2009.3074      2990.6926      2009.3074      2990.6926      2009.3074      2990.6926      9.451887e+08   0.1            19958320       3.3551118      976.28554      9762.8334      6.75065      
  59538400   119573.03     -67.447432     -43327032       0.6673259      320425.62     -43006606       981.38521      981.38521      981.38521      2009.3074      2990.6926      2009.3074      2990.6926      2009.3074      2990.6926      9.451887e+08   0.1            19958340       3.3764744      936.2155       9362.1659      6.7327336    
  59538600   120678        -67.346627     -43319933       0.6673259      323386.65     -42996547       981.38521      981.38521      981.38521      2009.3074      2990.6926      2009.3074      2990.6926      2009.3074      2990.6926      9.451887e+08   0.1            19958360       3.3966052      993.50289      9935.0476      6.7123419    
  59538800   122084.74     -67.334578     -43320203       0.6673259      327156.37     -42993047       981.38521      981.38521      981.38521      2009.3074      2990.6926      2009.3074      2990.6926      2009.3074      2990.6926      9.451887e+08   0.1            19958380       3.4167535      992.64184      9926.4012      6.6919876    
  59539000   123742.75     -67.298233     -43320463       0.6673259      331599.42     -42988864       981.38521      981.38521      981.38521      2009.3074      2990.6926      2009.3074      2990.6926      2009.3074      2990.6926      9.451887e+08   0.1            19958400       3.4367687      999.24123      9992.4282      6.6713775    
  59539200   125580.45     -67.234181     -43320714       0.6673259      336524        -42984190       981.38521      981.38521      981.38521      2009.3074      2990.6926      2009.3074      2990.6926      2009.3074      2990.6926      9.451887e+08   0.1            19958420       3.4574889      965.23555      9652.3401      6.652131     
  59539400   127511.03     -67.120373     -43320955       0.6673259      341697.47     -42979258       981.38521      981.38521      981.38521      2009.3074      2990.6926      2009.3074      2990.6926      2009.3074      2990.6926      9.451887e+08   0.1            19958440       3.4781956      965.87641      9658.7855      6.6328411    
  59539600   129440.03     -67.107982     -43328567       0.6673259      346866.69     -42981700       981.38521      981.38521      981.38521      2009.3074      2990.6926      2009.3074      2990.6926      2009.3074      2990.6926      9.451887e+08   0.1            19958460       3.4982767      995.9581       9959.528       6.6123529    
  59539800   131272.63     -66.943659     -43328792       0.6673259      351777.59     -42977014       981.38521      981.38521      981.38521      2009.3074      2990.6926      2009.3074      2990.6926      2009.3074      2990.6926      9.451887e+08   0.1            19958480       3.5185878      984.68611      9846.9101      6.5922995    
  59540000   132921.02     -66.667121     -43321629       0.6673259      356194.88     -42965434       981.38521      981.38521      981.38521      2009.3074      2990.6926      2009.3074      2990.6926      2009.3074      2990.6926      9.451887e+08   0.1            19958500       3.5387138      993.73821      9937.3865      6.5718999    
  59540200   134311.61     -66.579178     -43321835       0.6673259      359921.31     -42961913       981.38521      981.38521      981.38521      2009.3074      2990.6926      2009.3074      2990.6926      2009.3074      2990.6926      9.451887e+08   0.1            19958520       3.5589322      989.19928      9891.9781      6.5516735    
  59540400   135390.51     -66.371778     -43314655       0.6673259      362812.49     -42951842       981.38521      981.38521      981.38521      2009.3074      2990.6926      2009.3074      2990.6926      2009.3074      2990.6926      9.451887e+08   0.1            19958540       3.5790575      993.77406      9937.7386      6.5312772    
  59540600   136127.47     -66.00548      -43300088       0.6673259      364787.36     -42935301       981.38521      981.38521      981.38521      2009.3074      2990.6926      2009.3074      2990.6926      2009.3074      2990.6926      9.451887e+08   0.1            19958560       3.5996318      972.08677      9720.8696      6.5116961    
  59540800   136519.89     -66.046786     -43307647       0.6673259      365838.93     -42941809       981.38521      981.38521      981.38521      2009.3074      2990.6926      2009.3074      2990.6926      2009.3074      2990.6926      9.451887e+08   0.1            19958580       3.6198756      987.95373      9879.5344      6.4915116    
  59541000   136593.29     -65.942471     -43307817       0.6673259      366035.63     -42941782       981.38521      981.38521      981.38521      2009.3074      2990.6926      2009.3074      2990.6926      2009.3074      2990.6926      9.451887e+08   0.1            19958600       3.6398709      1000.2354      10002.4        6.4708841    
  59541200   136401.56     -65.85822      -43307976       0.6673259      365521.85     -42942454       981.38521      981.38521      981.38521      2009.3074      2990.6926      2009.3074      2990.6926      2009.3074      2990.6926      9.451887e+08   0.1            19958620       3.6600057      993.30784      9933.0369      6.45051      
  59541400   136021.7      -65.536033     -43293368       0.6673259      364503.92     -42928864       981.38521      981.38521      981.38521      2009.3074      2990.6926      2009.3074      2990.6926      2009.3074      2990.6926      9.451887e+08   0.1            19958640       3.6802179      989.50026      9895.0168      6.4302735    
  59541600   135545.56     -65.718055     -43300883       0.6673259      363227.99     -42937655       981.38521      981.38521      981.38521      2009.3074      2990.6926      2009.3074      2990.6926      2009.3074      2990.6926      9.451887e+08   0.1            19958660       3.7004086      990.55305      9905.5172      6.4100001    
  59541800   135070.79     -65.804346     -43301012       0.6673259      361955.72     -42939056       981.38521      981.38521      981.38521      2009.3074      2990.6926      2009.3074      2990.6926      2009.3074      2990.6926      9.451887e+08   0.1            19958680       3.720548       993.07617      9930.7598      6.3896396    
  59542000   134692.52     -65.863148     -43301131       0.6673259      360942.05     -42940189       981.38521      981.38521      981.38521      2009.3074      2990.6926      2009.3074      2990.6926      2009.3074      2990.6926      9.451887e+08   0.1            19958700       3.7405775      998.53026      9985.3061      6.3690941    
  59542200   134497.27     -65.894285     -43301240       0.6673259      360418.81     -42940821       981.38521      981.38521      981.38521      2009.3074      2990.6926      2009.3074      2990.6926      2009.3074      2990.6926      9.451887e+08   0.1            19958720       3.7608579      986.17666      9861.7589      6.3489778    
  59542400   134556.92     -65.913883     -43301341       0.6673259      360578.67     -42940762       981.38521      981.38521      981.38521      2009.3074      2990.6926      2009.3074      2990.6926      2009.3074      2990.6926      9.451887e+08   0.1            19958740       3.7815697      965.62776      9656.2622      6.3295821    
  59542600   134924.5      -66.052267     -43308811       0.6673259      361563.69     -42947247       981.38521      981.38521      981.38521      2009.3074      2990.6926      2009.3074      2990.6926      2009.3074      2990.6926      9.451887e+08   0.1            19958760       3.8017208      992.50121      9925.047       6.3092415    
  59542800   135630.9      -66.172462     -43316273       0.6673259      363456.66     -42952817       981.38521      981.38521      981.38521      2009.3074      2990.6926      2009.3074      2990.6926      2009.3074      2990.6926      9.451887e+08   0.1            19958780       3.8216924      1001.428       10014.3        6.2886072    
  59543000   136681.61     -66.107759     -43316350       0.6673259      366272.32     -42950078       981.38521      981.38521      981.38521      2009.3074      2990.6926      2009.3074      2990.6926      2009.3074      2990.6926      9.451887e+08   0.1            19958800       3.8416985      999.69529      9996.9085      6.2680369    
  59543200   138055.35     -65.965367     -43316418       0.6673259      369953.57     -42946464       981.38521      981.38521      981.38521      2009.3074      2990.6926      2009.3074      2990.6926      2009.3074      2990.6926      9.451887e+08   0.1            19958820       3.8618409      992.92758      9929.2777      6.2476929    
  59543400   139703.98     -65.744152     -43316477       0.6673259      374371.48     -42942106       981.38521      981.38521      981.38521      2009.3074      2990.6926      2009.3074      2990.6926      2009.3074      2990.6926      9.451887e+08   0.1            19958840       3.8819941      992.39995      9924.001       6.227368     
  59543600   141556.28     -65.318085     -43309151       0.6673259      379335.18     -42929815       981.38521      981.38521      981.38521      2009.3074      2990.6926      2009.3074      2990.6926      2009.3074      2990.6926      9.451887e+08   0.1            19958860       3.90231        984.4445       9844.4387      6.2073041    
  59543800   143524.36     -64.71256      -43294440       0.6673259      384609.15     -42909831       981.38521      981.38521      981.38521      2009.3074      2990.6926      2009.3074      2990.6926      2009.3074      2990.6926      9.451887e+08   0.1            19958880       3.922421       994.48444      9944.8474      6.186914     
  59544000   145510.44     -64.529895     -43301857       0.6673259      389931.35     -42911926       981.38521      981.38521      981.38521      2009.3074      2990.6926      2009.3074      2990.6926      2009.3074      2990.6926      9.451887e+08   0.1            19958900       3.9424037      1000.8687      10008.751      6.1663258    
  59544200   147415.07     -64.49866      -43316645       0.6673259      395035.29     -42921610       981.38521      981.38521      981.38521      2009.3074      2990.6926      2009.3074      2990.6926      2009.3074      2990.6926      9.451887e+08   0.1            19958920       3.962559       992.29439      9922.8858      6.1460123    
  59544400   149145.23     -64.054395     -43309291       0.6673259      399671.65     -42909620       981.38521      981.38521      981.38521      2009.3074      2990.6926      2009.3074      2990.6926      2009.3074      2990.6926      9.451887e+08   0.1            19958940       3.9827795      989.08945      9890.8955      6.1258003    
  59544600   150621.39     -63.772266     -43309307       0.6673259      403627.41     -42905679       981.38521      981.38521      981.38521      2009.3074      2990.6926      2009.3074      2990.6926      2009.3074      2990.6926      9.451887e+08   0.1            19958960       4.0029438      991.85469      9918.5592      6.1055025    
  59544800   151783.29     -63.532838     -43309314       0.6673259      406741.02     -42902573       981.38521      981.38521      981.38521      2009.3074      2990.6926      2009.3074      2990.6926      2009.3074      2990.6926      9.451887e+08   0.1            19958980       4.0229066      1001.8632      10018.648      6.0849012    
  59545000   152594.73     -63.361818     -43309313       0.6673259      408915.46     -42900398       981.38521      981.38521      981.38521      2009.3074      2990.6926      2009.3074      2990.6926      2009.3074      2990.6926      9.451887e+08   0.1            19959000       4.042894       1000.6297      10006.311      6.0643431    
  59545200   153047.49     -63.111383     -43301928       0.6673259      410128.75     -42891799       981.38521      981.38521      981.38521      2009.3074      2990.6926      2009.3074      2990.6926      2009.3074      2990.6926      9.451887e+08   0.1            19959020       4.0633586      977.29958      9772.96        6.044501     
  59545400   153163.01     -63.181671     -43309291       0.6673259      410438.3      -42898853       981.38521      981.38521      981.38521      2009.3074      2990.6926      2009.3074      2990.6926      2009.3074      2990.6926      9.451887e+08   0.1            19959040       4.0834615      994.88188      9948.8223      6.0241188    
  59545600   152991.84     -62.692467     -43287138       0.6673259      409979.63     -42877159       981.38521      981.38521      981.38521      2009.3074      2990.6926      2009.3074      2990.6926      2009.3074      2990.6926      9.451887e+08   0.1            19959060       4.1041193      968.15435      9681.5192      6.0045513    
  59545800   152607.65     -62.651422     -43287113       0.6673259      408950.09     -42878162       981.38521      981.38521      981.38521      2009.3074      2990.6926      2009.3074      2990.6926      2009.3074      2990.6926      9.451887e+08   0.1            19959080       4.1241409      998.92241      9989.2416      5.9840499    
  59546000   152102.23     -62.474765     -43279703       0.6673259      407595.67     -42872107       981.38521      981.38521      981.38521      2009.3074      2990.6926      2009.3074      2990.6926      2009.3074      2990.6926      9.451887e+08   0.1            19959100       4.1441685      998.6236       9986.218       5.9635619    
  59546200   151575.98     -62.414809     -43279665       0.6673259      406185.47     -42873480       981.38521      981.38521      981.38521      2009.3074      2990.6926      2009.3074      2990.6926      2009.3074      2990.6926      9.451887e+08   0.1            19959120       4.1643644      990.30109      9903.0614      5.9433182    
  59546400   151129.49     -61.751889     -43250112       0.6673259      404988.98     -42845123       981.38521      981.38521      981.38521      2009.3074      2990.6926      2009.3074      2990.6926      2009.3074      2990.6926      9.451887e+08   0.1            19959140       4.1845264      991.96267      9919.5938      5.9230276    
  59546600   150854.73     -61.756815     -43257444       0.6673259      404252.7      -42853191       981.38521      981.38521      981.38521      2009.3074      2990.6926      2009.3074      2990.6926      2009.3074      2990.6926      9.451887e+08   0.1            19959160       4.2047254      990.14773      9901.4842      5.9027898    
  59546800   150829.74     -61.274236     -43242637       0.6673259      404185.72     -42838451       981.38521      981.38521      981.38521      2009.3074      2990.6926      2009.3074      2990.6926      2009.3074      2990.6926      9.451887e+08   0.1            19959180       4.2247214      1000.2004      10002.047      5.8822696    
  59547000   151114.61     -61.024642     -43242581       0.6673259      404949.11     -42837632       981.38521      981.38521      981.38521      2009.3074      2990.6926      2009.3074      2990.6926      2009.3074      2990.6926      9.451887e+08   0.1            19959200       4.2447563      998.26133      9982.556       5.8618085    
  59547200   151745.94     -60.88484      -43249898       0.6673259      406640.9      -42843257       981.38521      981.38521      981.38521      2009.3074      2990.6926      2009.3074      2990.6926      2009.3074      2990.6926      9.451887e+08   0.1            19959220       4.2649048      992.6282       9926.2766      5.8415069    
  59547400   152735.86     -60.576971     -43249833       0.6673259      409293.64     -42840540       981.38521      981.38521      981.38521      2009.3074      2990.6926      2009.3074      2990.6926      2009.3074      2990.6926      9.451887e+08   0.1            19959240       4.2849827      996.11887      9961.2001      5.8211107    
  59547600   154067.1      -60.277635     -43249763       0.6673259      412861.03     -42836902       981.38521      981.38521      981.38521      2009.3074      2990.6926      2009.3074      2990.6926      2009.3074      2990.6926      9.451887e+08   0.1            19959260       4.3051544      991.48921      9914.9137      5.8008439    
  59547800   155695.62     -60.008163     -43249690       0.6673259      417225.05     -42832465       981.38521      981.38521      981.38521      2009.3074      2990.6926      2009.3074      2990.6926      2009.3074      2990.6926      9.451887e+08   0.1            19959280       4.3251067      1002.3901      10023.935      5.7802847    
  59548000   157551.63     -59.874279     -43256992       0.6673259      422198.7      -42834794       981.38521      981.38521      981.38521      2009.3074      2990.6926      2009.3074      2990.6926      2009.3074      2990.6926      9.451887e+08   0.1            19959300       4.3450782      1001.4247      10014.231      5.7597567    
  59548200   159546.18     -59.418396     -43249537       0.6673259      427543.59     -42821993       981.38521      981.38521      981.38521      2009.3074      2990.6926      2009.3074      2990.6926      2009.3074      2990.6926      9.451887e+08   0.1            19959320       4.3652225      992.83792      9928.3387      5.7394613    
  59548400   161578.88     -58.940139     -43242078       0.6673259      432990.71     -42809088       981.38521      981.38521      981.38521      2009.3074      2990.6926      2009.3074      2990.6926      2009.3074      2990.6926      9.451887e+08   0.1            19959340       4.3853014      996.06931      9960.6911      5.7190818    
  59548600   163545.97     -58.74955      -43249371       0.6673259      438262.03     -42811109       981.38521      981.38521      981.38521      2009.3074      2990.6926      2009.3074      2990.6926      2009.3074      2990.6926      9.451887e+08   0.1            19959360       4.4054637      991.95072      9919.5293      5.6988128    
  59548800   165350.55     -58.399357     -43249282       0.6673259      443097.84     -42806184       981.38521      981.38521      981.38521      2009.3074      2990.6926      2009.3074      2990.6926      2009.3074      2990.6926      9.451887e+08   0.1            19959380       4.4264553      952.76101      9527.5965      5.6796091    
  59549000   166908.28     -57.612196     -43227057       0.6673259      447272.17     -42779785       981.38521      981.38521      981.38521      2009.3074      2990.6926      2009.3074      2990.6926      2009.3074      2990.6926      9.451887e+08   0.1            19959400       4.4464958      997.98352      9979.8158      5.6591785    
  59549200   168154.31     -57.137526     -43219588       0.6673259      450611.22     -42768977       981.38521      981.38521      981.38521      2009.3074      2990.6926      2009.3074      2990.6926      2009.3074      2990.6926      9.451887e+08   0.1            19959420       4.4666939      990.19082      9901.9332      5.6389504    
  59549400   169045.59     -56.975171     -43226875       0.6673259      452999.61     -42773875       981.38521      981.38521      981.38521      2009.3074      2990.6926      2009.3074      2990.6926      2009.3074      2990.6926      9.451887e+08   0.1            19959440       4.4868229      993.58956      9935.8852      5.6186361    
  59549600   169567.46     -56.824887     -43234161       0.6673259      454398.1      -42779763       981.38521      981.38521      981.38521      2009.3074      2990.6926      2009.3074      2990.6926      2009.3074      2990.6926      9.451887e+08   0.1            19959460       4.5072749      977.90205      9779.0201      5.5987246    
  59549800   169734.47     -56.571167     -43234068       0.6673259      454845.66     -42779222       981.38521      981.38521      981.38521      2009.3074      2990.6926      2009.3074      2990.6926      2009.3074      2990.6926      9.451887e+08   0.1            19959480       4.5273038      998.55439      9985.5499      5.578287     
[...]
  60194400   307.87798      1.4916643     -43179137       0.67948231     825.03549     -43178312       975.4974       975.4974       975.4974       2012.2513      2987.7487      2012.2513      2987.7487      2012.2513      2987.7487      9.2827862e+08  0.1            20023940       35.049488      826.62137      8266.2226      1.2837754    
  60194600   307.86157      1.5645724     -43179224       0.67948704     824.99149     -43178399       975.49514      975.49514      975.49514      2012.2524      2987.7476      2012.2524      2987.7476      2012.2524      2987.7476      9.2827216e+08  0.1            20023960       35.073506      832.71265      8327.1314      1.2595459    
  60194800   307.829        1.1164869     -43179310       0.67947511     824.90421     -43178485       975.50085      975.50085      975.50085      2012.2496      2987.7504      2012.2496      2987.7504      2012.2496      2987.7504      9.2828846e+08  0.1            20023980       35.097948      818.25809      8182.5832      1.2353316    
  60195000   307.71299     -0.44587045    -43164641       0.67941831     824.59335     -43163816       975.52803      975.52803      975.52803      2012.236       2987.764       2012.236       2987.764       2012.236       2987.764       9.2836606e+08  0.1            20024000       35.121994      831.7282       8317.2741      1.2111033    
  60195200   307.81987      2.4159187     -43179481       0.67952142     824.87976     -43178656       975.47868      975.47868      975.47868      2012.2607      2987.7393      2012.2607      2987.7393      2012.2607      2987.7393      9.2822519e+08  0.1            20024020       35.146392      819.73939      8197.3969      1.1868872    
  60195400   307.84909     -0.16098801    -43172191       0.67943684     824.95805     -43171366       975.51916      975.51916      975.51916      2012.2404      2987.7596      2012.2404      2987.7596      2012.2404      2987.7596      9.2834074e+08  0.1            20024040       35.170417      832.48967      8324.8947      1.1626585    
  60195600   307.85989      2.5232559     -43179653       0.67952962     824.98701     -43178828       975.47476      975.47476      975.47476      2012.2626      2987.7374      2012.2626      2987.7374      2012.2626      2987.7374      9.2821399e+08  0.1            20024060       35.19478       820.90436      8209.0436      1.138441     
  60195800   307.84518      3.577271      -43187115       0.67957029     824.94758     -43186290       975.4553       975.4553       975.4553       2012.2724      2987.7276      2012.2724      2987.7276      2012.2724      2987.7276      9.2815844e+08  0.1            20024080       35.219121      821.66197      8216.6217      1.1142226    
  60196000   307.75157      4.2747609     -43187199       0.67959495     824.69672     -43186374       975.4435       975.4435       975.4435       2012.2782      2987.7218      2012.2782      2987.7218      2012.2782      2987.7218      9.2812476e+08  0.1            20024100       35.243376      824.58837      8245.8796      1.0900014    
  60196200   307.77908     -0.7213187     -43179913       0.67943316     824.77045     -43179088       975.52092      975.52092      975.52092      2012.2395      2987.7605      2012.2395      2987.7605      2012.2395      2987.7605      9.2834577e+08  0.1            20024120       35.267626      824.72955      8247.2975      1.06578      
  60196400   307.87511      3.1654269     -43187374       0.67956427     825.02778     -43186549       975.45818      975.45818      975.45818      2012.2709      2987.7291      2012.2709      2987.7291      2012.2709      2987.7291      9.2816666e+08  0.1            20024140       35.291957      821.98001      8219.8112      1.0415609    
  60196600   307.82539     -0.18729082    -43180085       0.679455       824.89454     -43179260       975.51047      975.51047      975.51047      2012.2448      2987.7552      2012.2448      2987.7552      2012.2448      2987.7552      9.2831593e+08  0.1            20024160       35.315982      832.46691      8324.6642      1.0173329    
  60196800   307.80372      0.52418975    -43180171       0.6794801      824.83646     -43179346       975.49845      975.49845      975.49845      2012.2508      2987.7492      2012.2508      2987.7492      2012.2508      2987.7492      9.2828163e+08  0.1            20024180       35.340025      831.84807      8318.48        0.99310563   
  60197000   307.68977     -0.91489476    -43180257       0.67943657     824.53111     -43179432       975.51929      975.51929      975.51929      2012.2404      2987.7596      2012.2404      2987.7596      2012.2404      2987.7596      9.2834112e+08  0.1            20024200       35.364295      824.07879      8240.7933      0.96888484   
  60197200   307.80308      2.7895822     -43187718       0.67956181     824.83475     -43186893       975.45936      975.45936      975.45936      2012.2703      2987.7297      2012.2703      2987.7297      2012.2703      2987.7297      9.2817003e+08  0.1            20024220       35.388461      827.59092      8275.903       0.94466123   
  60197400   307.83437      0.10483131    -43187806       0.67947852     824.9186      -43186981       975.49922      975.49922      975.49922      2012.2504      2987.7496      2012.2504      2987.7496      2012.2504      2987.7496      9.282838e+08   0.1            20024240       35.412679      825.84301      8258.4307      0.92043903   
  60197600   307.81147     -0.6724138     -43187892       0.67945611     824.85724     -43187067       975.50994      975.50994      975.50994      2012.245       2987.755       2012.245       2987.755       2012.245       2987.755       9.2831442e+08  0.1            20024260       35.436701      832.57143      8325.7084      0.8962119    
  60197800   307.78691     -0.31234709    -43180600       0.67946537     824.79143     -43179775       975.5055       975.5055       975.5055       2012.2472      2987.7528      2012.2472      2987.7528      2012.2472      2987.7528      9.2830176e+08  0.1            20024280       35.460923      825.69841      8256.9947      0.87198995   
  60198000   307.70103      0.9811092     -43188064       0.67951367     824.5613      -43187239       975.48239      975.48239      975.48239      2012.2588      2987.7412      2012.2588      2987.7412      2012.2588      2987.7412      9.2823578e+08  0.1            20024300       35.485107      826.9723       8269.7072      0.84776712   
  60198200   307.7903       2.4691548     -43188148       0.67956354     824.80052     -43187323       975.45853      975.45853      975.45853      2012.2707      2987.7293      2012.2707      2987.7293      2012.2707      2987.7293      9.2816767e+08  0.1            20024320       35.509347      825.08581      8250.8714      0.82354561   
  60198400   307.84157      1.9372194     -43188234       0.67954896     824.93791     -43187409       975.4655       975.4655       975.4655       2012.2672      2987.7328      2012.2672      2987.7328      2012.2672      2987.7328      9.2818757e+08  0.1            20024340       35.533375      832.37395      8323.7323      0.79931932   
  60198600   307.82315      1.6880335     -43188320       0.67954342     824.88855     -43187495       975.46816      975.46816      975.46816      2012.2659      2987.7341      2012.2659      2987.7341      2012.2659      2987.7341      9.2819515e+08  0.1            20024360       35.557623      824.80727      8248.0761      0.77509809   
  60198800   307.78177      0.39772284    -43181029       0.67950005     824.77765     -43180204       975.48891      975.48891      975.48891      2012.2555      2987.7445      2012.2555      2987.7445      2012.2555      2987.7445      9.2825439e+08  0.1            20024380       35.58178       827.90418      8279.0435      0.75087492   
  60199000   307.67801     -0.13798067    -43181115       0.67948537     824.49959     -43180290       975.49593      975.49593      975.49593      2012.252       2987.748       2012.252       2987.748       2012.252       2987.748       9.2827444e+08  0.1            20024400       35.606036      824.55624      8245.5631      0.72665383   
  60199200   307.76137      0.6304203     -43181200       0.67951229     824.72299     -43180376       975.48305      975.48305      975.48305      2012.2585      2987.7415      2012.2585      2987.7415      2012.2585      2987.7415      9.2823766e+08  0.1            20024420       35.630063      832.38514      8323.8421      0.7024282    
  60199400   307.81091     -0.13394986    -43181286       0.67949033     824.85574     -43180461       975.49356      975.49356      975.49356      2012.2532      2987.7468      2012.2532      2987.7468      2012.2532      2987.7468      9.2826767e+08  0.1            20024440       35.654328      824.24507      8242.4555      0.67820736   
  60199600   307.79842      0.219311      -43181372       0.67950402     824.82229     -43180547       975.48701      975.48701      975.48701      2012.2565      2987.7435      2012.2565      2987.7435      2012.2565      2987.7435      9.2824897e+08  0.1            20024460       35.678359      832.26734      8322.6692      0.65398217   
  60199800   307.78832      2.1316157     -43181456       0.67956743     824.79521     -43180631       975.45667      975.45667      975.45667      2012.2717      2987.7283      2012.2717      2987.7283      2012.2717      2987.7283      9.2816234e+08  0.1            20024480       35.702686      822.13311      8221.3432      0.62976246   
  60200000   307.68785      2.037444      -43181542       0.67956686     824.52598     -43180717       975.45694      975.45694      975.45694      2012.2715      2987.7285      2012.2715      2987.7285      2012.2715      2987.7285      9.2816313e+08  0.1            20024500       35.726915      825.43226      8254.3155      0.60554097   
  60200200   307.74451      0.032871582   -43181628       0.67950535     824.6778      -43180804       975.48637      975.48637      975.48637      2012.2568      2987.7432      2012.2568      2987.7432      2012.2568      2987.7432      9.2824714e+08  0.1            20024520       35.751145      825.41986      8254.1969      0.58131947   
  60200400   307.798       -0.28342959    -43181714       0.67949769     824.82115     -43180889       975.49004      975.49004      975.49004      2012.255       2987.745       2012.255       2987.745       2012.255       2987.745       9.2825761e+08  0.1            20024540       35.775471      822.16531      8221.6494      0.55709945   
  60200600   307.8007       1.7680256     -43181799       0.67956556     824.82837     -43180974       975.45756      975.45756      975.45756      2012.2712      2987.7288      2012.2712      2987.7288      2012.2712      2987.7288      9.281649e+08   0.1            20024560       35.800048      813.77771      8137.7821      0.53288302   
  60200800   307.77961      2.5083243     -43181883       0.67959161     824.77186     -43181058       975.4451       975.4451       975.4451       2012.2775      2987.7225      2012.2775      2987.7225      2012.2775      2987.7225      9.2812932e+08  0.1            20024580       35.824068      832.64824      8326.4768      0.50865819   
  60201000   307.66104      0.45549145    -43181970       0.67952858     824.45413     -43181146       975.47526      975.47526      975.47526      2012.2624      2987.7376      2012.2624      2987.7376      2012.2624      2987.7376      9.2821541e+08  0.1            20024600       35.848306      825.13445      8251.3483      0.4844366    
  60201200   307.72587     -0.70202595    -43182055       0.67949409     824.62786     -43181231       975.49176      975.49176      975.49176      2012.2541      2987.7459      2012.2541      2987.7459      2012.2541      2987.7459      9.2826252e+08  0.1            20024620       35.872328      832.57267      8325.7236      0.4602122    
  60201400   307.80152      1.3119711     -43182141       0.67956079     824.83058     -43181316       975.45984      975.45984      975.45984      2012.2701      2987.7299      2012.2701      2987.7299      2012.2701      2987.7299      9.2817141e+08  0.1            20024640       35.89667       821.64458      8216.4455      0.43599196   
  60201600   307.79917      2.867783      -43182224       0.67961287     824.82429     -43181399       975.43493      975.43493      975.43493      2012.2825      2987.7175      2012.2825      2987.7175      2012.2825      2987.7175      9.2810028e+08  0.1            20024660       35.920775      829.67887      8296.7912      0.41176886   
  60201800   307.75219      0.90563552    -43182312       0.67955274     824.69839     -43181487       975.4637       975.4637       975.4637       2012.2682      2987.7318      2012.2682      2987.7318      2012.2682      2987.7318      9.2818241e+08  0.1            20024680       35.944962      826.89957      8268.9988      0.38754678   
  60202000   307.63514     -1.0424458     -43182397       0.67949303     824.38473     -43181572       975.49227      975.49227      975.49227      2012.2539      2987.7461      2012.2539      2987.7461      2012.2539      2987.7461      9.2826397e+08  0.1            20024700       35.969015      831.4977       8314.9742      0.3633234    
  60202200   307.72992      0.91122713    -43182482       0.67955784     824.63871     -43181657       975.46126      975.46126      975.46126      2012.2694      2987.7306      2012.2694      2987.7306      2012.2694      2987.7306      9.2817545e+08  0.1            20024720       35.993186      827.44294      8274.4232      0.33910137   
  60202400   307.8108       3.4944467     -43182564       0.67964271     824.85545     -43181739       975.42065      975.42065      975.42065      2012.2897      2987.7103      2012.2897      2987.7103      2012.2897      2987.7103      9.2805954e+08  0.1            20024740       36.018083      803.31786      8033.1828      0.31488574   
  60202600   307.77183      1.2675298     -43182652       0.67957413     824.75102     -43181828       975.45346      975.45346      975.45346      2012.2733      2987.7267      2012.2733      2987.7267      2012.2733      2987.7267      9.281532e+08   0.1            20024760       36.042146      831.15688      8311.5702      0.29066248   
  60202800   307.70543     -2.7411442     -43182735       0.67944862     824.57307     -43181911       975.51352      975.51352      975.51352      2012.2432      2987.7568      2012.2432      2987.7568      2012.2432      2987.7568      9.2832464e+08  0.1            20024780       36.066377      825.38345      8253.8314      0.26644067   
  60203000   307.64018      0.62756189    -43182823       0.67955864     824.39824     -43181999       975.46087      975.46087      975.46087      2012.2696      2987.7304      2012.2696      2987.7304      2012.2696      2987.7304      9.2817435e+08  0.1            20024800       36.090676      823.06214      8230.6237      0.24221932   
  60203200   307.76374      5.6053631     -43182899       0.67971994     824.72935     -43182074       975.38371      975.38371      975.38371      2012.3081      2987.6919      2012.3081      2987.6919      2012.3081      2987.6919      9.2795409e+08  0.1            20024820       36.114914      825.16819      8251.6799      0.21799748   
  60203400   307.77627      1.1227547     -43182993       0.67957939     824.76291     -43182168       975.45095      975.45095      975.45095      2012.2745      2987.7255      2012.2745      2987.7255      2012.2745      2987.7255      9.2814602e+08  0.1            20024840       36.139059      828.31904      8283.1907      0.19377513   
  60203600   307.72234     -2.6854819     -43183076       0.67946024     824.6184      -43182251       975.50796      975.50796      975.50796      2012.246       2987.754       2012.246       2987.754       2012.246       2987.754       9.2830877e+08  0.1            20024860       36.163451      819.93481      8199.3491      0.16955403   
  60203800   307.73228      1.2071617     -43183163       0.67958703     824.64504     -43182338       975.44729      975.44729      975.44729      2012.2764      2987.7236      2012.2764      2987.7236      2012.2764      2987.7236      9.2813558e+08  0.1            20024880       36.187635      827.01436      8270.1542      0.14533187   
  60204000   307.65516      3.355976      -43183245       0.6796581      824.43838     -43182421       975.41329      975.41329      975.41329      2012.2934      2987.7066      2012.2934      2987.7066      2012.2934      2987.7066      9.2803853e+08  0.1            20024900       36.211882      824.83036      8248.2979      0.12110998   
  60204200   307.70406      0.58124947    -43183333       0.67957199     824.56941     -43182509       975.45449      975.45449      975.45449      2012.2728      2987.7272      2012.2728      2987.7272      2012.2728      2987.7272      9.2815612e+08  0.1            20024920       36.235918      832.07243      8320.7215      0.096887487  
  60204400   307.74857     -0.6180665     -43183418       0.67953615     824.68869     -43182594       975.47163      975.47163      975.47163      2012.2642      2987.7358      2012.2642      2987.7358      2012.2642      2987.7358      9.2820507e+08  0.1            20024940       36.26015       825.37973      8253.8007      0.072665634  
  60204600   307.75254      1.5972079     -43183503       0.67960938     824.69932     -43182678       975.4366       975.4366       975.4366       2012.2817      2987.7183      2012.2817      2987.7183      2012.2817      2987.7183      9.2810506e+08  0.1            20024960       36.284327      827.21333      8272.134       0.048443697  
  60204800   307.73041      2.1859513     -43183587       0.67963065     824.64002     -43182762       975.42642      975.42642      975.42642      2012.2868      2987.7132      2012.2868      2987.7132      2012.2868      2987.7132      9.2807601e+08  0.1            20024980       36.308574      824.85343      8248.5224      0.024221865  
  60205000   307.61428      0.23025598    -43183673       0.67957067     824.32882     -43182849       975.45512      975.45512      975.45512      2012.2724      2987.7276      2012.2724      2987.7276      2012.2724      2987.7276      9.2815793e+08  0.1            20025000       36.332651      830.68245      8306.8304      0            
Loop time of 36.3327 on 1 procs for 300000 steps with 900 atoms

Performance: 71.341 ns/day, 0.336 hours/ns, 8257.034 timesteps/s
99.7% CPU use with 1 MPI tasks x 1 OpenMP threads

MPI task timing breakdown:
Section |  min time  |  avg time  |  max time  |%varavg| %total
---------------------------------------------------------------
Pair    | 26.522     | 26.522     | 26.522     |   0.0 | 73.00
Neigh   | 0.026669   | 0.026669   | 0.026669   |   0.0 |  0.07
Comm    | 1.1872     | 1.1872     | 1.1872     |   0.0 |  3.27
Output  | 0.027391   | 0.027391   | 0.027391   |   0.0 |  0.08
Modify  | 7.7231     | 7.7231     | 7.7231     |   0.0 | 21.26
Other   |            | 0.8461     |            |       |  2.33

Nlocal:            900 ave         900 max         900 min
Histogram: 1 0 0 0 0 0 0 0 0 0
Nghost:           1136 ave        1136 max        1136 min
Histogram: 1 0 0 0 0 0 0 0 0 0
Neighs:           4877 ave        4877 max        4877 min
Histogram: 1 0 0 0 0 0 0 0 0 0

Total # of neighbors = 4877
Ave neighs/atom = 5.4188889
Neighbor list builds = 58
Dangerous builds = 24

# run_style
run_style verlet

# write restart
write_restart ${write_res}
write_restart ./pgnpmf/100900/equpmf86.res
System init for write_restart ...
Generated 0 of 1 mixed pair_coeff terms from geometric mixing rule

Total wall time: 0:01:17
