ITEM: TIMESTEP
0
ITEM: NUMBER OF ATOMS
1000
ITEM: BOX BOUNDS pp pp pp
-1.0000000000000000e+02 4.1000000000000000e+03
-1.0000000000000000e+02 4.1000000000000000e+03
-1.0000000000000000e+02 4.1000000000000000e+03
ITEM: ATOMS type x y z ix iy iz
1 248.097 537.234 150.425 0 0 0
1 643.77 619.979 265.887 0 0 0
1 48.702 744.015 341.826 0 0 0
1 584.566 773.505 897.79 0 0 0
1 83.926 497.614 775.342 0 0 0
1 702.485 24.39 768.496 0 0 0
1 386.633 881.407 539.797 0 0 0
1 671.747 325.396 728.784 0 0 0
1 486.015 688.881 445.989 0 0 0
1 311.663 687.314 536.824 0 0 0
1 184.561 776.86 183.72 0 0 0
1 453.97 656.991 724.325 0 0 0
1 879.28 727.705 774.522 0 0 0
1 549.873 112.637 231.497 0 0 0
1 763.064 277.441 958.372 0 0 0
1 620.812 804.629 4.359 0 0 0
1 323.268 613.103 60.925 0 0 0
1 48.438 371.876 4.638 0 0 0
1 657.415 83.013 432.418 0 0 0
1 201.168 826.566 44.129 0 0 0
1 480.532 313.752 172.703 0 0 0
1 165.812 58.008 489.473 0 0 0
1 816.133 759.536 569.963 0 0 0
1 299.012 869.578 340.219 0 0 0
1 263.695 806.791 706.687 0 0 0
1 18.718 1.791 895.312 0 0 0
1 757.541 578.439 590.521 0 0 0
1 523.618 541.88 184.211 0 0 0
1 538.686 84.879 724.115 0 0 0
1 531.745 686.408 825.218 0 0 0
1 355.583 384.045 581.55 0 0 0
1 557.102 436.967 386.842 0 0 0
1 64.921 397.152 343.935 0 0 0
1 758.211 293.977 238.807 0 0 0
1 1.064 286.2 360.338 0 0 0
1 847.176 166.563 960.527 0 0 0
1 874.999 902.052 446.573 0 0 0
1 743.018 631.668 118.74 0 0 0
1 3304.56 237.404 482.497 0 0 0
1 2541.72 965.578 394.625 0 0 0
1 2900.78 493.7 293.316 0 0 0
1 3034.79 467.97 124.025 0 0 0
1 3329.97 873.894 150.09 0 0 0
1 2976.13 91.517 416.845 0 0 0
1 2990.33 396.588 222.02 0 0 0
1 2785.47 786.333 499.353 0 0 0
1 2636.34 873.002 225.833 0 0 0
1 2879.89 463.192 643.142 0 0 0
1 2829.82 279.142 448.582 0 0 0
1 3370.64 842.758 356.982 0 0 0
1 2886.77 393.388 134.578 0 0 0
1 3042.19 719.958 354.679 0 0 0
1 3255.13 938.803 563.827 0 0 0
1 2904.87 734.728 76.31 0 0 0
1 3069.51 411.416 348.025 0 0 0
1 3128.59 367.888 506.425 0 0 0
1 3115.32 292.458 260.299 0 0 0
1 2953.35 506.39 500.433 0 0 0
1 2748.96 193.404 212.385 0 0 0
1 2735.21 312.502 90.282 0 0 0
1 2912.31 674.595 549.122 0 0 0
1 3310.61 819.745 648.206 0 0 0
1 3434.56 348.769 294.353 0 0 0
1 2728.4 936.018 -0 0 0 0
1 2924.68 212.944 209.75 0 0 0
1 2972.55 7.248 194.254 0 0 0
1 2780.02 223.014 612.944 0 0 0
1 3255.08 220.303 368.302 0 0 0
1 2663.91 295.47 595.034 0 0 0
1 2955.81 955.894 625.884 0 0 0
1 3014.23 540.723 393.918 0 0 0
1 3140.54 170.859 410.633 0 0 0
1 3297.76 671.676 474.984 0 0 0
1 3230.73 648.36 184.351 0 0 0
1 3122.58 881.554 570.433 0 0 0
1 295.091 3819.08 703.158 0 0 0
1 915.553 3972.01 498.377 0 0 0
1 1968.81 3999.99 0.003 0 0 0
1 353.978 3431.07 208.761 0 0 0
1 239.431 2000.03 0.11 0 0 0
1 -0 2536.81 1143.96 0 0 0
1 47.136 2683.49 701.258 0 0 0
1 465.787 3615.73 236.923 0 0 0
1 577.106 3576.82 791.991 0 0 0
1 0.065 3519.49 723.642 0 0 0
1 190.281 3584.26 361.884 0 0 0
1 129.88 3977.25 329.975 0 0 0
1 923.738 3622.13 301.615 0 0 0
1 259.389 3999.98 0.011 0 0 0
1 209.388 3367.53 808.109 0 0 0
1 204.539 3613.39 747.533 0 0 0
1 908.417 3341.17 871.803 0 0 0
1 638.945 3888.87 124.464 0 0 0
1 463.189 3402.93 132.941 0 0 0
1 507.888 3613.91 488.386 0 0 0
1 817.226 3789.14 609.236 0 0 0
1 46.789 3992.47 434.041 0 0 0
1 0.091 3391.62 0.034 0 0 0
1 889.995 3824.35 462.893 0 0 0
1 1663.89 3230.59 1100.18 0 0 0
1 1894.44 3234.3 740.638 0 0 0
1 1111.67 2493.22 0.042 0 0 0
1 732.431 3831.31 63.523 0 0 0
1 308.997 3410.53 636.646 0 0 0
1 599.304 3188.86 607.881 0 0 0
1 132.605 3038.55 67.175 0 0 0
1 1729.78 3402.31 1999.99 0 0 0
1 649.746 3874.56 324.446 0 0 0
1 11.312 3998.21 317.679 0 0 0
1 739.687 3009.19 114.564 0 0 0
1 127.996 3050.66 446.798 0 0 0
1 76.046 3211.48 485.899 0 0 0
1 296.999 3967.7 265.793 0 0 0
1 963.599 353.026 3981.9 0 0 0
1 25.235 429.418 3255.82 0 0 0
1 924.216 802.654 3603.77 0 0 0
1 79.867 189.594 3205.26 0 0 0
1 396.422 321.604 2992.52 0 0 0
1 99.334 441.459 3675.51 0 0 0
1 596.417 178.251 3690.3 0 0 0
1 211.445 113.481 3731.72 0 0 0
1 29.033 104.191 3577.33 0 0 0
1 414.013 317.639 3117.14 0 0 0
1 611.485 682.63 3322.55 0 0 0
1 691.083 845.577 3579.3 0 0 0
1 390.278 25.785 3792.54 0 0 0
1 539.927 815.514 3271.76 0 0 0
1 637.057 894.512 3745.68 0 0 0
1 933.124 338.603 3743.66 0 0 0
1 193.726 404.662 3806.73 0 0 0
1 973.998 871.85 3465.1 0 0 0
1 329.441 620.624 2853.56 0 0 0
1 119.871 17.374 3158.6 0 0 0
1 667.258 265.73 3004.29 0 0 0
1 330.516 165.85 3892.66 0 0 0
1 156.954 815.196 3268.36 0 0 0
1 119.485 903.283 3087.22 0 0 0
1 101.548 889.018 2890.21 0 0 0
1 919.881 151.569 3697.19 0 0 0
1 574.361 298.573 3744.87 0 0 0
1 186.252 544.478 3090.1 0 0 0
1 304.307 305.785 2907.04 0 0 0
1 949.179 803.54 3870.96 0 0 0
1 854.604 450.687 3780.94 0 0 0
1 262.535 396.697 2990.47 0 0 0
1 587.768 745.85 3422.96 0 0 0
1 420.575 179.208 3313.42 0 0 0
1 910.522 562.987 3509.69 0 0 0
1 172.835 97.851 3862.2 0 0 0
1 909.04 307.113 3360.31 0 0 0
1 2889.91 3211.84 242.116 0 0 0
1 3356.56 3575.96 872.156 0 0 0
1 3708.56 3528.37 110.528 0 0 0
1 3558.11 2918.3 292.459 0 0 0
1 2807.18 3535.06 20.157 0 0 0
1 3594.23 3076.15 757.743 0 0 0
1 3293.64 2742.24 281.21 0 0 0
1 3744.34 3379.66 301.405 0 0 0
1 2662.59 3140.82 783.762 0 0 0
1 3217.09 3497.82 877.642 0 0 0
1 2646.02 3770.35 225.434 0 0 0
1 2677.23 3592.84 344.874 0 0 0
1 3134.74 2820.9 927.744 0 0 0
1 2964.9 2850.61 194.256 0 0 0
1 3448.23 2778.25 563.451 0 0 0
1 3512.73 3519.91 11.622 0 0 0
1 3755.19 3770.66 850.613 0 0 0
1 3492.91 2770.03 845.34 0 0 0
1 2696.72 2896.51 102.152 0 0 0
1 3200.95 2864.45 93.154 0 0 0
1 2896.31 3652.84 145.92 0 0 0
1 2786.2 2847.82 22.704 0 0 0
1 3114.54 2834.94 687.107 0 0 0
1 3525.99 3744.82 32.719 0 0 0
1 2614.01 3575.59 498.161 0 0 0
1 2760.19 3532.5 707.827 0 0 0
1 3579.09 3622.44 134.547 0 0 0
1 2789.87 3241.41 915.508 0 0 0
1 3133.72 3554.41 482.234 0 0 0
1 3473.64 3088.08 763.995 0 0 0
1 3456.12 2927.95 693.837 0 0 0
1 2707.95 3580.33 906.511 0 0 0
1 3374.63 3169.33 814.397 0 0 0
1 2704.86 3308.69 112.732 0 0 0
1 3168.6 2778.67 343.83 0 0 0
1 2746.18 3088.95 455.227 0 0 0
1 3739.29 3661.78 526.445 0 0 0
1 3097.4 3055.78 683.976 0 0 0
1 3073.6 736.241 3270.7 0 0 0
1 2708.29 758.626 3190.05 0 0 0
1 3349.21 431.448 3247.12 0 0 0
1 3817.48 166.758 2808.48 0 0 0
1 3017.04 158.708 3783.36 0 0 0
1 4000 421.12 2000 0 0 0
1 3380.04 872.702 3536.79 0 0 0
1 3153.11 132.885 2722.11 0 0 0
1 3721.59 128.373 3490.02 0 0 0
1 2676.02 778.571 2816.53 0 0 0
1 3873.02 563.998 3109.67 0 0 0
1 2695.36 694.476 3561.77 0 0 0
1 3424.9 652.259 3810.06 0 0 0
1 2932.54 19.38 2821.63 0 0 0
1 3254.35 325.737 3423.19 0 0 0
1 3729.47 718.644 3056.53 0 0 0
1 3413.43 687.155 3397.4 0 0 0
1 3517.92 850.985 3279.6 0 0 0
1 2000 661.315 4000 0 0 0
1 3786.35 786.8 3257.98 0 0 0
1 3186.68 934.162 3401.72 0 0 0
1 2718.1 278.351 2969.13 0 0 0
1 3405.21 933.904 3752.91 0 0 0
1 3782.39 142.965 3684.73 0 0 0
1 3810.93 777.153 2896.12 0 0 0
1 2956.32 340.613 3234.6 0 0 0
1 3323.48 29.915 3364.01 0 0 0
1 2679.51 964.855 3628.79 0 0 0
1 2811.78 489.324 3290.08 0 0 0
1 3637.1 580.659 3150.72 0 0 0
1 3100.95 328.263 3786.17 0 0 0
1 3087.84 560.294 3192.9 0 0 0
1 3551.67 686.738 3343.3 0 0 0
1 2999.88 970.502 2860.28 0 0 0
1 3162.74 585.463 3840.18 0 0 0
1 2681.56 702.341 3353.76 0 0 0
1 2907.28 575.701 2906.39 0 0 0
1 122.138 3162.94 3452.96 0 0 0
1 157.977 2858.52 2998.15 0 0 0
1 403.253 3379.54 3237.12 0 0 0
1 236.198 4000 4000 0 0 0
1 511.286 2848.07 3219.84 0 0 0
1 397.268 3857.88 2764.43 0 0 0
1 626.62 3726.42 2900.72 0 0 0
1 447.363 3605.24 3880.17 0 0 0
1 613.5 3491.6 3509.99 0 0 0
1 629.297 3054.42 3196.19 0 0 0
1 600.896 3959.95 3206.39 0 0 0
1 223.403 3906.69 2875.84 0 0 0
1 288.867 2707.86 3381.62 0 0 0
1 839.701 3575.69 3230.93 0 0 0
1 638.639 3000.82 3350.71 0 0 0
1 561.606 3412.65 3596.2 0 0 0
1 15.41 3205.19 2955.9 0 0 0
1 251.488 3881.62 3736.83 0 0 0
1 76.764 3727.65 3346.69 0 0 0
1 832.253 3061.39 3488.58 0 0 0
1 20.142 3384.4 2764.41 0 0 0
1 762.627 3829.3 3565.54 0 0 0
1 456.516 3492.26 3400.05 0 0 0
1 566.162 3352.23 3916.6 0 0 0
1 244.043 3208.94 3267.74 0 0 0
1 155.256 3322.55 3212.43 0 0 0
1 733.308 2705.19 3810.78 0 0 0
1 629.04 3080.49 2994.55 0 0 0
1 958.989 2243.07 2000 0 0 0
1 7.666 3125.47 3692.64 0 0 0
1 453.083 2812.46 3463.1 0 0 0
1 419.575 2981.19 2808.07 0 0 0
1 646.241 3748.25 3627.17 0 0 0
1 817.944 3638.26 2843.8 0 0 0
1 374.491 3780.88 3886.05 0 0 0
1 123.008 3834.39 3750.09 0 0 0
1 226.838 3526.99 3738.94 0 0 0
1 677.406 3334.91 2818.11 0 0 0
1 2953.88 2859.88 3185.36 0 0 0
1 2863.44 3269.53 3310.58 0 0 0
1 3403.43 3310.17 2566.77 0 0 0
1 3568.22 3152.56 2885.79 0 0 0
1 3362.35 2593.13 3563.68 0 0 0
1 3556.9 2598.65 3304.15 0 0 0
1 3010.39 3125.14 2888.77 0 0 0
1 2658.07 2807.53 2916.33 0 0 0
1 3318.83 3589.31 2625.86 0 0 0
1 3456.63 2957.05 3090.03 0 0 0
1 2000 3748.52 3925.93 0 0 0
1 3156.45 2970.07 2568.1 0 0 0
1 3523.49 2852.71 3056.07 0 0 0
1 3418.51 2902.34 3547.29 0 0 0
1 2406.2 3321.27 3238.52 0 0 0
1 3258.42 3466.15 2976.99 0 0 0
1 3343.22 3252.3 2902.06 0 0 0
1 3587.61 2956.65 2821.27 0 0 0
1 3587.36 2972.78 3604.01 0 0 0
1 3559.25 3596.46 2578.47 0 0 0
1 4000 2000 2984.4 0 0 0
1 3350.03 3527.65 3076.61 0 0 0
1 2740.62 3455.41 3445.25 0 0 0
1 3593.37 2638.47 3511.77 0 0 0
1 3111.77 3058.55 2895.34 0 0 0
1 3364.57 2727.92 3209.79 0 0 0
1 3476.72 3647.49 2756.44 0 0 0
1 3371.84 2689.91 2843.67 0 0 0
1 2637.65 3041.58 3351.94 0 0 0
1 2748.29 3215.58 2944.31 0 0 0
1 3117.11 3271.25 2681.57 0 0 0
1 3082.53 2695.31 2635.67 0 0 0
1 3558.78 3644.36 3273.92 0 0 0
1 3132.09 3057.83 2719.49 0 0 0
1 3489.67 2819.1 3436.67 0 0 0
1 3117.24 2576.69 3098.74 0 0 0
1 3530.1 3281.82 3382.6 0 0 0
2 245.973 432.847 565.898 0 0 0
2 971.098 61.374 581.425 0 0 0
2 471.282 1970.14 866.891 0 0 0
2 852.839 754.578 61.037 0 0 0
2 984.404 763.261 111.688 0 0 0
2 833.322 420.226 302.641 0 0 0
2 109.76 984.946 296.728 0 0 0
2 802.2 266.146 400.55 0 0 0
2 489.043 249.601 657.257 0 0 0
2 583.649 809.878 277.376 0 0 0
2 575.865 882.161 774.614 0 0 0
2 157.199 1424.09 869.547 0 0 0
2 615.767 81.571 860.898 0 0 0
2 1450.57 1735.53 1209.16 0 0 0
2 304.359 33.566 410.35 0 0 0
2 865.63 10.983 472.981 0 0 0
2 652.671 725.228 654.406 0 0 0
2 144.906 1637.6 531.194 0 0 0
2 761.755 836.019 39.391 0 0 0
2 269.97 501.348 1273.77 0 0 0
2 556.279 0 963.983 0 0 0
2 665.693 916.179 984.795 0 0 0
2 848.894 1181.85 1960.79 0 0 0
2 237.044 971.642 805.654 0 0 0
2 697.774 421.189 308.852 0 0 0
2 893.188 1234.49 0.901 0 0 0
2 1634.79 1614.74 687.183 0 0 0
2 941.756 245.749 292.984 0 0 0
2 114.855 145.091 223.506 0 0 0
2 791.84 724.252 413.14 0 0 0
2 261.592 93.117 556.188 0 0 0
2 617.779 435.808 1583.01 0 0 0
2 130.777 341.438 542.002 0 0 0
2 144.984 275.729 222.802 0 0 0
2 392.241 471.568 924.652 0 0 0
2 9.382 331.792 516.446 0 0 0
2 207.454 1431.38 1930.21 0 0 0
2 189.941 340.273 1462.6 0 0 0
2 357.669 143.473 62.867 0 0 0
2 60.971 606.844 455.005 0 0 0
2 683.261 1025.35 12.784 0 0 0
2 688.342 216.723 528.732 0 0 0
2 121.912 354.499 118.67 0 0 0
2 493.089 867.572 2.21 0 0 0
2 170.396 573.079 14.935 0 0 0
2 134.048 62.839 35.095 0 0 0
2 1569.4 1784.08 901.443 0 0 0
2 140.619 555.845 607.167 0 0 0
2 542.264 760.664 694.271 0 0 0
2 924.6 88.062 149.708 0 0 0
2 810.052 433.664 502.789 0 0 0
2 607.113 259.521 7.37 0 0 0
2 364.721 839.655 -0 0 0 0
2 885.872 824.118 161.785 0 0 0
2 289.339 341.587 922.986 0 0 0
2 560.756 929.66 188.59 0 0 0
2 423.336 147.879 488.129 0 0 0
2 946.442 882.331 599.997 0 0 0
2 58.016 614.334 988.853 0 0 0
2 1621.67 777.272 282.295 0 0 0
2 24.218 69.155 555.359 0 0 0
2 1041.47 600.961 471.887 0 0 0
2 925.502 16.334 327.777 0 0 0
2 173.193 8.279 349.891 0 0 0
2 2.388 143.845 98.898 0 0 0
2 487.723 730.758 21.063 0 0 0
2 347.889 197.986 402.74 0 0 0
2 1029.83 518.191 692.728 0 0 0
2 935.804 405.437 188.321 0 0 0
2 645.445 -0 645.587 0 0 0
2 873.027 522.481 951.228 0 0 0
2 293.155 499.426 469.468 0 0 0
2 1269.91 828.395 646.988 0 0 0
2 1105.56 1010.6 622.789 0 0 0
2 88.845 237.985 6.702 0 0 0
2 46.349 1592.21 22.576 0 0 0
2 1576.83 1846.2 702.26 0 0 0
2 44.409 206.918 772.819 0 0 0
2 482.025 175.684 793.004 0 0 0
2 470.341 531.095 363.93 0 0 0
2 922.573 276.448 90.928 0 0 0
2 27.826 4.266 710.67 0 0 0
2 765.024 491.073 55.761 0 0 0
2 319.044 943.924 691.539 0 0 0
2 169.621 734.632 655.276 0 0 0
2 196.831 774.051 510.691 0 0 0
2 407.584 135.578 312.947 0 0 0
2 615.244 599.81 468.264 0 0 0
2 2283.57 37.407 883.505 0 0 0
2 2721.03 885.861 381.731 0 0 0
2 2557.47 360.281 328.506 0 0 0
2 2322.95 648.109 128.987 0 0 0
2 2495.46 259.485 900.101 0 0 0
2 2462.62 160.846 665.011 0 0 0
2 2732.76 331.203 892.978 0 0 0
2 2481.75 4.618 410.618 0 0 0
2 2666.03 181.77 888.423 0 0 0
2 2617.12 4.012 746.346 0 0 0
2 2412.83 932.255 384.754 0 0 0
2 2682.77 669.686 913.484 0 0 0
2 2625.98 770.468 518.457 0 0 0
2 2523.58 138.875 973.577 0 0 0
2 2719.18 573.692 625.005 0 0 0
2 2683.69 588.525 224.029 0 0 0
2 2605.08 1021.92 219.242 0 0 0
2 2340.05 279.078 672.316 0 0 0
2 2532.04 945.675 5.609 0 0 0
2 2315.76 473.469 182.201 0 0 0
2 2619.25 217.657 746.313 0 0 0
2 2580.09 165.216 526.905 0 0 0
2 2313.86 763.766 532.456 0 0 0
2 2429.69 384.05 302.53 0 0 0
2 2516.77 421.144 707.117 0 0 0
2 2278.45 280.285 790.99 0 0 0
2 2404.43 654.854 485.478 0 0 0
2 2777.19 673.674 253.882 0 0 0
2 2401.59 734.582 966.696 0 0 0
2 2326.05 477.243 448.897 0 0 0
2 2301.21 374.964 389.186 0 0 0
2 2632.06 897.215 596.701 0 0 0
2 2517.83 727.212 552.315 0 0 0
2 2785.11 638.519 542.345 0 0 0
2 2543.16 72.086 601.659 0 0 0
2 2232.69 100.011 147.108 0 0 0
2 2301.56 963.326 909.324 0 0 0
2 2692.04 288.68 420.703 0 0 0
2 2383.01 695.375 844.842 0 0 0
2 2742.9 481.73 124.691 0 0 0
2 2548.76 123.562 813.742 0 0 0
2 2761.52 899.108 984.663 0 0 0
2 2572.51 526.906 432.288 0 0 0
2 2433.97 594.298 726.391 0 0 0
2 2473.51 501.648 283.667 0 0 0
2 2447.43 750.644 345.803 0 0 0
2 2816.57 62.076 145.877 0 0 0
2 2694.65 812.585 656.383 0 0 0
2 2344.76 76.16 374.442 0 0 0
2 2374.12 261.569 461.124 0 0 0
2 2353.62 134.417 913.452 0 0 0
2 2514.5 784.677 445.87 0 0 0
2 2746.28 577.924 397.203 0 0 0
2 2403.91 154.486 804.732 0 0 0
2 2791.29 287.45 295.096 0 0 0
2 2387.63 347.374 173.123 0 0 0
2 2309.86 302.156 289.274 0 0 0
2 2657.45 741.628 247.733 0 0 0
2 2304.34 0 475.773 0 0 0
2 2384.89 833.812 62.42 0 0 0
2 2443.85 181.743 2.157 0 0 0
2 2341.5 176.462 67.009 0 0 0
2 2422.29 825.479 186.456 0 0 0
2 2356.71 463.538 565.449 0 0 0
2 2539.95 260.689 648.852 0 0 0
2 2316.03 405.657 911.587 0 0 0
2 2756.42 143.034 418.253 0 0 0
2 2389.98 932.787 539.876 0 0 0
2 2348.5 119.224 508.271 0 0 0
2 2677.38 426.541 755.638 0 0 0
2 2457.13 39.064 149.972 0 0 0
2 2547.87 545.769 566.345 0 0 0
2 2762.39 36.436 570.521 0 0 0
2 2498.64 400.056 430.518 0 0 0
2 2541.86 637.734 333.809 0 0 0
2 2280.8 790.065 985.487 0 0 0
2 2627.4 405.044 949.283 0 0 0
2 2739.67 705.967 420.492 0 0 0
2 2323.12 816.745 321.294 0 0 0
2 2392.19 621.126 273.243 0 0 0
2 2296.72 170.575 633.869 0 0 0
2 2500.13 57.603 285.194 0 0 0
2 2315.6 511.816 668.73 0 0 0
2 2782.01 960.859 246.94 0 0 0
2 2693.98 962.048 134.315 0 0 0
2 2682.51 166.047 70.194 0 0 0
2 2510.92 922.333 189.154 0 0 0
2 910.21 2747.68 871.424 0 0 0
2 980.908 2628.38 889.943 0 0 0
2 180.032 2478.46 757.258 0 0 0
2 702.812 2274.51 188.111 0 0 0
2 851.461 2701.68 992.64 0 0 0
2 965.188 2718.79 282.166 0 0 0
2 36.537 2738.12 156.328 0 0 0
2 68.244 2667.14 536.605 0 0 0
2 886.534 2391.32 909.155 0 0 0
2 249.108 2301.78 961.275 0 0 0
2 441.251 2584.95 644.984 0 0 0
2 666.07 2612.17 336.719 0 0 0
2 255.095 2396.06 404.971 0 0 0
2 177.332 2379.49 501.511 0 0 0
2 721.242 2602.97 501.748 0 0 0
2 427.931 2312.41 69.968 0 0 0
2 489.812 2401.93 501.149 0 0 0
2 881.617 2492.86 -0 0 0 0
2 959.51 2543.07 620.292 0 0 0
2 378.818 2837.92 906.329 0 0 0
2 752.338 2486.51 178.651 0 0 0
2 462.403 2214.37 604.706 0 0 0
2 25.463 2488.34 416.266 0 0 0
2 4.291 2548.99 966.189 0 0 0
2 559.531 2359.53 835.513 0 0 0
2 12.409 2305.3 207.674 0 0 0
2 7.41 2375.56 73.558 0 0 0
2 368.935 2723.82 774.28 0 0 0
2 835.832 2633.55 103.863 0 0 0
2 167.696 2387.49 101.785 0 0 0
2 533.163 2549.73 778.771 0 0 0
2 606.529 2381.47 674.764 0 0 0
2 42.108 2447.8 911.212 0 0 0
2 169.453 2657.08 810.614 0 0 0
2 558.604 2732.87 990.51 0 0 0
2 585.285 2600.8 201.57 0 0 0
2 428.294 2303.5 835.418 0 0 0
2 28.168 2493.91 265.2 0 0 0
2 654.292 2281.66 780.529 0 0 0
2 503.623 2541.33 384.06 0 0 0
2 173.936 2577.39 902.512 0 0 0
2 300.08 2621.92 606.529 0 0 0
2 133.583 2271.64 538.867 0 0 0
2 749.88 2586.09 990.742 0 0 0
2 638.344 2366.64 270.062 0 0 0
2 210.853 2718.29 1005.2 0 0 0
2 426.135 2685.44 441.781 0 0 0
2 242.967 2274.3 406.482 0 0 0
2 23.502 2309.99 943.785 0 0 0
2 614.391 2261.26 911.928 0 0 0
2 652.033 2857.08 790.831 0 0 0
2 286.634 2569.03 766.062 0 0 0
2 285.502 2721.88 282.942 0 0 0
2 60.089 2692.01 961.515 0 0 0
2 789.238 2567.16 728.556 0 0 0
2 554.465 2699.22 871.717 0 0 0
2 516.789 2616.87 69.87 0 0 0
2 526.886 2527.81 581.154 0 0 0
2 234.467 2573.47 425.883 0 0 0
2 286.299 2618.91 21.26 0 0 0
2 47.014 2496.32 674.687 0 0 0
2 858.62 2563.61 894.889 0 0 0
2 149.686 2444.61 274.108 0 0 0
2 632.584 2619.99 669.724 0 0 0
2 366.047 2490.2 149.833 0 0 0
2 472.024 2687.9 554.335 0 0 0
2 503.956 2674.72 330.9 0 0 0
2 739.459 2249.59 453.237 0 0 0
2 387.68 2497.88 942.662 0 0 0
2 22.613 2367.63 578.765 0 0 0
2 801.534 2283.09 873.971 0 0 0
2 779.175 2379.33 635.652 0 0 0
2 137.907 2545.93 607.344 0 0 0
2 155.605 2824.38 465.487 0 0 0
2 537.244 2475.35 182.242 0 0 0
2 795.805 2781.26 104.988 0 0 0
2 738.817 2440.12 853.658 0 0 0
2 400.493 2460.95 662.494 0 0 0
2 229.676 2220.52 808.986 0 0 0
2 352.799 2464.94 326.965 0 0 0
2 303.21 2382.16 522.13 0 0 0
2 777.377 2443.17 524.544 0 0 0
2 700.443 2496.78 -0 0 0 0
2 706.161 2626.78 -0 0 0 0
2 95.168 2700.8 381.571 0 0 0
2 304.552 2351.85 148.004 0 0 0
2 552.793 2508.48 -0 0 0 0
2 237.73 2361.28 783.277 0 0 0
2 745.968 60.063 2235.78 0 0 0
2 511.24 948.062 2339.1 0 0 0
2 581.197 334.25 2366.71 0 0 0
2 832.039 494.494 2662.68 0 0 0
2 768.389 880.892 2443.81 0 0 0
2 670.323 260.548 2522.14 0 0 0
2 857.567 135.011 2419.86 0 0 0
2 885.71 212.043 2283.7 0 0 0
2 293.858 92.925 2465.71 0 0 0
2 971.41 440.81 2566.22 0 0 0
2 793.724 42.964 2671.02 0 0 0
2 940.802 201.253 2721.69 0 0 0
2 769.076 840.842 2699.51 0 0 0
2 748.639 70.769 2422.56 0 0 0
2 927.876 686.692 2476.43 0 0 0
2 807.702 377.867 2547.97 0 0 0
2 376.328 839.454 2596.94 0 0 0
2 664.895 80.756 2609.53 0 0 0
2 521.145 277.663 2559.21 0 0 0
2 314.803 711.099 2331.74 0 0 0
2 614.816 586.23 2693.52 0 0 0
2 514.322 198.496 2345.47 0 0 0
2 965.886 494.854 2442.6 0 0 0
2 1000.68 643.498 2386.71 0 0 0
2 404.849 490.115 2385.42 0 0 0
2 356.963 298.833 2338.99 0 0 0
2 45.969 805.485 2236.79 0 0 0
2 1001.5 196.859 2431.86 0 0 0
2 151.532 221.251 2690.88 0 0 0
2 11.817 870.797 2702.7 0 0 0
2 725.1 701.722 2689.99 0 0 0
2 654.816 538.45 2380.86 0 0 0
2 869.384 601.361 2619.19 0 0 0
2 886.613 279.574 2429.96 0 0 0
2 155.291 811.712 2667.72 0 0 0
2 639.654 427.605 2483.2 0 0 0
2 499.486 107.782 2601.8 0 0 0
2 1004.39 791.967 2462.32 0 0 0
2 641.525 149.885 2469.66 0 0 0
2 221.606 590.597 2566.33 0 0 0
2 919.628 756.691 2618.15 0 0 0
2 919.574 821.608 2335.07 0 0 0
2 247.621 72.871 2325.09 0 0 0
2 388.233 629.154 2550.4 0 0 0
2 427.973 862.722 2235.42 0 0 0
2 161.636 612.681 2383.95 0 0 0
2 977.945 918.169 2624.96 0 0 0
2 57.763 852.087 2440.89 0 0 0
2 779.943 659.685 2554.85 0 0 0
2 889.513 850.569 2534.37 0 0 0
2 520.518 6.373 2438.78 0 0 0
2 137.283 710.263 2293.66 0 0 0
2 501.673 589.109 2578.31 0 0 0
2 443.664 779.703 2322.05 0 0 0
2 694.846 493.284 2273.57 0 0 0
2 251.592 712.005 2589.35 0 0 0
2 414.86 904.846 2730.59 0 0 0
2 513.548 470 2540.81 0 0 0
2 908.081 973.883 2511.62 0 0 0
2 1025.62 617.881 2675.59 0 0 0
2 880.609 322.812 2634.13 0 0 0
2 396.013 314.788 2527.43 0 0 0
2 236.213 440.867 2273.39 0 0 0
2 470.629 78.241 2294.89 0 0 0
2 574.694 776.81 2694.74 0 0 0
2 983.826 32.17 2483.44 0 0 0
2 279.37 969.978 2510.53 0 0 0
2 12.439 993.665 2680.11 0 0 0
2 646.031 0.002 2521.33 0 0 0
2 983.143 342.759 2493.21 0 0 0
2 681.566 402.48 2598.36 0 0 0
2 190.074 224.838 2561.96 0 0 0
2 313.35 634.72 2454.35 0 0 0
2 793.752 293.357 2238.53 0 0 0
2 271.791 790.715 2251.38 0 0 0
2 986.102 28.142 2651.56 0 0 0
2 831.661 530.004 2473.8 0 0 0
2 779.906 151.909 2548.86 0 0 0
2 876.952 111.647 2616.08 0 0 0
2 490.963 667.078 2264.8 0 0 0
2 654.857 115.034 2354.51 0 0 0
2 772.041 244.618 2454.3 0 0 0
2 191.331 917.692 2596.81 0 0 0
2 477.78 584.595 2365.49 0 0 0
2 549.519 618.786 2458.41 0 0 0
2 166.734 72.101 2527.74 0 0 0
2 614.37 1.199 2362.48 0 0 0
2 2440.36 2652.76 321.083 0 0 0
2 2278.64 2316.7 659.12 0 0 0
2 2495.33 2512.12 304.556 0 0 0
2 2466.86 2347.08 483.017 0 0 0
2 2237.33 2289.72 1027.92 0 0 0
2 2253.77 2481.25 430.518 0 0 0
2 2590.11 2627.52 859.457 0 0 0
2 2275.2 2346.03 780.583 0 0 0
2 2376.36 2551.7 358.646 0 0 0
2 2397.56 2555.64 232.859 0 0 0
2 2318.87 2668.15 708.449 0 0 0
2 2514.08 2241.55 534.733 0 0 0
2 2382.58 2627.77 453.137 0 0 0
2 2536.55 2406.33 364.237 0 0 0
2 2287.02 2321.53 81.933 0 0 0
2 2579.28 2570.52 997.141 0 0 0
2 2264.91 2223.95 441.28 0 0 0
2 2310.97 2544.53 919.568 0 0 0
2 2300.47 2553.54 0.718 0 0 0
2 2280.03 2601.74 612.947 0 0 0
2 2642.83 2228.22 935.381 0 0 0
2 2507.13 2338.83 624.954 0 0 0
2 2172.71 2539.41 229.503 0 0 0
2 2376.87 2233.39 488.269 0 0 0
2 2243.05 2195.78 861.914 0 0 0
2 2331.85 2441.36 829.179 0 0 0
2 2424.22 2235.55 244.474 0 0 0
2 2403.84 2517.6 499.212 0 0 0
2 2401.95 2478.66 1.071 0 0 0
2 2480.61 2375.04 805.015 0 0 0
2 2352.15 2586.33 793.838 0 0 0
2 2461.2 2550.42 78.527 0 0 0
2 2250.31 2390.3 348.632 0 0 0
2 2514.07 2617.09 552.005 0 0 0
2 2616.15 2302.48 786.841 0 0 0
2 2303.23 2316.36 213.934 0 0 0
2 2277.02 2335.16 512.42 0 0 0
2 2435.55 2240.59 9.724 0 0 0
2 2228.27 2501.17 551.02 0 0 0
2 2614.98 2489.18 268.085 0 0 0
2 2273.22 2203.01 606.744 0 0 0
2 2268.14 2473.13 677.943 0 0 0
2 2423.71 2323.72 918.152 0 0 0
2 2519.25 2269.3 866.774 0 0 0
2 2192.16 2458.26 115.719 0 0 0
2 2529.85 2266.15 411.227 0 0 0
2 2245.29 2600.44 454.001 0 0 0
2 2401.68 2418.67 410.105 0 0 0
2 2610.61 2356.41 895.042 0 0 0
2 2683.56 2358.77 399.536 0 0 0
2 2396.7 2641.95 609.667 0 0 0
2 2564.51 2257.25 223.061 0 0 0
2 2403.41 2193.97 883.526 0 0 0
2 2419.49 2467.7 729.104 0 0 0
2 2587.81 2428.54 610.484 0 0 0
2 2284.69 2618.58 220.721 0 0 0
2 2599.55 2220 650.18 0 0 0
2 2649.64 2340.69 672.304 0 0 0
2 2368.01 2418.54 582.52 0 0 0
2 2644.54 2532.65 439.068 0 0 0
2 2545.68 2613.2 432.606 0 0 0
2 2280.75 2222.46 739.201 0 0 0
2 2491.02 2236.57 734.113 0 0 0
2 2528.52 2485.36 504.216 0 0 0
2 2621.18 2466.39 951.153 0 0 0
2 2397.89 2318.03 687.626 0 0 0
2 2575.03 2468.75 835.521 0 0 0
2 2352.53 2631.45 98.235 0 0 0
2 2627.41 2578.65 571.052 0 0 0
2 2533.91 2619.93 711.21 0 0 0
2 2456.53 2482.7 856.29 0 0 0
2 2300.46 2476.58 229.062 0 0 0
2 2471.79 2518.35 610.569 0 0 0
2 2174.45 2338.51 905.299 0 0 0
2 2350.69 2181.87 145.601 0 0 0
2 2387.14 2236.17 996.973 0 0 0
2 2330.76 2399.83 949.086 0 0 0
2 2541.87 2458.13 718.438 0 0 0
2 2576.38 2264.76 35.74 0 0 0
2 2156.25 2467.29 0.213 0 0 0
2 2405.37 2386.6 265.199 0 0 0
2 2413.69 2359.13 22.035 0 0 0
2 2332.06 2287.85 363.505 0 0 0
2 2529.4 2371.66 248.221 0 0 0
2 2676.69 2511.76 698.952 0 0 0
2 2653.81 2632.3 732.092 0 0 0
2 2607.9 2174.06 428.108 0 0 0
2 2208.02 2538.76 780.295 0 0 0
2 2743.56 742.422 2091.81 0 0 0
2 2311.54 853.302 2423.95 0 0 0
2 2193.52 0.595 3075.84 0 0 0
2 2807.42 176.023 2060.26 0 0 0
2 2239.43 367.264 2313.12 0 0 0
2 2764.45 419.202 2243.46 0 0 0
2 2003.71 0.537 2170.99 0 0 0
2 2299.31 562.503 2056.14 0 0 0
2 2526.29 823.757 2584.88 0 0 0
2 2325.26 50.741 2623.74 0 0 0
2 2571.52 2.619 2962.42 0 0 0
2 2769.26 418.723 2709.28 0 0 0
2 2563.75 911.343 2219.84 0 0 0
2 2249.11 451.226 2634.86 0 0 0
2 2245.3 306.442 2639.91 0 0 0
2 2566.31 347.057 2425.04 0 0 0
2 2003.9 601.266 2723.99 0 0 0
2 2500.09 151.078 2453.36 0 0 0
2 2862.09 422.007 2529.57 0 0 0
2 2572.16 930.593 2644 0 0 0
2 2686.9 807.685 2408.65 0 0 0
2 2250.28 286.032 2515.59 0 0 0
2 2728.95 2.291 2352.34 0 0 0
2 2004.34 152.351 2555.93 0 0 0
2 2055.86 294.555 2604.08 0 0 0
2 2476.63 72.009 2335.42 0 0 0
2 2324.18 982.537 2369.7 0 0 0
2 3475.32 456.812 2155.79 0 0 0
2 2266.87 262.983 2369.54 0 0 0
2 2317.91 9.709 2336.76 0 0 0
2 2192.15 40.454 2584.42 0 0 0
2 2273.11 1349.67 2308.77 0 0 0
2 2703.56 344.954 2476.56 0 0 0
2 3275.82 882.299 2501.16 0 0 0
2 2171.97 1058.03 2448.84 0 0 0
2 2714.43 840.601 2622.8 0 0 0
2 2675.23 37.77 2600.29 0 0 0
2 2536.96 105.531 2699.57 0 0 0
2 2172.99 614.841 2608.43 0 0 0
2 3037.41 0.019 2559.73 0 0 0
2 2591.18 721.136 2500.6 0 0 0
2 2700.22 485.47 2430.37 0 0 0
2 2620.37 220.326 2220.91 0 0 0
2 2464.92 984.579 2710.81 0 0 0
2 2195.89 893.357 2738.43 0 0 0
2 2001.5 878.146 2001.25 0 0 0
2 2223.38 530.068 3111.88 0 0 0
2 2393.67 169.385 2666.68 0 0 0
2 2416.02 84.268 2217.28 0 0 0
2 2500.95 193.542 2254.92 0 0 0
2 2524.64 0.754 2144.64 0 0 0
2 2406.78 657.811 2560.09 0 0 0
2 2537.53 341.632 2713.27 0 0 0
2 2003.77 566.423 2603.64 0 0 0
2 2940.2 197.852 2414.64 0 0 0
2 2714.67 421.285 2818.27 0 0 0
2 2675.03 412.964 2619.29 0 0 0
2 2516.36 598.614 2417.31 0 0 0
2 2120.15 112.15 2002.49 0 0 0
2 2350.43 98.112 2480.07 0 0 0
2 2933.12 800.023 2835.08 0 0 0
2 2253.33 875.23 2281.12 0 0 0
2 2456.54 548.008 2629.02 0 0 0
2 2684.02 128.689 2297.46 0 0 0
2 2585.03 574.606 2668.45 0 0 0
2 2306.66 585.321 2683.11 0 0 0
2 2469.13 762.802 2361.66 0 0 0
2 2586.14 227.319 2706.8 0 0 0
2 2697.66 223.647 2379.75 0 0 0
2 2357.68 128.708 2000.5 0 0 0
2 2221.64 49.951 2437.02 0 0 0
2 2684.39 1193.16 2168.72 0 0 0
2 2376.86 896.442 2586.89 0 0 0
2 2481.86 214.651 3042.6 0 0 0
2 2273.6 120.263 2286.52 0 0 0
2 2345.34 277.015 2000.03 0 0 0
2 2596.8 523.662 2279.02 0 0 0
2 2242.94 525.322 2512.44 0 0 0
2 2464.07 882.425 2382.66 0 0 0
2 2771.05 1112.23 2679.2 0 0 0
2 2264.12 713.799 2420.95 0 0 0
2 2542.52 619.071 2563.99 0 0 0
2 2529.1 1038.68 2605.65 0 0 0
2 2558.28 1.281 2760.47 0 0 0
2 2598.58 898.381 2344.38 0 0 0
2 2427.32 1054.35 2481.6 0 0 0
2 2674.52 918.308 2492.84 0 0 0
2 845.807 2283.22 2316.52 0 0 0
2 786.341 2397.22 2649.93 0 0 0
2 953.197 4000 3930.58 0 0 0
2 59.862 2000 2000 0 0 0
2 588.544 2217.5 2227.45 0 0 0
2 315.852 2554.68 2723.39 0 0 0
2 278.647 2235.08 2497.47 0 0 0
2 77.691 2244.63 2623.82 0 0 0
2 745.496 2500.78 2475.6 0 0 0
2 166.178 2376.99 2301.52 0 0 0
2 263.347 2458.45 2476.99 0 0 0
2 1018.19 2399.46 2519.46 0 0 0
2 513.693 2490.05 2393.81 0 0 0
2 239.418 2572.84 2317.27 0 0 0
2 236.436 2233.66 2670.77 0 0 0
2 714.386 2402.53 2320.39 0 0 0
2 335.701 2362.53 2454.92 0 0 0
2 740.375 2287.11 2616.14 0 0 0
2 547.66 2614.53 2329.72 0 0 0
2 916.16 2263.87 2643.17 0 0 0
2 96.264 2214.45 2328.81 0 0 0
2 773.645 2502.03 2356.22 0 0 0
2 739.817 2658.85 2695.85 0 0 0
2 618.66 2380.06 2229.51 0 0 0
2 719.444 2482.14 2229.1 0 0 0
2 955.285 2629.95 2203.15 0 0 0
2 446.446 2518.36 2214.8 0 0 0
2 401.332 2273.12 2593.2 0 0 0
2 832.512 2648.51 2351.68 0 0 0
2 603.156 2462.92 2533.31 0 0 0
2 494.389 2225.74 2303.34 0 0 0
2 38.086 2338.68 2420.51 0 0 0
2 861.022 2412.24 2306.53 0 0 0
2 46.396 2550.53 2315.28 0 0 0
2 197.302 2574.05 2512.59 0 0 0
2 162.46 2515.64 2391.18 0 0 0
2 384.816 2479.2 2468.16 0 0 0
2 314.585 2594.43 2422.97 0 0 0
2 280.613 2211.9 2323.33 0 0 0
2 945.414 2658.03 2682.71 0 0 0
2 193.591 2278.91 2217.19 0 0 0
2 301.501 2402.81 2634.93 0 0 0
2 498.532 2171.43 2585.96 0 0 0
2 695.524 2211.96 2524.69 0 0 0
2 934.003 2525.43 2480 0 0 0
2 103.128 2275.21 2500.39 0 0 0
2 68.996 2533.66 2598.71 0 0 0
2 12.628 2461.88 2441.16 0 0 0
2 697.429 2170.65 2262.3 0 0 0
2 392.259 2456.76 2335.33 0 0 0
2 195.485 2510.95 2184.82 0 0 0
2 446.858 2675.96 2533.53 0 0 0
2 672.696 2479.55 2635.39 0 0 0
2 1006.74 2444.89 2336.11 0 0 0
2 195.988 2316.33 2587.44 0 0 0
2 600.184 2146.45 2332.73 0 0 0
2 73.034 2602.95 2484.96 0 0 0
2 2000 2000 2000 0 0 0
2 895.326 2545.91 2316.67 0 0 0
2 164.124 2672.72 2383.95 0 0 0
2 958.434 2625.43 2415.12 0 0 0
2 993.805 2453.47 2211.89 0 0 0
2 618.971 2386.45 2422.43 0 0 0
2 952.242 2503.26 2608.2 0 0 0
2 585.623 2255.48 2551.56 0 0 0
2 693.065 2263.84 2374.46 0 0 0
2 848.668 2441.51 2497.78 0 0 0
2 648.788 2565.38 2442.19 0 0 0
2 405.364 2281.86 2377.51 0 0 0
2 520.093 2549.8 2510.79 0 0 0
2 469.987 2393.16 2478.6 0 0 0
2 1278.07 4000 2843.85 0 0 0
2 379.215 2250.72 2215.22 0 0 0
2 496.19 2274.27 2458.7 0 0 0
2 105.419 2404.05 2496.9 0 0 0
2 1003.96 2207.64 2531.13 0 0 0
2 663.638 2582.1 2561.35 0 0 0
2 441.026 2653.04 2659.11 0 0 0
2 304.877 2542.01 2567.11 0 0 0
2 269.894 2436.06 2356.27 0 0 0
2 896.402 2316.49 2534.38 0 0 0
2 1014.81 2303.15 2395.07 0 0 0
2 88.053 2371.72 2198.24 0 0 0
2 670.839 2597.78 2274.96 0 0 0
2 817.945 2533.08 2689.47 0 0 0
2 -0 2000 4000 0 0 0
2 184.93 2225.49 2410.42 0 0 0
2 791.07 2745.11 2556.62 0 0 0
2 2622.88 2568.66 2701.32 0 0 0
2 2495.54 2641.28 2492.29 0 0 0
2 2675.97 2677.97 2342.86 0 0 0
2 2439.95 2422.43 2547.11 0 0 0
2 2635.92 2226.12 2334.41 0 0 0
2 2512.63 2563.25 2754.78 0 0 0
2 2380.66 2656.21 2403.27 0 0 0
2 2456.39 2640.22 2636.03 0 0 0
2 2214.29 2727.61 2370.83 0 0 0
2 2750.57 2751.99 2727.5 0 0 0
2 2338.61 2521.41 2679.34 0 0 0
2 2592.5 2615.75 2404.54 0 0 0
2 2441.84 2798.24 2745.49 0 0 0
2 2392.86 2759.05 2216.95 0 0 0
2 2379.23 2786.47 2604.98 0 0 0
2 2755.82 2593.77 2722.91 0 0 0
2 2361.52 2480.22 2830.01 0 0 0
2 2416.18 2643.22 2815.14 0 0 0
2 2556.89 2309.3 2245.31 0 0 0
2 2356.21 2358.17 2677.88 0 0 0
2 2603.34 2691.39 2586.52 0 0 0
2 2737.56 2345.07 2401.58 0 0 0
2 2576.27 2695.99 2708.47 0 0 0
2 2719.67 2498.28 2291.62 0 0 0
2 2682.14 2379.69 2809.42 0 0 0
2 2327.64 2361.56 2854.99 0 0 0
2 2791.08 2453.18 2380.59 0 0 0
2 2355.6 2229.19 2665.64 0 0 0
2 2530.05 2343.68 2783.56 0 0 0
2 2838.81 2316.94 2587.76 0 0 0
2 2541.19 2504.07 2453.49 0 0 0
2 2422.07 2529.42 2491.05 0 0 0
2 2312.23 2308.32 2553.41 0 0 0
2 2435.04 2448.19 2701.63 0 0 0
2 2573.02 2300.05 2677.58 0 0 0