ITEM: TIMESTEP
0
ITEM: NUMBER OF ATOMS
1000
ITEM: BOX BOUNDS pp pp pp
-1.0000000000000000e+02 4.1000000000000000e+03
-1.0000000000000000e+02 4.1000000000000000e+03
-1.0000000000000000e+02 4.1000000000000000e+03
ITEM: ATOMS type x y z ix iy iz
1 237.477 590.077 142.247 0 0 0
1 618.992 633.11 326.646 0 0 0
1 50.454 792.841 341.826 0 0 0
1 642.905 850.297 946.538 0 0 0
1 86.946 530.27 775.342 0 0 0
1 730.923 21.617 765.762 0 0 0
1 403.27 1018.44 568.291 0 0 0
1 723.65 343.609 718.531 0 0 0
1 487.298 796.958 391.197 0 0 0
1 377.203 751.358 599.49 0 0 0
1 191.202 827.842 183.72 0 0 0
1 469.87 679.639 738.074 0 0 0
1 910.92 775.461 774.522 0 0 0
1 544.537 124.195 245.379 0 0 0
1 790.522 295.648 958.372 0 0 0
1 617.306 833.673 25.102 0 0 0
1 356.481 615.532 83.714 0 0 0
1 78.593 293.707 23.939 0 0 0
1 681.072 88.461 432.418 0 0 0
1 298.251 859.958 27.707 0 0 0
1 497.824 334.342 172.703 0 0 0
1 122.485 66.78 513.997 0 0 0
1 763.809 804.075 572.509 0 0 0
1 307.658 962.356 368.996 0 0 0
1 281.491 907.267 706.383 0 0 0
1 19.391 1.908 895.312 0 0 0
1 784.801 616.399 590.521 0 0 0
1 493.487 572.847 153.536 0 0 0
1 586.702 46.659 694.679 0 0 0
1 558.819 765.148 809.698 0 0 0
1 409.357 366.447 604.229 0 0 0
1 577.149 465.643 386.842 0 0 0
1 65.31 412.846 351.285 0 0 0
1 776.047 337.908 216.244 0 0 0
1 0.38 303.813 344.046 0 0 0
1 877.661 177.494 960.527 0 0 0
1 878.453 972.288 413.235 0 0 0
1 772.932 652.24 109.962 0 0 0
1 780.482 232.467 716.991 0 0 0
1 6.828 920.379 608.657 0 0 0
1 374.772 492.525 439.609 0 0 0
1 518.396 453.463 207.162 0 0 0
1 801.503 851.799 262.816 0 0 0
1 450.299 89.349 626.135 0 0 0
1 439.898 437.028 316.351 0 0 0
1 220.236 792.284 826.462 0 0 0
1 126.448 892.959 387.83 0 0 0
1 302.261 499.825 956.091 0 0 0
1 303.643 277.438 674.058 0 0 0
1 803.839 810.005 442.118 0 0 0
1 362.579 379.624 201.44 0 0 0
1 557.164 790.699 621.955 0 0 0
1 738.043 921.362 866.614 0 0 0
1 376.829 748.887 111.457 0 0 0
1 548.116 424.86 530.855 0 0 0
1 573.812 372.605 771.697 0 0 0
1 548.939 283.585 385.881 0 0 0
1 427.467 505.246 752.353 0 0 0
1 236.885 201.626 221.736 0 0 0
1 208.809 310.88 133.031 0 0 0
1 364.754 672.376 848.538 0 0 0
1 777.471 836.738 956.951 0 0 0
1 909.804 347.236 441.175 0 0 0
1 166.038 967.642 11.346 0 0 0
1 446.606 169.867 317.783 0 0 0
1 446.702 4.872 290.026 0 0 0
1 258.975 218.469 922.9 0 0 0
1 734.18 220 564.571 0 0 0
1 113.899 293.13 904.751 0 0 0
1 429.929 955.859 941.783 0 0 0
1 488.481 539.664 591.516 0 0 0
1 611.392 167.41 613.258 0 0 0
1 772.683 670.94 713.925 0 0 0
1 740.344 700.275 328.333 0 0 0
1 585.314 919.585 829.859 0 0 0
1 258.359 774.922 707.228 0 0 0
1 970.362 936.097 522.54 0 0 0
1 446.525 879.874 265.984 0 0 0
1 348.485 500.878 187.938 0 0 0
1 673.984 430.178 116.429 0 0 0
1 261.142 97.779 433.095 0 0 0
1 155.858 513.895 362.765 0 0 0
1 453.554 692.309 250.11 0 0 0
1 573.772 624.952 801.371 0 0 0
1 300.723 796.983 324.182 0 0 0
1 134.861 681.906 327.902 0 0 0
1 46.005 968.618 319.394 0 0 0
1 951.243 661.89 280.006 0 0 0
1 124.029 645.342 175.62 0 0 0
1 173.338 454.324 818.507 0 0 0
1 168.058 654.759 754.104 0 0 0
1 934.56 432.83 886.227 0 0 0
1 647.862 892.916 127.467 0 0 0
1 438.589 482.211 83.84 0 0 0
1 486.202 582.341 468.022 0 0 0
1 873.931 794.774 625.775 0 0 0
1 614.002 591.017 154.406 0 0 0
1 64.597 531.327 26.568 0 0 0
1 924.998 828.34 452.364 0 0 0
1 299.167 334.835 324.07 0 0 0
1 196.11 415.59 72.143 0 0 0
1 317.401 213.108 547.166 0 0 0
1 743.931 832.299 27.044 0 0 0
1 281.81 489.379 636.209 0 0 0
1 597.945 308.652 605.627 0 0 0
1 92.278 161.43 54.171 0 0 0
1 753.641 446.556 281.266 0 0 0
1 652.875 867.682 304.28 0 0 0
1 234.994 369.437 466.034 0 0 0
1 750.817 162.175 81.134 0 0 0
1 144.681 151.205 429.149 0 0 0
1 30.56 401.674 497.013 0 0 0
1 260.237 947.141 221.535 0 0 0
1 3274.71 381.101 926.889 0 0 0
1 2311.2 982.733 428.506 0 0 0
1 2958.72 0 1941.48 0 0 0
1 4000 1846.78 0 0 0 0
1 2965.77 399.582 0 0 0 0
1 2673.74 1447.93 1254.62 0 0 0
1 2162.41 938.268 1246.69 0 0 0
1 2857.77 257.225 109.212 0 0 0
1 2454 103.574 618.044 0 0 0
1 2818.99 293.517 642.425 0 0 0
1 3206.29 486.299 626.061 0 0 0
1 2348.2 995.521 594.756 0 0 0
1 2752.18 29.79 796.833 0 0 0
1 2895.48 815.387 384.924 0 0 0
1 3120.92 901.148 887.925 0 0 0
1 3909.01 427.115 534.787 0 0 0
1 2610.69 357.782 780.388 0 0 0
1 3200.59 378.703 558.862 0 0 0
1 2713.59 620.363 65.87 0 0 0
1 2532.5 16.697 298.592 0 0 0
1 3005.52 265.225 180.865 0 0 0
1 3515.37 212.338 637.239 0 0 0
1 2577.43 522.301 800.427 0 0 0
1 2549.33 876.532 248.824 0 0 0
1 2516.66 888.943 93.83 0 0 0
1 3477.64 201.217 451.147 0 0 0
1 2925.65 301.428 747.011 0 0 0
1 2268.8 540.043 771.455 0 0 0
1 2502.54 83.769 0 0 0 0
1 3249.14 803.406 842.052 0 0 0
1 3211.44 331.92 818.127 0 0 0
1 2594.97 334.702 0 0 0 0
1 3281.09 1252.41 188.93 0 0 0
1 2792.35 178.643 416.706 0 0 0
1 3153.38 674.069 545.289 0 0 0
1 2143.23 0 1355.21 0 0 0
1 3201.2 326.9 403.387 0 0 0
1 2947.97 386.706 526.553 0 0 0
1 2991 811.174 880.557 0 0 0
1 4000 2000 342.127 0 0 0
1 3138.34 181.163 295.245 0 0 0
1 2589.4 771.992 20.305 0 0 0
1 3094.32 201.163 960.622 0 0 0
1 2951.32 10.091 279.521 0 0 0
1 3675.12 1197.98 0 0 0 0
1 2471.85 390.374 797.659 0 0 0
1 2608.42 1142.7 852.072 0 0 0
1 2454.42 1024.08 222.878 0 0 0
1 2004.31 8.658 1930.6 0 0 0
1 2828.85 87.858 936.683 0 0 0
1 2704.7 116.315 196.091 0 0 0
1 3037.14 5.566 560.034 0 0 0
1 3105.17 757.483 11.687 0 0 0
1 3282.41 997.686 858.805 0 0 0
1 3090.68 39.124 853.481 0 0 0
1 2256.85 339.847 411.922 0 0 0
1 2880.02 111.412 91.847 0 0 0
1 2658.7 774.855 158.111 0 0 0
1 2825.87 0 0 0 0 0
1 2786.17 110 687.547 0 0 0
1 3114.86 972.941 32.989 0 0 0
1 2492.07 1157.8 596.175 0 0 0
1 2555.05 769.542 714.636 0 0 0
1 2873.41 1295.02 0 0 0 0
1 2576.74 490.691 924.329 0 0 0
1 2467.71 933.43 436.763 0 0 0
1 2631.61 279.747 681.645 0 0 0
1 3103.88 211.631 717.154 0 0 0
1 2516.86 815.358 915.244 0 0 0
1 2910.36 587.949 969.96 0 0 0
1 2370.83 0 131.625 0 0 0
1 2847.29 49.812 351.48 0 0 0
1 2000 330.226 648.266 0 0 0
1 3275.53 1394.33 510.012 0 0 0
1 2787.88 301.124 759.116 0 0 0
1 2699.22 749.616 462.188 0 0 0
1 2739.26 463.517 538.718 0 0 0
1 2877.43 472.637 406.752 0 0 0
1 3203.47 168.651 95.633 0 0 0
1 2047.44 272.253 1201.1 0 0 0
1 4000 511.032 0 0 0 0
1 2760.45 841.451 512.417 0 0 0
1 2754.17 133.989 26.957 0 0 0
1 3102.35 134.954 587.599 0 0 0
1 2144.46 641.587 399 0 0 0
1 2861.56 0 693.073 0 0 0
1 2444.61 708.661 694.599 0 0 0
1 3206.32 230.78 925.599 0 0 0
1 2605.01 17.839 106.095 0 0 0
1 2797.48 315.007 524.523 0 0 0
1 3143.96 733.392 292.866 0 0 0
1 2925.6 270.083 1034.07 0 0 0
1 3000.89 868.816 470.239 0 0 0
1 2793.21 590.656 774.855 0 0 0
1 3182.43 803.136 453.051 0 0 0
1 2783.76 998.593 589.193 0 0 0
1 2465.21 686.23 118.759 0 0 0
1 2924.67 953.666 846.581 0 0 0
1 2995.86 114.672 1091.51 0 0 0
1 3098.04 518.777 983.728 0 0 0
1 3193.86 360.964 245.783 0 0 0
1 2869.4 28.62 537.352 0 0 0
1 2433.89 985.338 747.891 0 0 0
1 2523.34 498.73 478.572 0 0 0
1 3081.49 592.193 367.766 0 0 0
1 2718.9 333.918 873.028 0 0 0
1 2710.03 571.353 401.304 0 0 0
1 2818.91 613.271 246.45 0 0 0
1 2646.4 1101.08 125.999 0 0 0
1 2695.21 602.905 953.637 0 0 0
1 2403.86 469.57 570.278 0 0 0
1 2895.78 1047.87 0 0 0 0
1 131.186 2702.92 631.039 0 0 0
1 232.171 2495.43 198.498 0 0 0
1 465.271 2811.09 406.958 0 0 0
1 663.13 2928.91 195.585 0 0 0
1 591.608 2499.53 394.53 0 0 0
1 386.367 3109.26 1.114 0 0 0
1 738.152 3058.33 140.156 0 0 0
1 516.988 2955.72 934.345 0 0 0
1 738.202 2872.35 604.496 0 0 0
1 729.367 2623.85 375.192 0 0 0
1 678.207 3189.64 444.993 0 0 0
1 253.957 3144.37 104.078 0 0 0
1 338.726 2395.62 543.581 0 0 0
1 974.979 2937.91 403.595 0 0 0
1 730 2576.22 500.104 0 0 0
1 645.589 2810.54 683.068 0 0 0
1 12.754 2714.69 178.761 0 0 0
1 326.904 3085.92 809.546 0 0 0
1 78.365 2995.31 485.412 0 0 0
1 966.285 2628.05 614.225 0 0 0
1 18.278 2822.66 22.216 0 0 0
1 876.112 3042.9 673.106 0 0 0
1 527.672 2887.64 541.847 0 0 0
1 655.666 2803.28 964.13 0 0 0
1 253.015 2697.34 462.875 0 0 0
1 193.773 2732.14 357.439 0 0 0
1 819.075 2397.04 865.429 0 0 0
1 683.709 2647.09 208.304 0 0 0
1 668.237 2885.4 22.631 0 0 0
1 2.451 2617.64 795.337 0 0 0
1 532.724 2490.43 607.516 0 0 0
1 496.878 2566.78 69.221 0 0 0
1 754.449 3046.26 733.211 0 0 0
1 949.581 2975.61 87.118 0 0 0
1 431.922 3061.54 939.155 0 0 0
1 161.456 3160.26 756.265 0 0 0
1 268.28 2908.8 849.421 0 0 0
1 785.525 2792.84 66.115 0 0 0
1 318.167 2614.9 600.401 0 0 0
1 222.33 2907.61 688.523 0 0 0
1 792.644 2948.14 29.194 0 0 0
1 909.946 2824.19 316.554 0 0 0
1 711.629 2424.14 958.87 0 0 0
1 898.899 2427.78 712.574 0 0 0
1 397.809 2830.58 298.466 0 0 0
1 33.215 2577.46 345.488 0 0 0
1 703.253 3147.85 54.683 0 0 0
1 792.872 2722.71 521.402 0 0 0
1 407.237 2579.31 866.999 0 0 0
1 519.675 2742.98 5.319 0 0 0
1 844.22 2613.38 469.082 0 0 0
1 753.413 2655.94 979.741 0 0 0
1 63.129 2869.72 519.832 0 0 0
1 611.524 3048.43 402.972 0 0 0
1 693.202 2895.51 331.969 0 0 0
1 947.25 2715.57 242.601 0 0 0
1 928.379 2695.63 997.09 0 0 0
1 902.571 3139.36 20.185 0 0 0
1 565.153 2545.55 845.104 0 0 0
1 701.447 3084.86 501.436 0 0 0
1 99.877 3071.3 843.955 0 0 0
1 965.878 2472.96 921.883 0 0 0
1 204.06 2854.26 505.712 0 0 0
1 713.772 2520.53 623.55 0 0 0
1 873.94 3190.27 136.983 0 0 0
1 720.776 2493.35 276.642 0 0 0
1 19.713 2793.84 743.945 0 0 0
1 93.494 2901.57 353.705 0 0 0
1 475.398 2909.06 123.049 0 0 0
1 423.382 2460.86 89.097 0 0 0
1 909.746 3223.68 688.35 0 0 0
1 489.828 2756.45 158.979 0 0 0
1 808.884 2607.84 815.871 0 0 0
1 489.008 2400.8 497.261 0 0 0
1 873.225 2916.62 787.298 0 0 0
1 270.135 2759.02 586.349 0 0 0
1 957.705 2447.07 598.081 0 0 0
1 810.414 2636.49 194.308 0 0 0
1 165.37 3147.37 472.758 0 0 0
1 300.372 2569.97 325.509 0 0 0
1 65.537 2435.01 64.674 0 0 0
1 129.439 3145.99 347.487 0 0 0
1 468.732 2943.45 432.949 0 0 0
1 442.716 2629.58 652.436 0 0 0
1 575.767 3044.26 286.48 0 0 0
1 561.016 3061.45 821.613 0 0 0
1 371.92 2959.95 586.837 0 0 0
1 166.227 2624.23 964.544 0 0 0
1 503.147 2807.57 772.25 0 0 0
1 293.637 2427.01 400.267 0 0 0
1 853.737 2406.87 486.943 0 0 0
1 665.068 3009.06 653.642 0 0 0
1 30.198 3199.22 551.471 0 0 0
1 326.85 2727.38 348.139 0 0 0
1 955.051 2554.52 475.618 0 0 0
1 931.099 2501.97 803.684 0 0 0
1 631.879 3096.18 980.766 0 0 0
1 82.086 2900.21 885.259 0 0 0
1 212.97 3234.92 876.069 0 0 0
1 639.787 2901.46 827.928 0 0 0
1 895.948 2883.2 158.128 0 0 0
1 320.577 3104.19 327.971 0 0 0
1 872.638 2560.7 320.92 0 0 0
1 55.127 2496.31 245.617 0 0 0
1 780.997 2975.94 425.616 0 0 0
1 232.695 2487.99 582.603 0 0 0
1 263.706 3055.55 189.739 0 0 0
1 99.985 2645.36 518.186 0 0 0
1 148.865 2646.04 231.006 0 0 0
1 387.082 2774.34 949.833 0 0 0
1 310.17 2979.22 448.32 0 0 0
1 244.113 2689.43 164.03 0 0 0
1 96.02 3061.94 686.449 0 0 0
1 362.653 146.766 2467.24 0 0 0
1 64.125 611.679 2791.25 0 0 0
1 374.047 719.158 2781.15 0 0 0
1 692.332 221.874 2852.08 0 0 0
1 60.653 758.77 3017.39 0 0 0
1 488.713 873.883 2402.42 0 0 0
1 110.912 770.515 2588.91 0 0 0
1 15.961 20.556 2448.98 0 0 0
1 914.337 181.606 2877.44 0 0 0
1 143.506 560.606 2917.34 0 0 0
1 795.279 209.705 2525.46 0 0 0
1 882.444 93.6 2544.2 0 0 0
1 810.684 438.246 2830.84 0 0 0
1 608.428 263.848 2420.31 0 0 0
1 323.547 841.858 2406.32 0 0 0
1 886.248 829.271 2548.27 0 0 0
1 82.334 852.874 2685 0 0 0
1 562.228 934.968 2570.48 0 0 0
1 425.27 152.041 2818.7 0 0 0
1 946.614 887.569 2911.4 0 0 0
1 103.808 332.939 3197.95 0 0 0
1 220.843 484.233 2578.95 0 0 0
1 260.696 182.508 2687.05 0 0 0
1 961.435 572.92 2775.53 0 0 0
1 923.258 576.645 2574.37 0 0 0
1 201.354 0 2656.31 0 0 0
1 502.466 546.896 2402.06 0 0 0
1 511.06 690.408 2438.55 0 0 0
1 121.538 197.74 2855.18 0 0 0
1 861.232 526.808 2904.07 0 0 0
1 948.126 388.126 2586.98 0 0 0
1 595.746 0 2947.85 0 0 0
1 873.447 527.192 3202.45 0 0 0
1 308.19 549.019 2831.26 0 0 0
1 940.894 238.343 3061.26 0 0 0
1 595.723 614.414 2482.71 0 0 0
1 85.437 263.39 2406.38 0 0 0
1 19.488 953.337 2613.7 0 0 0
1 691.001 346.418 2566.92 0 0 0
1 0 207.792 2938.88 0 0 0
1 523.502 191.968 3046.42 0 0 0
1 756.912 552.28 2811.7 0 0 0
1 922.826 280.799 2489.55 0 0 0
1 252.691 388.057 2736.78 0 0 0
1 762.75 515.362 2467.68 0 0 0
1 295.426 644.202 2692.24 0 0 0
1 172.41 739.654 2957.21 0 0 0
1 230.397 806.282 2868.01 0 0 0
1 406.385 620.833 2846.04 0 0 0
1 626.72 636.524 2744.74 0 0 0
1 16.599 38.601 3133.28 0 0 0
1 835.372 911.27 2665.07 0 0 0
1 541.035 360.804 2681.17 0 0 0
1 92.001 648.034 2518.64 0 0 0
1 414.08 274.278 3158.14 0 0 0
1 401.281 196.388 2951.1 0 0 0
1 876.668 331.787 3141 0 0 0
1 319.731 17.85 2747.26 0 0 0
1 654.934 166.548 3139.87 0 0 0
1 682.431 5.665 3053.23 0 0 0
1 293.012 915.519 2731.8 0 0 0
1 780.95 669.566 3157.7 0 0 0
1 663.336 750.028 2825.71 0 0 0
1 514.453 145.889 3189.99 0 0 0
1 983.335 540.872 2936.67 0 0 0
1 791.323 592.664 2597.24 0 0 0
1 693.862 984.933 2603.24 0 0 0
1 128.435 287.627 2969.73 0 0 0
1 491.18 1001.67 2421.46 0 0 0
1 95.106 458.322 2561.09 0 0 0
1 659.33 218.477 3021.52 0 0 0
1 572.613 185.849 2862.64 0 0 0
1 78.639 745.671 2829.07 0 0 0
1 352.746 366.875 2661.26 0 0 0
1 332.703 415.175 2931.18 0 0 0
1 6.788 280.975 3057.92 0 0 0
1 195.32 701.945 2814.99 0 0 0
1 971.892 685.82 2597.01 0 0 0
1 243.695 735.707 3204.44 0 0 0
1 103.554 487.514 2786.32 0 0 0
1 63.099 372.804 2745.92 0 0 0
1 729.525 866.076 2898.53 0 0 0
1 507.506 732.296 2855.27 0 0 0
1 940.702 697.951 2897.76 0 0 0
1 506.77 79.5 2899.99 0 0 0
1 0 128.926 2510.95 0 0 0
1 51.051 962.596 3154.31 0 0 0
1 822.146 261.706 2755.9 0 0 0
1 207.916 691.724 3096.39 0 0 0
1 875.313 469.549 2474.22 0 0 0
1 437.555 103.451 3103.34 0 0 0
1 931.742 898.511 3215.68 0 0 0
1 551.964 492.722 2772.3 0 0 0
1 302.538 596.434 3007.3 0 0 0
1 378.112 520.651 2639.41 0 0 0
1 450.657 652.482 2676.15 0 0 0
1 1034.23 88.365 2522.92 0 0 0
1 832.273 797.395 2895.36 0 0 0
1 189.583 85.058 2754.43 0 0 0
1 212.415 270.888 2780.38 0 0 0
1 199.59 138.798 3139.83 0 0 0
1 460.642 923.185 2741.21 0 0 0
1 858.518 578.241 2710.66 0 0 0
1 309.108 157.121 3087.75 0 0 0
1 956.877 261.252 2626.64 0 0 0
1 197.26 353.957 2553.68 0 0 0
1 66.78 289.225 2632.74 0 0 0
1 732.465 741.359 2615.37 0 0 0
1 54.002 0 2817.2 0 0 0
1 219.227 829.319 2507.06 0 0 0
1 251.893 180.588 2430.09 0 0 0
1 123.229 135.01 2490.08 0 0 0
1 2676.14 3179.37 151.525 0 0 0
1 2603.58 2876.44 1006.9 0 0 0
1 2742.78 2570.92 449.061 0 0 0
1 2621.86 2905.22 1169.13 0 0 0
1 3232.57 2593.52 421.623 0 0 0
1 2670.28 3273.29 731.101 0 0 0
1 2557.78 2750.8 424.892 0 0 0
1 3112.83 2829.5 734.475 0 0 0
1 2753.05 2476.15 152.191 0 0 0
1 2631.53 3546.4 815.859 0 0 0
1 3263 2473.8 573.811 0 0 0
1 2677.17 2722.66 623.788 0 0 0
1 2874.94 3036.27 345.418 0 0 0
1 2335.23 3138.22 1062.13 0 0 0
1 3037.49 2802.38 953.538 0 0 0
1 3305.5 3126.7 475.466 0 0 0
1 2530.82 3134.14 118.914 0 0 0
1 2708.43 2977.43 268.063 0 0 0
1 2488.04 2548.53 629.06 0 0 0
1 2824.88 2492.67 287.757 0 0 0
1 2543.65 2793.64 598.355 0 0 0
1 3190.63 3299.28 252.734 0 0 0
1 3320.49 3412.4 230.82 0 0 0
1 3213.27 2580.98 132.65 0 0 0
1 2842.91 3263.48 191.473 0 0 0
1 3258.71 3271.9 871.556 0 0 0
1 3360.76 3023.97 851.744 0 0 0
1 2680.42 2819.92 912.938 0 0 0
1 3073.83 2466.97 188.986 0 0 0
1 3137.82 3199.46 1035.33 0 0 0
1 3328.01 3209.49 288.174 0 0 0
1 2479.91 3255.63 157.237 0 0 0
1 2492.08 3092.64 565.249 0 0 0
1 3237.6 2665.68 909.247 0 0 0
1 2669.4 2513.37 961.31 0 0 0
1 2820.31 2960.39 703.96 0 0 0
1 2871.51 2888.67 292.051 0 0 0
1 2683.71 2675.93 398.392 0 0 0
1 2588.04 2607.78 507.898 0 0 0
1 3275.07 2981.38 399.7 0 0 0
1 2831.97 2591.39 70.493 0 0 0
1 3130.97 2034.1 231.608 0 0 0
1 3330.08 2803.08 46.602 0 0 0
1 3301.65 2934.86 577.834 0 0 0
1 2681.46 3320.59 920.503 0 0 0
1 3007.54 2920.74 215.435 0 0 0
1 2544.59 2144.3 562.542 0 0 0
1 2398.57 2810.81 374.953 0 0 0
1 2346.61 2976.42 1056.84 0 0 0
1 2898.37 2570.65 830.269 0 0 0
1 2464.06 2594.64 259.831 0 0 0
1 2452.27 2646.19 43.922 0 0 0
1 2829.61 3127.94 763.692 0 0 0
1 3181.59 3027.42 92.517 0 0 0
1 2603.91 2647.33 104.345 0 0 0
1 2899.51 2839.27 750.586 0 0 0
1 3234.09 2719.83 728.975 0 0 0
1 2486.86 2749.9 804.015 0 0 0
1 2659.44 3207.99 879.57 0 0 0
1 2955.51 3265.54 987.892 0 0 0
1 2956.93 3043.09 224.057 0 0 0
1 2803.37 2822.95 919.637 0 0 0
1 2463.44 2757.53 244.101 0 0 0
1 3079.67 2483.22 1102.89 0 0 0
1 2916.02 2805.27 414.618 0 0 0
1 2585.73 2913.07 772.53 0 0 0
1 2751.84 3044.81 462.177 0 0 0
1 2566.08 2303.41 637.642 0 0 0
1 3137.35 3028.15 986.722 0 0 0
1 3016.36 2623.71 270.848 0 0 0
1 2805.83 3220.76 878.678 0 0 0
1 2953.4 3111.57 398.562 0 0 0
1 2665.35 2476.46 405.348 0 0 0
1 2437.06 2426.61 859.691 0 0 0
1 2995.01 2444.45 912.016 0 0 0
1 3020.52 3455.58 775.236 0 0 0
1 2711.33 2990.41 792.455 0 0 0
1 2717 3221.6 286.276 0 0 0
1 2525.33 3116.12 897.244 0 0 0
1 3121.41 2973.99 768.478 0 0 0
1 2892.9 3125.43 944.529 0 0 0
1 2859.69 2960.1 90.941 0 0 0
1 2941.54 2941.7 578.979 0 0 0
1 2556.19 3190.9 429.807 0 0 0
1 2763.14 3051.81 36.635 0 0 0
1 2413.14 2689.19 539.977 0 0 0
1 3228.47 2938.45 848.746 0 0 0
1 2584.36 2759.11 273.514 0 0 0
1 3052.15 3008.59 670.115 0 0 0
1 2728.96 2893.89 171.75 0 0 0
1 2782.82 3325.24 560.456 0 0 0
1 2882.01 3248.49 314.257 0 0 0
1 3229.89 2338.64 159.353 0 0 0
1 2808.87 2973.52 897.692 0 0 0
1 2444.73 2738.88 690.671 0 0 0
1 3138.45 2481.13 857.468 0 0 0
1 3304.39 2904.66 695.23 0 0 0
1 2612.66 3077.93 517.551 0 0 0
1 2582.36 3278.47 263.528 0 0 0
1 2935.09 2841.75 129.275 0 0 0
1 2984.21 3131.1 8.344 0 0 0
1 3161.83 2781.69 884.148 0 0 0
1 2837.31 2731.14 742.061 0 0 0
1 2650.88 2455.34 813.841 0 0 0
1 2795.08 2807.31 113.526 0 0 0
1 2813.94 2681.99 393.382 0 0 0
1 3107.62 2865.5 498.167 0 0 0
1 3174.13 2900.79 16.183 0 0 0
1 3110.77 3145.07 29.089 0 0 0
1 2536.65 3270.27 598.814 0 0 0
1 2718.82 2598.55 148.922 0 0 0
1 2866 2766.45 4.952 0 0 0
1 2523.54 2578.02 888.853 0 0 0
1 2960.78 58.074 2406.81 0 0 0
1 3809.77 1019.11 4000 0 0 0
1 3495.1 22.699 4000 0 0 0
1 2198.02 627.557 2000 0 0 0
1 2984.63 885.193 2723.89 0 0 0
1 2000 561.577 3388.49 0 0 0
1 4000 0 4000 0 0 0
1 2851.01 2000 2000 0 0 0
1 2396.3 63.962 2980.98 0 0 0
1 3142.6 442.802 2923.82 0 0 0
1 3004.34 42.867 3094.99 0 0 0
1 3089.17 232.353 3161.08 0 0 0
1 3001.65 852.408 3151.52 0 0 0
1 3284.97 136.846 2650.39 0 0 0
1 3110.57 702.031 2814.64 0 0 0
1 3020.71 344.059 2866.21 0 0 0
1 2684.27 853.863 3008.29 0 0 0
1 2899.3 66.319 2963.54 0 0 0
1 2803.01 275.81 2917.35 0 0 0
1 2628.09 711.776 2561.93 0 0 0
1 2853.74 573.573 3132.51 0 0 0
1 2786.94 199.216 2563.26 0 0 0
1 3162.67 488.885 2710.03 0 0 0
1 3162.77 651.255 2648.07 0 0 0
1 2699.01 481.593 2631.89 0 0 0
1 2664.5 300.08 2552.69 0 0 0
1 2397.79 845.3 2378.16 0 0 0
1 3174.9 212.992 2721.1 0 0 0
1 2557.97 237.979 3132.88 0 0 0
1 2376.41 863.94 3163.77 0 0 0
1 2962.34 720.494 3125.2 0 0 0
1 2000 852.55 2000 0 0 0
1 3385.57 1618.73 2381.81 0 0 0
1 3649.15 586.755 2000 0 0 0
1 2692.4 501.441 3257.79 0 0 0
1 2282.78 2000 4000 0 0 0
1 2775.39 108.026 2981.93 0 0 0
1 3310.05 657.963 2437.01 0 0 0
1 2951.12 231.488 2774.69 0 0 0
1 2558.09 587.714 2922.25 0 0 0
1 3104.31 746.225 2961.67 0 0 0
1 3105.27 830.158 2570.04 0 0 0
1 2570.23 77.045 2538.28 0 0 0
1 2670.97 639.015 2861.54 0 0 0
1 2732.46 881.49 2418.88 0 0 0
1 2511.13 622.758 2615.31 0 0 0
1 3173.3 903.967 2957.46 0 0 0
1 2431.69 856.237 2719.11 0 0 0
1 2993.62 662.825 2905.24 0 0 0
1 2939.93 999.594 3178.18 0 0 0
1 2725.95 61.117 2621.08 0 0 0
1 2498.06 736.922 2514.46 0 0 0
1 2787.31 583.83 2945.93 0 0 0
1 2734.95 774.61 2514.21 0 0 0
1 2927.4 495.551 2445.82 0 0 0
1 2583.59 721.081 2963.34 0 0 0
1 2704.84 898.948 3157.99 0 0 0
1 2587.31 508.016 3066.48 0 0 0
1 3093.53 974.234 2835.96 0 0 0
1 3222.61 640.732 3117.84 0 0 0
1 3068.16 325.534 3022.04 0 0 0
1 2685.61 270.63 2888.5 0 0 0
1 2570.54 442.859 2445.53 0 0 0
1 2775.65 88.327 2486.24 0 0 0
1 2794.84 765.452 3162 0 0 0
1 3152.26 32.017 2788.61 0 0 0
1 2622.53 1008.2 2797.36 0 0 0
1 2399.71 1017.64 3101.88 0 0 0
1 4000 0 2000 0 0 0
1 3200.18 354.972 2803.78 0 0 0
1 2925.6 402.121 2969.16 0 0 0
1 2507.97 216.349 2925.03 0 0 0
1 2642.96 652.972 2715.05 0 0 0
1 3003.13 296.544 2386.14 0 0 0
1 2603.71 779.652 2436.93 0 0 0
1 3159.82 24.11 3047.49 0 0 0
1 3009.49 540.708 2784.75 0 0 0
1 2008.08 1563.69 2003.2 0 0 0
1 3042.02 138.559 2988.86 0 0 0
1 2725.42 908.225 2000 0 0 0
1 2920.75 117.416 2546.06 0 0 0
1 3063.89 23.508 2700.64 0 0 0
1 2319.09 1200.85 2845.6 0 0 0
1 2796.66 369.607 3090.35 0 0 0
1 2821.36 607.807 2742.7 0 0 0
1 2645.84 23.017 2443.7 0 0 0
1 2857.61 1.457 2614.7 0 0 0
1 2791.05 966.359 2657.86 0 0 0
1 2517.21 359.02 2894 0 0 0
1 2899.89 618.281 2589.08 0 0 0
1 2831.07 458.196 2769.86 0 0 0
1 2418.62 180.856 3178.03 0 0 0
1 2446.95 662.639 2744.4 0 0 0
1 3066.64 932.775 3086.97 0 0 0
1 2479.33 317.024 3022.24 0 0 0
1 2752.19 741.491 2702.01 0 0 0
1 2630.57 833.14 2573.91 0 0 0
1 2646.17 1022.18 2975.38 0 0 0
1 2647.19 77.097 3022.67 0 0 0
1 2813.61 899.337 2764.16 0 0 0
1 3021.76 404.993 2747.3 0 0 0
1 2506.34 579.696 2468.96 0 0 0
1 2919.55 812.594 3049.84 0 0 0
1 2526.41 72.076 2884.67 0 0 0
1 2642.99 702.342 3077.18 0 0 0
1 2536.94 658.01 2377.05 0 0 0
1 2550.99 851.476 2847.61 0 0 0
1 3178.44 83.885 3151.91 0 0 0
1 2915.43 549.26 2909.26 0 0 0
1 2385.63 701.86 2559.25 0 0 0
1 2693.93 182.059 2803.97 0 0 0
1 2438.78 94.198 3091.56 0 0 0
1 391.056 2852.01 3012.78 0 0 0
1 484.085 2517.04 2628.86 0 0 0
1 444.808 2930.07 2786.02 0 0 0
1 290.853 2904.05 2387.99 0 0 0
1 518.691 2803.64 3019.34 0 0 0
1 371.918 2970.41 3031.09 0 0 0
1 503.13 2959.64 2434.91 0 0 0
1 158.811 2688.06 2666.51 0 0 0
1 556.384 3055.34 2837.79 0 0 0
1 883.847 2642.75 3004.25 0 0 0
1 196.862 2606.47 2565.65 0 0 0
1 295.956 2670.77 2855.43 0 0 0
1 497.48 2476.42 2405.73 0 0 0
1 118.629 2862.72 2776.02 0 0 0
1 898.006 2887.7 2599.36 0 0 0
1 106.916 2421.23 2861.7 0 0 0
1 148.545 2826.25 2932.1 0 0 0
1 476.885 2593.8 3092.01 0 0 0
1 747.506 2539.41 3061.95 0 0 0
1 5.974 2873.43 2488.22 0 0 0
1 592.369 2556.13 2699.25 0 0 0
1 49.039 3003.34 2734.28 0 0 0
1 409.964 2785.79 2684.06 0 0 0
1 866.734 2667.53 3129.2 0 0 0
1 778.039 2680.12 2732.92 0 0 0
1 432.866 3036.78 2843.13 0 0 0
1 785.277 2482.93 2564.5 0 0 0
1 418.608 2377.1 3068.75 0 0 0
1 479.261 2838.45 2897.71 0 0 0
1 712.104 2814.87 2847.73 0 0 0
1 107.91 3044.74 2550.45 0 0 0
1 840.424 2508.7 2987.78 0 0 0
1 957.502 2563.68 2790.91 0 0 0
1 397.415 2794.55 2818.7 0 0 0
1 903.369 2920.27 2737.66 0 0 0
1 558.595 3015.56 2705.72 0 0 0
1 177.309 2465.24 2953.43 0 0 0
1 683.307 2391 2939.03 0 0 0
1 613.268 2885.18 2724.28 0 0 0
1 915.384 2778.37 3100.58 0 0 0
1 416.714 2585.59 2916.44 0 0 0
1 805.23 2841.11 3047.64 0 0 0
1 192.678 2994.6 2439.04 0 0 0
1 860.192 2994.01 2827.41 0 0 0
1 724.05 2970.33 2962.52 0 0 0
1 566.288 2988.57 3076.14 0 0 0
1 71.457 2674.57 2514.71 0 0 0
1 600.022 2845 2883.11 0 0 0
1 3.051 2572.18 3109.51 0 0 0
1 273.981 2399.01 2537.8 0 0 0
1 275.381 2424.8 3187.96 0 0 0
1 149.214 2690.67 3121.64 0 0 0
1 660.268 2867.59 3000.03 0 0 0
1 721.944 2442.56 2435.65 0 0 0
1 92.104 2911.29 2376.24 0 0 0
1 465.997 2694.72 2565.98 0 0 0
1 386.627 2636.6 2421.72 0 0 0
1 455.051 2624.49 2693.53 0 0 0
1 600.096 2767.93 2594.38 0 0 0
1 860.566 2898.92 2905.27 0 0 0
1 918.55 3136.8 3007.05 0 0 0
1 777.658 2407.84 2683.3 0 0 0
1 60.754 2956.55 2976.21 0 0 0
1 280.61 2863.67 2508.89 0 0 0
1 156.396 3009.56 2675.72 0 0 0
1 650.063 2680.61 2928.21 0 0 0
1 168.302 2937.04 2544.77 0 0 0
1 28.843 2774.83 2693.76 0 0 0
1 941.273 2735.15 2508.09 0 0 0
1 536.98 2572.68 2973.33 0 0 0
1 360.101 2804.42 2389.29 0 0 0
1 554.271 3071.71 2974.82 0 0 0
1 7.883 2372.6 3064.21 0 0 0
1 658.225 2560 2920.31 0 0 0
1 955.861 2520.92 2925.28 0 0 0
1 373.899 3027.66 2553.71 0 0 0
1 73.046 2767.57 3027.47 0 0 0
1 103.955 2646.98 2987.35 0 0 0
1 524.508 2731.06 2433.29 0 0 0
1 35.678 2865.1 2606.82 0 0 0
1 483.153 2685.44 2822.22 0 0 0
1 737.39 2707.08 2575.74 0 0 0
1 712.158 3109.2 2973.03 0 0 0
1 930.827 3017.58 2670.67 0 0 0
1 45.783 2617.24 2875.98 0 0 0
1 894.489 2459.56 2775.2 0 0 0
1 378.686 2508.48 2783.43 0 0 0
1 205.594 2737.74 3022.47 0 0 0
1 376.791 2499.68 2534.68 0 0 0
1 276.916 3169.93 2665.74 0 0 0
1 694.789 2570.45 2763.02 0 0 0
1 1.916 2598.72 2623.03 0 0 0
1 148.039 2407.6 2570.14 0 0 0
1 171.666 2559.36 2877.51 0 0 0
1 282.677 3030.09 3086.96 0 0 0
1 894.327 2716.09 2906.75 0 0 0
1 772.942 2737.41 2918.02 0 0 0
1 256.084 3015.65 2602.67 0 0 0
1 644.776 2724.28 2699.25 0 0 0
1 915.578 2412.73 3002.31 0 0 0
1 576.144 2504.19 3096.4 0 0 0
1 253.066 2610.49 2675.39 0 0 0
1 763.345 2411.86 2823.26 0 0 0
1 779.497 2905.12 2752.8 0 0 0
1 833.899 2780.96 2647.77 0 0 0
1 783.202 2601.03 2378 0 0 0
1 383.138 3128.96 3101.64 0 0 0
1 115.797 3085.88 3107.48 0 0 0
1 225.898 2729.06 2474.8 0 0 0
1 275.538 2639.05 3009.28 0 0 0
1 347.218 2560.24 3100.99 0 0 0
1 371.255 2465.64 2398.51 0 0 0
1 655.406 2567.25 2412.71 0 0 0
1 2685.52 2557.86 2606.99 0 0 0
1 2660.71 2918.47 2929.37 0 0 0
1 2964.85 2653.84 3068.51 0 0 0
1 2726.59 2697.66 2905.68 0 0 0
1 2978 2647.91 2836.93 0 0 0
1 2793.12 2660.73 3155.87 0 0 0
1 2804.6 2867.11 3015.48 0 0 0
1 2347.22 2645.55 2522.15 0 0 0
1 2928.72 2727.88 2662.09 0 0 0
1 2567.34 2444.8 2718.91 0 0 0
1 2725.51 2815.58 2937.7 0 0 0
1 2431.82 3070.01 2425.25 0 0 0
1 2755.22 2799.04 3135.02 0 0 0
1 3102.77 2505.01 2475.41 0 0 0
1 2988.37 2798.54 3116.2 0 0 0
1 2510.52 2845.67 3139.89 0 0 0
1 2812.55 2982.85 2671.54 0 0 0
1 2945.73 2551.56 3143.3 0 0 0
1 3102.05 2529.64 2712.43 0 0 0
1 2657.08 2614.28 2991.85 0 0 0
1 2632.02 2864.13 2446.65 0 0 0
1 2743.85 2868.68 2543.6 0 0 0
1 2594.46 3114.93 3060.64 0 0 0
1 2516.47 2952.13 3237.98 0 0 0
1 2474.81 2445.57 2492.01 0 0 0
1 2896.78 2676.89 2438.39 0 0 0
1 3031.66 2781.06 2474.92 0 0 0
1 2413.2 2793.47 2810.97 0 0 0
1 2764.59 3120.09 2704.68 0 0 0
1 3005.69 2454.23 3063.49 0 0 0
1 2496.01 2949.59 2638.17 0 0 0
1 2922.35 2916.04 2956.31 0 0 0
1 2915.37 3135.43 2826.82 0 0 0
1 2598.39 2715.73 2538.19 0 0 0
1 2929.13 3120.66 2653.48 0 0 0
1 2660.96 3152.03 2796.36 0 0 0
1 3057.84 3113.29 2860.73 0 0 0
1 3071.49 2678.8 2752.78 0 0 0
1 2995.99 2771.11 2988.95 0 0 0
1 2804.59 2745.74 2507.14 0 0 0
1 2392.41 3081.34 2605.53 0 0 0
1 2857.21 2400.5 2442.03 0 0 0
1 2752.61 3029.84 3050.92 0 0 0
1 2619.22 2439.88 2864.95 0 0 0
1 2448.01 2470.31 3058.88 0 0 0
1 3037.9 2979.12 2956.84 0 0 0
1 2477.31 2687.45 2516.05 0 0 0
1 2588.97 2813.61 2948.74 0 0 0
1 3195.09 2755.28 2866.75 0 0 0
1 2815.48 2841.74 2656.38 0 0 0
1 2570.04 2997.7 2551.54 0 0 0
1 2572.38 2444.67 3155.32 0 0 0
1 3005.91 2578.31 2420.29 0 0 0
1 2614.9 2565.27 2705.08 0 0 0
1 3087.18 2667.07 3128.9 0 0 0
1 2820.18 3054.81 2557.38 0 0 0
1 3123.82 2467.46 3123.55 0 0 0
1 2482.07 2387.86 2641.02 0 0 0
1 3019.27 2842.47 2698.23 0 0 0
1 2992.59 3143.97 3130.1 0 0 0
1 2943.38 2592.34 2579.67 0 0 0
1 2931.16 2914.59 2401.36 0 0 0
1 3130.26 3052.84 2434.33 0 0 0
1 2779.14 2951.6 2414.69 0 0 0
1 2708.58 2479.43 3053.74 0 0 0
1 3060.9 3143.02 2610.93 0 0 0
1 2873.96 2770.51 2855.11 0 0 0
1 2821.79 2423.94 2562.51 0 0 0
1 2442.07 2654.35 2665.8 0 0 0
1 3068.05 2683.47 2580.42 0 0 0
1 2420.28 2900.18 2553 0 0 0
1 2555.79 3020.3 2890.26 0 0 0
1 2543.97 2960.09 2751.9 0 0 0
1 2682.03 2828.77 2818.36 0 0 0
1 2644.24 3058.91 2714.9 0 0 0
1 2610.79 2427.56 2606.45 0 0 0
1 3122.14 3136.6 3172 0 0 0
1 2567.86 2550.39 2449.49 0 0 0
1 2609.75 2718.06 3061.32 0 0 0
1 2802.55 2348.5 2992.2 0 0 0
1 3020.68 2486.84 2872.1 0 0 0
1 3109.44 2879.42 2804.59 0 0 0
1 2503.6 2528.39 2856.61 0 0 0
1 2477.06 2929.39 2992.28 0 0 0
1 2427.87 2890.67 2720.9 0 0 0
1 2961.06 2437.99 2559.78 0 0 0
1 2689.99 2793.96 2658.08 0 0 0
1 2526.17 2955.23 2401.87 0 0 0
1 2704.18 3122 2977.83 0 0 0
1 2923.05 2966.01 3104.46 0 0 0
1 3145.86 2846.53 2609.16 0 0 0
1 2528.41 2582.06 3005.91 0 0 0
1 2932.83 2504.1 2663.8 0 0 0
1 2407.89 3018.89 2824.35 0 0 0
1 2380.74 2520.41 2625.94 0 0 0
1 3114.62 2952.31 2527.26 0 0 0
1 2507.83 3130.89 2683.9 0 0 0
1 3141 3124.04 2738.7 0 0 0
1 3153.93 2852.38 2453.67 0 0 0
1 2873.61 2666.66 2765.82 0 0 0
1 3089.33 3006.42 3063.16 0 0 0
1 2772.51 2299.78 2829.62 0 0 0
1 2847.86 2593.96 2666.88 0 0 0
1 3005.48 2784.21 2819.95 0 0 0
1 2906.04 2937.27 2808.93 0 0 0
1 2849.54 2418.28 2684.62 0 0 0
1 2793.26 2999.21 2924.09 0 0 0
1 2746.89 2626.28 2760.8 0 0 0
1 2392.75 2770.13 2600.23 0 0 0
1 2714.18 2439.02 2433.91 0 0 0
1 2518.89 2360.53 2806.13 0 0 0
1 2503.12 2733.82 2905.37 0 0 0
2 811.973 110.186 421.756 0 0 0
2 560.374 677.589 459.272 0 0 0
2 396.628 813.02 491.17 0 0 0
2 204.483 733.592 445.917 0 0 0
2 228.472 432.787 231.682 0 0 0
2 723.851 201.805 419.712 0 0 0
2 962.132 218.299 331.629 0 0 0
2 11.394 476.718 137.81 0 0 0
2 569.478 779.89 180.042 0 0 0
2 657.011 649.167 545.113 0 0 0
2 1.589 205.656 467.439 0 0 0
2 61.784 158.226 322.327 0 0 0
2 666.62 839.063 497.474 0 0 0
2 3550.98 485.204 722.732 0 0 0
2 3341.39 519.847 478.919 0 0 0
2 3771.42 563.944 176.891 0 0 0
2 3240.83 201.106 590.806 0 0 0
2 3571.41 50.02 263.365 0 0 0
2 3410.97 484.556 692.961 0 0 0
2 3106.43 573.851 192.984 0 0 0
2 3424.89 441.587 557.898 0 0 0
2 2992.51 653.496 176.538 0 0 0
2 3796.33 749.462 759.041 0 0 0
2 3075.73 492.556 667.671 0 0 0
2 3600.06 519.711 286.727 0 0 0
2 436.402 3906.37 657.279 0 0 0
2 175.179 3871.47 46.267 0 0 0
2 239.784 3982.59 571.879 0 0 0
2 814.85 3634.79 746.835 0 0 0
2 207.961 3452.18 828.431 0 0 0
2 204.92 3592.75 792.865 0 0 0
2 545.139 3094.38 128.123 0 0 0
2 200.269 3284.51 679.343 0 0 0
2 507.956 3846.44 579.007 0 0 0
2 727.75 3144.99 256.971 0 0 0
2 499.741 3776.3 744.892 0 0 0
2 729.755 3506.75 158.463 0 0 0
2 736.376 3250.1 827.688 0 0 0
2 148.97 380.955 2000 0 0 0
2 856.751 387.257 2000 0 0 0
2 227.199 140.23 2000 0 0 0
2 403.34 261.548 2000 0 0 0
2 871.149 151.369 2000 0 0 0
2 488.816 488.634 2000 0 0 0
2 308.552 498.275 2000 0 0 0
2 68.034 211.591 2000 0 0 0
2 307.538 339.736 2000 0 0 0
2 507.383 114.913 2000 0 0 0
2 268.317 961.423 2000 0 0 0
2 275.362 662.78 2000 0 0 0
2 2044.06 2110.62 617.91 0 0 0
2 2164.5 2181.17 645.055 0 0 0
2 2000 2106.78 494.418 0 0 0