LAMMPS (23 Jun 2022 - Update 1)
OMP_NUM_THREADS environment is not set. Defaulting to 1 thread. (src/comm.cpp:98)
  using 1 OpenMP thread(s) per MPI task
###

# Read restart info
read_restart ${read_res}
read_restart ./400600/equpmf71.res
Reading restart file ...
  restart file = 23 Jun 2022, LAMMPS = 23 Jun 2022
WARNING: Restart file used different # of processors: 1 vs. 4 (src/read_restart.cpp:654)
  restoring atom style atomic from restart
  orthogonal box = (2159.5319 2159.5319 2159.5319) to (2840.4681 2840.4681 2840.4681)
  1 by 2 by 2 MPI processor grid
  restoring pair style table from restart
  1000 atoms
  read_restart CPU = 0.297 seconds

# Settings
pair_style table/pgn spline 9941
pair_coeff 1 1 N20.txt DE_GNP 147.89 72.9   # 1.35 * r
pair_coeff 2 2 N100.txt DE_GNP 473.9 111.78
WARNING: 3 of 9941 force values in table DE_GNP are inconsistent with -dE/dr.
WARNING:  Should only be flagged at inflection points (src/pair_table_pgn.cpp:478)
pair_coeff 1 2 mixed_potential.txt DE_GNP 391.2 92.95
WARNING: 1562 of 9941 force values in table DE_GNP are inconsistent with -dE/dr.
WARNING:  Should only be flagged at inflection points (src/pair_table_pgn.cpp:478)

# Neighbor list
neighbor 2.0 bin
neigh_modify delay 0 every 1 check no once yes

# Temperature
variable T equal ${Temp}
variable T equal 300

# Deformation
reset_timestep 0
variable tmp equal "lx"
variable L0 equal ${tmp}
variable L0 equal 680.936214552134
variable strain equal "(lx - v_L0)/v_L0"
variable stp equal "step"
variable tmpe equal "temp"
variable p1 equal "v_strain"
variable p2 equal "-pxx*1.01325/10000"
variable p3 equal "-pyy*1.01325/10000"
variable p4 equal "-pzz*1.01325/10000"
variable p5 equal "lx"
variable p6 equal "ly"
variable p7 equal "lz"
variable p8 equal "press"
variable p9 equal "epair"
variable p10 equal "etotal"

# Thermo
thermo_style custom step temp v_p1 v_p2 v_p3 v_p4 press lx ly lz vol density epair pe ke etotal pxx pyy pzz pxy pxz pyz spcpu
thermo ${ts_save}
thermo 100

# Dump
# dump 1 all custom 2000 ./${N20}${N100}/tensile/trajectory/trajectory_${usic}_${trial}_*.tensile.custom id type x y z ix iy iz
# dump_modify 1 sort id
dump 2 all cfg 20000 ./${N20}${N100}/tensile/trajectory/dumpten.tens_${usic}_${trial}_*.cfg mass type xs ys zs fx fy fz
dump 2 all cfg 20000 ./400${N100}/tensile/trajectory/dumpten.tens_${usic}_${trial}_*.cfg mass type xs ys zs fx fy fz
dump 2 all cfg 20000 ./400600/tensile/trajectory/dumpten.tens_${usic}_${trial}_*.cfg mass type xs ys zs fx fy fz
dump 2 all cfg 20000 ./400600/tensile/trajectory/dumpten.tens_2_${trial}_*.cfg mass type xs ys zs fx fy fz
dump 2 all cfg 20000 ./400600/tensile/trajectory/dumpten.tens_2_5_*.cfg mass type xs ys zs fx fy fz
dump_modify 2 element N20 N100

fix 1 all nvt temp ${T} ${T} 100
fix 1 all nvt temp 300 ${T} 100
fix 1 all nvt temp 300 300 100
fix 2 all deform 1 x erate ${strain_rate} y erate ${strain_rate} z erate ${strain_rate} units box
fix 2 all deform 1 x erate 5e-6 y erate ${strain_rate} z erate ${strain_rate} units box
fix 2 all deform 1 x erate 5e-6 y erate 5e-6 z erate ${strain_rate} units box
fix 2 all deform 1 x erate 5e-6 y erate 5e-6 z erate 5e-6 units box
fix             def1 all print ${ts_save} "${p1} ${p2} ${p3} ${p4}" file ./tensile/tensile${N20}${N100}_${usic}_${trial}.txt screen no
fix             def1 all print 100 "${p1} ${p2} ${p3} ${p4}" file ./tensile/tensile${N20}${N100}_${usic}_${trial}.txt screen no
fix             def1 all print 100 "${p1} ${p2} ${p3} ${p4}" file ./tensile/tensile400${N100}_${usic}_${trial}.txt screen no
fix             def1 all print 100 "${p1} ${p2} ${p3} ${p4}" file ./tensile/tensile400600_${usic}_${trial}.txt screen no
fix             def1 all print 100 "${p1} ${p2} ${p3} ${p4}" file ./tensile/tensile400600_2_${trial}.txt screen no
fix             def1 all print 100 "${p1} ${p2} ${p3} ${p4}" file ./tensile/tensile400600_2_5.txt screen no

timestep       		${ts}
timestep       		0.1
run				${steps_tensile}
run				6000000
Generated 0 of 1 mixed pair_coeff terms from geometric mixing rule
Unused restart file global fix info:
  fix style: npt, fix ID: 5
Neighbor list info ...
  update every 1 steps, delay 0 steps, check no
  max neighbors/atom: 2000, page size: 100000
  master list distance cutoff = 113.78
  ghost atom cutoff = 113.78
  binsize = 56.89, bins = 12 12 12
  1 neighbor lists, perpetual/occasional/extra = 1 0 0
  (1) pair table/pgn, perpetual
      attributes: half, newton on
      pair build: half/bin/atomonly/newton
      stencil: half/bin/3d
      bin: standard
Per MPI rank memory allocation (min/avg/max) = 3.849 | 3.85 | 3.851 Mbytes
   Step          Temp           v_p1           v_p2           v_p3           v_p4          Press            Lx             Ly             Lz           Volume        Density         E_pair         PotEng         KinEng         TotEng          Pxx            Pyy            Pzz            Pxy            Pxz            Pyz           S/CPU     
         0   305.05076     -5.0086999e-16  0.0090783823   0.010248032    0.0062680019  -84.199083      680.93621      680.93621      680.93621      3.1573251e+08  1.7985356     -34844599      -34844599       908.38907     -34843691      -89.596667     -101.14021     -61.860369     -50.514267     -87.764789     -18.179264      0            
       100   314.2121       5e-05          0.0098659446   0.011052326    0.0070601141  -92.041728      680.97026      680.97026      680.97026      3.1577987e+08  1.7982659     -34844567      -34844567       935.66999     -34843631      -97.369303     -109.07797     -69.677909     -50.485494     -87.659355     -18.114755      12600.441    
       200   324.24118      0.0001         0.010661229    0.011864056    0.0078609452  -99.962925      681.00431      681.00431      681.00431      3.1582723e+08  1.7979962     -34844532      -34844532       965.53488     -34843566      -105.21815     -117.08913     -77.581497     -50.469951     -87.549202     -18.066426      12971.671    
       300   334.87162      0.00015        0.011455782    0.012674509    0.008661978   -107.87818      681.03835      681.03835      681.03835      3.1587461e+08  1.7977265     -34844495      -34844495       997.19051     -34843498      -113.05978     -125.08768     -85.487076     -50.467837     -87.434994     -18.035304      12896.255    
       400   345.78791      0.0002         0.012249085    0.013483049    0.0094626583  -115.78186      681.0724       681.0724       681.0724       3.1592198e+08  1.7974569     -34844456      -34844456       1029.6973     -34843426      -120.88907     -133.06734     -93.389177     -50.478368     -87.316171     -18.021097      13047.091    
       500   356.66553      0.00025        0.013040608    0.014289056    0.010262408   -123.6683       681.10645      681.10645      681.10645      3.1596936e+08  1.7971874     -34844415      -34844415       1062.0891     -34843352      -128.7008      -141.02202     -101.28209     -50.500472     -87.192352     -18.023353      13040.943    
       600   367.30657      0.0003         0.013829844    0.01509196     0.011060646   -131.53203      681.1405       681.1405       681.1405       3.1601675e+08  1.7969179     -34844371      -34844371       1093.7763     -34843277      -136.48995     -148.94606     -109.16009     -50.533294     -87.063219     -18.040959      13324.502    
       700   377.87409      0.00035        0.014616322    0.015891227    0.011856795   -139.36786      681.17454      681.17454      681.17454      3.1606414e+08  1.7966485     -34844325      -34844325       1125.2445     -34843200      -144.25189     -156.83422     -117.01747     -50.576217     -86.92848      -18.07256       12727.059    
       800   388.9481       0.0004         0.015399563    0.016686316    0.012650301   -147.17059      681.20859      681.20859      681.20859      3.1611154e+08  1.7963791     -34844277      -34844277       1158.221      -34843119      -151.98187     -164.68113     -124.84877     -50.628742     -86.788357     -18.116957      13267.827    
       900   401.03595      0.00045        0.016179216    0.017476741    0.013440687   -154.93591      681.24264      681.24264      681.24264      3.1615894e+08  1.7961098     -34844226      -34844226       1194.2166     -34843032      -159.67645     -172.48203     -132.64926     -50.689955     -86.643323     -18.172705      13111.765    
      1000   414.02162      0.0005         0.016955137    0.018262248    0.014227684   -162.66163      681.27668      681.27668      681.27668      3.1620634e+08  1.7958405     -34844173      -34844173       1232.8857     -34842940      -167.33419     -180.23438     -140.41632     -50.758639     -86.494093     -18.238406      12676.05     
      1100   427.31125      0.00055        0.017727301    0.019042716    0.015011139   -170.34676      681.31073      681.31073      681.31073      3.1625375e+08  1.7955713     -34844118      -34844118       1272.4599     -34842845      -174.95486     -187.937       -148.14842     -50.833526     -86.341477     -18.312799      13014.606    
      1200   440.31607      0.0006         0.018495651    0.019817932    0.015790829   -177.98968      681.34478      681.34478      681.34478      3.1630117e+08  1.7953021     -34844060      -34844060       1311.1861     -34842748      -182.53789     -195.58778     -155.84336     -50.913196     -86.186146     -18.394586      12810.097    
      1300   452.76058      0.00065        0.01926003     0.020587558    0.016566454   -185.58777      681.37882      681.37882      681.37882      3.1634858e+08  1.795033      -34843999      -34843999       1348.2437     -34842651      -190.08171     -203.1834      -163.49819     -50.996243     -86.028301     -18.482174      13092.181    
      1400   464.70987      0.0007         0.020020271    0.021351308    0.017337804   -193.13885      681.41287      681.41287      681.41287      3.1639601e+08  1.794764      -34843935      -34843935       1383.8266     -34842551      -197.58471     -210.72102     -171.11082     -51.081149     -85.867666     -18.573853      12992.151    
      1500   476.33701      0.00075        0.020776288    0.022109057    0.018104885   -200.64225      681.44692      681.44692      681.44692      3.1644344e+08  1.794495      -34843869      -34843869       1418.4503     -34842450      -205.04602     -218.19942     -178.68132     -51.166422     -85.70407      -18.668324      13062.188    
      1600   487.6945       0.0008         0.02152798     0.022860792    0.018867797   -208.09793      681.48096      681.48096      681.48096      3.1649087e+08  1.794226      -34843800      -34843800       1452.2709     -34842347      -212.46464     -225.61847     -186.21067     -51.250343     -85.537707     -18.764729      13058.516    
      1700   498.7139       0.00085        0.022275334    0.023606675    0.019626689   -215.50686      681.51501      681.51501      681.51501      3.1653831e+08  1.7939571     -34843727      -34843727       1485.0848     -34842242      -219.84046     -232.97977     -193.70036     -51.330935     -85.368989     -18.862615      13204.027    
      1800   509.31437      0.0009         0.023018418    0.024346997    0.020381791   -222.87098      681.54906      681.54906      681.54906      3.1658575e+08  1.7936883     -34843652      -34843652       1516.6512     -34842135      -227.17412     -240.28618     -201.15264     -51.406417     -85.198419     -18.961676      13027.642    
      1900   519.45097      0.00095        0.023757243    0.025082171    0.021133326   -230.19242      681.5831       681.5831       681.5831       3.166332e+08   1.7934195     -34843573      -34843573       1546.8363     -34842027      -234.46576     -247.54178     -208.56971     -51.475103     -85.026404     -19.061647      13161.788    
      2000   529.10059      0.001          0.02449179     0.025812736    0.021881455   -237.47341      681.61715      681.61715      681.61715      3.1668065e+08  1.7931508     -34843492      -34843492       1575.5712     -34841916      -241.71517     -254.7519      -215.95317     -51.535352     -84.853144     -19.162772      13003.171    
      2100   538.2447       0.00105        0.025222113    0.026539321    0.022626333   -244.71673      681.6512       681.6512       681.6512       3.1672811e+08  1.7928821     -34843407      -34843407       1602.8008     -34841804      -248.9229      -261.92274     -223.30454     -51.585618     -84.678551     -19.265441      12944.431    
      2200   546.86685      0.0011         0.025948348    0.02726262     0.0233682     -251.92587      681.68524      681.68524      681.68524      3.1677557e+08  1.7926135     -34843318      -34843318       1628.4761     -34841690      -256.09028     -269.06114     -230.6262      -51.624323     -84.502534     -19.369939      13229.828    
      2300   554.95482      0.00115        0.026670722    0.027983316    0.024107383   -259.10493      681.71929      681.71929      681.71929      3.1682304e+08  1.7923449     -34843226      -34843226       1652.5607     -34841573      -263.21956     -276.17385     -237.92137     -51.65036      -84.325279     -19.475895      12926.659    
      2400   562.50126      0.0012         0.027389578    0.028702       0.024844117   -266.25774      681.75334      681.75334      681.75334      3.1687051e+08  1.7920764     -34843130      -34843130       1675.0327     -34841455      -270.31412     -283.26672     -245.19237     -51.663338     -84.146649     -19.582351      13044.117    
      2500   569.50317      0.00125        0.028105326    0.029419172    0.025578575   -273.38786      681.78738      681.78738      681.78738      3.1691798e+08  1.7918079     -34843031      -34843031       1695.8832     -34841335      -277.37801     -290.34465     -252.44091     -51.663399     -83.96606      -19.688299      12968.365    
      2600   575.9615       0.0013         0.028818421    0.030135203    0.026310818   -280.49821      681.82143      681.82143      681.82143      3.1696546e+08  1.7915395     -34842928      -34842928       1715.115      -34841213      -284.4157      -297.41133     -259.66759     -51.650845     -83.782631     -19.793458      12998.913    
      2700   581.8807       0.00135        0.029529252    0.03085038     0.027040861   -287.59106      681.85548      681.85548      681.85548      3.1701295e+08  1.7912712     -34842821      -34842821       1732.7414     -34841088      -291.43106     -304.46958     -266.87255     -51.626297     -83.595856     -19.897798      13021.133    
      2800   587.2685       0.0014         0.030238206    0.031564997    0.027768675   -294.66857      681.88953      681.88953      681.88953      3.1706044e+08  1.7910029     -34842710      -34842710       1748.7853     -34840961      -298.42789     -311.5223      -274.05552     -51.590946     -83.404952     -20.001241      13211.417    
      2900   592.13542      0.00145        0.03094563     0.032279443    0.028494335   -301.73339      681.92357      681.92357      681.92357      3.1710793e+08  1.7907346     -34842594      -34842594       1763.2782     -34840831      -305.40963     -318.57333     -281.21722     -51.546502     -83.209153     -20.10344       13008.081    
      3000   596.49446      0.0015         0.031651901    0.03299412     0.029217991   -308.78859      681.95762      681.95762      681.95762      3.1715543e+08  1.7904664     -34842475      -34842475       1776.2586     -34840699      -312.37998     -325.62665     -288.35915     -51.494411     -83.007974     -20.20356       13022.439    
      3100   600.36069      0.00155        0.032357468    0.033709312    0.029939744   -315.83691      681.99167      681.99167      681.99167      3.1720294e+08  1.7901983     -34842351      -34842351       1787.7716     -34840564      -319.34338     -332.68504     -295.4823      -51.435811     -82.801666     -20.30042       12999.428    
      3200   603.75091      0.0016         0.033062754    0.034425222    0.030659659   -322.88062      682.02571      682.02571      682.02571      3.1725045e+08  1.7899302     -34842224      -34842224       1797.8671     -34840426      -326.30401     -339.75053     -302.58731     -51.371885     -82.591084     -20.392799      13197.555    
      3300   606.68333      0.00165        0.033768157    0.035142094    0.031377868   -329.92226      682.05976      682.05976      682.05976      3.1729796e+08  1.7896622     -34842091      -34842091       1806.5994     -34840285      -333.2658      -346.8255      -309.67548     -51.303342     -82.37715      -20.479457      13015.095    
      3400   609.1772       0.0017         0.034474024    0.035860077    0.032094519   -336.96396      682.09381      682.09381      682.09381      3.1734548e+08  1.7893942     -34841955      -34841955       1814.0257     -34840140      -340.23217     -353.91144     -316.74828     -51.230566     -82.160664     -20.559033      12774.559    
      3500   611.25259      0.00175        0.03518069     0.036579301    0.03280992    -344.00826      682.12785      682.12785      682.12785      3.17393e+08    1.7891263     -34841813      -34841813       1820.2058     -34839993      -347.20642     -361.00963     -323.80873     -51.154064     -81.942493     -20.630128      13079.908    
      3600   612.9301       0.0018         0.035888417    0.037299733    0.033524506   -351.05734      682.1619       682.1619       682.1619       3.1744053e+08  1.7888584     -34841667      -34841667       1825.2012     -34839842      -354.19114     -368.11974     -330.86115     -51.074495     -81.723137     -20.691263      13135.563    
      3700   614.23067      0.00185        0.036597359    0.038021142    0.034238665   -358.11224      682.19595      682.19595      682.19595      3.1748806e+08  1.7885906     -34841517      -34841517       1829.0741     -34839688      -361.18785     -375.2395      -337.90935     -50.992786     -81.502883     -20.741233      13143.71     
      3800   615.17536      0.0019         0.037307692    0.038743225    0.034952724   -365.17359      682.22999      682.22999      682.22999      3.175356e+08   1.7883228     -34841361      -34841361       1831.8872     -34839530      -368.1983      -382.3659      -344.95657     -50.910187     -81.282094     -20.778907      12810.695    
      3900   615.7852       0.00195        0.03801952     0.039465615    0.035666858   -372.24111      682.26404      682.26404      682.26404      3.1758314e+08  1.7880551     -34841201      -34841201       1833.7032     -34839368      -375.22349     -389.49533     -352.00452     -50.827733     -81.061871     -20.803295      13167.536    
      4000   616.08099      0.002          0.038732802    0.040187979    0.036381227   -379.31411      682.29809      682.29809      682.29809      3.1763069e+08  1.7877874     -34841036      -34841036       1834.584      -34839202      -382.26304     -396.62451     -359.0548      -50.746332     -80.843236     -20.813282      13132.902    
      4100   616.08327      0.00205        0.039447553    0.04091001     0.037096019   -386.39225      682.33213      682.33213      682.33213      3.1767824e+08  1.7875198     -34840867      -34840867       1834.5908     -34839032      -389.31708     -403.75041     -366.10925     -50.666761     -80.626672     -20.808282      13239.848    
      4200   615.81213      0.0021         0.040163728    0.041631467    0.037811473   -393.47535      682.36618      682.36618      682.36618      3.177258e+08   1.7872523     -34840692      -34840692       1833.7834     -34838858      -396.38518     -410.87064     -373.17022     -50.589626     -80.412617     -20.788466      13086.866    
      4300   615.28717      0.00215        0.040881207    0.042352144    0.038527789   -400.56301      682.40023      682.40023      682.40023      3.1777336e+08  1.7869848     -34840512      -34840512       1832.2201     -34838680      -403.46614     -417.98317     -380.23972     -50.515427     -80.201811     -20.753839      13111.441    
      4400   614.52745      0.0022         0.04159986     0.043071921    0.03924512    -407.65491      682.43427      682.43427      682.43427      3.1782093e+08  1.7867173     -34840327      -34840327       1829.9578     -34838497      -410.5587      -425.08681     -387.31922     -50.444713     -79.995361     -20.704261      12997.489    
      4500   613.55132      0.00225        0.042319602    0.043790848    0.039963614   -414.75142      682.46832      682.46832      682.46832      3.178685e+08   1.7864499     -34840137      -34840137       1827.0511     -34838310      -417.662       -432.18207     -394.41021     -50.377731     -79.794533     -20.639305      13250.063    
      4600   612.37641      0.0023         0.043040303    0.044509071    0.040683346   -421.85285      682.50237      682.50237      682.50237      3.1791607e+08  1.7861826     -34839942      -34839942       1823.5524     -34838119      -424.77477     -439.27037     -401.51341     -50.314732     -79.600451     -20.558979      12982.806    
      4700   611.01962      0.00235        0.043761671    0.045226644    0.041404251   -428.95819      682.53641      682.53641      682.53641      3.1796365e+08  1.7859153     -34839742      -34839742       1819.5121     -34837923      -431.89411     -446.35227     -408.62819     -50.256146     -79.413769     -20.464482      12967.508    
      4800   609.49718      0.0024         0.044483294    0.045943539    0.042126146   -436.0654       682.57046      682.57046      682.57046      3.1801124e+08  1.7856481     -34839537      -34839537       1814.9785     -34837722      -439.01598     -453.42748     -415.75274     -50.202698     -79.234849     -20.357785      13173.394    
      4900   607.82463      0.00245        0.045204746    0.046659746    0.042848844   -443.17242      682.60451      682.60451      682.60451      3.1805883e+08  1.7853809     -34839326      -34839326       1809.998      -34837516      -446.13616     -460.49589     -422.88521     -50.154817     -79.064287     -20.241239      13200.508    
      5000   606.01686      0.0025         0.045925583    0.047375184    0.04357209    -450.27669      682.63856      682.63856      682.63856      3.1810642e+08  1.7851138     -34839111      -34839111       1804.6147     -34837306      -453.25027     -467.55671     -430.02309     -50.112347     -78.903093     -20.11723       13184.889    
      5100   604.08805      0.00255        0.046645366    0.048089743    0.044295547   -457.3753       682.6726       682.6726       682.6726       3.1815402e+08  1.7848467     -34838890      -34838890       1798.871      -34837091      -460.35397     -474.60886     -437.16306     -50.075419     -78.752575     -19.988442      10295.014    
      5200   602.05169      0.0026         0.047363687    0.048803297    0.04501894    -464.46558      682.70665      682.70665      682.70665      3.1820163e+08  1.7845797     -34838664      -34838664       1792.8071     -34836871      -467.44324     -481.65109     -444.3024      -50.04452      -78.613923     -19.857515      12885.489    
      5300   599.92055      0.00265        0.048080177    0.049515825    0.04574208    -471.54563      682.7407       682.7407       682.7407       3.1824924e+08  1.7843127     -34838432      -34838432       1786.461      -34836646      -474.51446     -488.6832      -451.43923     -50.019999     -78.487778     -19.727502      13159.851    
      5400   597.70658      0.0027         0.0487946      0.050227382    0.046464769   -478.6142       682.77474      682.77474      682.77474      3.1829685e+08  1.7840458     -34838196      -34838196       1779.8681     -34836416      -481.56526     -495.70572     -458.57162     -50.001561     -78.374005     -19.601256      12990.406    
      5500   595.42091      0.00275        0.04950676     0.050938001    0.047186737   -485.66987      682.80879      682.80879      682.80879      3.1834447e+08  1.7837789     -34837954      -34837954       1773.0618     -34836181      -488.59374     -502.71898     -465.69689     -49.989358     -78.272002     -19.481126      13100.477    
      5600   593.07389      0.0028         0.050216456    0.051647738    0.047907669   -492.71112      682.84284      682.84284      682.84284      3.1839209e+08  1.7835121     -34837707      -34837707       1766.0728     -34835941      -495.59788     -509.72354     -472.81193     -49.98384      -78.181496     -19.369278      13041.734    
      5700   590.67509      0.00285        0.050923532    0.052356743    0.048627296   -499.73706      682.87688      682.87688      682.87688      3.1843972e+08  1.7832454     -34837455      -34837455       1758.9296     -34835696      -502.57618     -516.72088     -479.9141      -49.984581     -78.102715     -19.267304      12966.829    
      5800   588.23332      0.0029         0.051627901    0.05306533     0.049345411   -506.74773      682.91093      682.91093      682.91093      3.1848735e+08  1.7829787     -34837198      -34837198       1751.6584     -34835446      -509.52777     -523.71409     -487.00134     -49.990778     -78.03573      -19.17635       13201.993    
      5900   585.75663      0.00295        0.052329457    0.053773743    0.050061757   -513.74277      682.94498      682.94498      682.94498      3.1853499e+08  1.782712      -34836935      -34836935       1744.2832     -34835191      -516.45159     -530.70558     -494.07113     -50.001056     -77.979686     -19.09766       12895.407    
      6000   583.25237      0.003          0.053028102    0.054482177    0.050776102   -520.72171      682.97902      682.97902      682.97902      3.1858263e+08  1.7824454     -34836667      -34836667       1736.8259     -34834930      -523.34668     -537.69728     -501.12116     -50.01353      -77.933326     -19.031674      13191.892    
      6100   580.72717      0.00305        0.053723866    0.05519082     0.051488375   -527.68504      683.01307      683.01307      683.01307      3.1863028e+08  1.7821789     -34836394      -34836394       1729.3063     -34834665      -530.21334     -544.69104     -508.15075     -50.02618      -77.895306     -18.977395      13204.188    
      6200   578.18695      0.0031         0.054416791    0.055899828    0.052198607   -534.63353      683.04712      683.04712      683.04712      3.1867793e+08  1.7819124     -34836116      -34836116       1721.742      -34834395      -537.05197     -551.68841     -515.1602      -50.036649     -77.863863     -18.933388      13232.51     
      6300   575.63696      0.00315        0.055106939    0.056609347    0.052906791   -541.56782      683.08116      683.08116      683.08116      3.1872559e+08  1.781646      -34835833      -34835833       1714.1486     -34834119      -543.8632      -558.69082     -522.14943     -50.042181     -77.836514     -18.897985      13071.311    
      6400   573.08185      0.0032         0.05579442     0.057319533    0.053612915   -548.48875      683.11521      683.11521      683.11521      3.1877325e+08  1.7813796     -34835545      -34835545       1706.5399     -34833838      -550.64811     -565.69981     -529.11833     -50.04039      -77.810397     -18.869879      13045.891    
      6500   570.52568      0.00325        0.056479533    0.058030483    0.054317043   -555.39784      683.14926      683.14926      683.14926      3.1882091e+08  1.7811133     -34835251      -34835251       1698.928      -34833552      -557.40966     -572.71634     -536.06753     -50.029509     -77.782542     -18.848167      13102.499    
      6600   567.97198      0.0033         0.057162622    0.058742135    0.05501934    -562.29656      683.1833       683.1833       683.1833       3.1886858e+08  1.780847      -34834953      -34834953       1691.3236     -34833261      -564.15121     -579.73979     -542.99866     -50.007041     -77.749949     -18.831746      13251.72     
      6700   565.42379      0.00335        0.057844086    0.059454404    0.055720018   -569.18664      683.21735      683.21735      683.21735      3.1891626e+08  1.7805808     -34834649      -34834649       1683.7355     -34832965      -570.87674     -586.76934     -549.91382     -49.970479     -77.709604     -18.81936       13113.103    
      6800   562.88372      0.0034         0.058524294    0.060167126    0.056419284   -576.06943      683.2514       683.2514       683.2514       3.1896394e+08  1.7803146     -34834340      -34834340       1676.1716     -34832664      -577.58988     -593.80336     -556.81504     -49.91765      -77.658411     -18.810006      13088.222    
      6900   560.354        0.00345        0.059203554    0.060880046    0.057117387   -582.94592      683.28544      683.28544      683.28544      3.1901162e+08  1.7800485     -34834026      -34834026       1668.6385     -34832357      -584.29365     -600.83934     -563.70478     -49.846522     -77.593225     -18.803115      13185.645    
      7000   557.83657      0.0035         0.059882096    0.061592784    0.0578145     -589.8162       683.31949      683.31949      683.31949      3.1905931e+08  1.7797824     -34833706      -34833706       1661.1421     -34832045      -590.99034     -607.87351     -570.58475     -49.755202     -77.511612     -18.798463      13178.2      
      7100   555.33318      0.00355        0.060560076    0.062304872    0.058510695   -596.67947      683.35354      683.35354      683.35354      3.1910701e+08  1.7795164     -34833381      -34833381       1653.6874     -34831728      -597.68148     -614.90127     -577.45566     -49.642583     -77.412152     -18.7958        13123.577    
      7200   552.84541      0.0036         0.061237579    0.063015836    0.059206002   -603.53456      683.38758      683.38758      683.38758      3.1915471e+08  1.7792504     -34833051      -34833051       1646.2792     -34831405      -604.36791     -621.91795     -584.31781     -49.507972     -77.294206     -18.794997      12994.872    
      7300   550.37477      0.00365        0.061914694    0.063725282    0.05990041    -610.38041      683.42163      683.42163      683.42163      3.1920241e+08  1.7789845     -34832716      -34832716       1638.9221     -34831077      -611.05052     -628.91963     -591.17108     -49.351057     -77.157739     -18.796414      12940.905    
      7400   547.92267      0.0037         0.062591481    0.064432842    0.060593828   -617.21573      683.45568      683.45568      683.45568      3.1925012e+08  1.7787187     -34832376      -34832376       1631.6201     -34830744      -617.72989     -635.9027      -598.01458     -49.172176     -77.003191     -18.801677      12950.793    
      7500   545.49048      0.00375        0.063267993    0.065138095    0.061286156   -624.03896      683.48973      683.48973      683.48973      3.1929783e+08  1.7784529     -34832030      -34832030       1624.3775     -34830406      -624.40654     -642.86302     -604.84733     -48.972079     -76.832106     -18.812998      12901.128    
      7600   543.07954      0.0038         0.063944389    0.065840686    0.061977288   -630.84913      683.52377      683.52377      683.52377      3.1934555e+08  1.7781871     -34831680      -34831680       1617.1981     -34830062      -631.08206     -649.79705     -611.66828     -48.752379     -76.646538     -18.831922      13091.728    
      7700   540.69116      0.00385        0.064620831    0.066540417    0.062667031   -637.64546      683.55782      683.55782      683.55782      3.1939327e+08  1.7779215     -34831324      -34831324       1610.086      -34829713      -637.75802     -656.70286     -618.47551     -48.515668     -76.448709     -18.85962       12930.453    
      7800   538.32666      0.0039         0.065297403    0.067237152    0.063355092   -644.42683      683.59187      683.59187      683.59187      3.19441e+08    1.7776558     -34830962      -34830962       1603.0449     -34829359      -644.43526     -663.5791      -625.26614     -48.26484      -76.240617     -18.897087      12987.178    
      7900   535.98736      0.00395        0.065974225    0.067930803    0.064041236   -651.19258      683.62591      683.62591      683.62591      3.1948873e+08  1.7773902     -34830596      -34830596       1596.0788     -34829000      -651.11498     -670.4249      -632.03786     -48.002594     -76.024137     -18.945067      13027.681    
      8000   533.6746       0.004          0.066651399    0.068621427    0.06472532    -657.94274      683.65996      683.65996      683.65996      3.1953647e+08  1.7771247     -34830224      -34830224       1589.1918     -34828635      -657.79817     -677.24083     -638.78924     -47.732086     -75.801551     -19.004327      13202.24     
      8100   531.38965      0.00405        0.067328975    0.069309133    0.065407184   -664.67733      683.69401      683.69401      683.69401      3.1958421e+08  1.7768592     -34829848      -34829848       1582.3876     -34828265      -664.48532     -684.02796     -645.51872     -47.456543     -75.575022     -19.075376      12908.384    
      8200   529.13374      0.0041         0.06800693     0.069993968    0.066086641   -671.3958       683.72805      683.72805      683.72805      3.1963196e+08  1.7765938     -34829466      -34829466       1575.6699     -34827890      -671.17622     -690.78676     -652.22444     -47.179198     -75.346106     -19.158486      13292.006    
      8300   526.90802      0.00415        0.068685159    0.070675994    0.066763499   -678.09738      683.7621       683.7621       683.7621       3.1967971e+08  1.7763284     -34829079      -34829079       1569.0421     -34827510      -677.86981     -697.51783     -658.90451     -46.903303     -75.116293     -19.253732      13005.669    
      8400   524.7136       0.0042         0.069363388    0.071355269    0.067437621   -684.78092      683.79615      683.79615      683.79615      3.1972747e+08  1.7760631     -34828687      -34828687       1562.5075     -34827125      -684.56342     -704.22175     -665.55758     -46.631879     -74.886383     -19.361036      12756.132    
      8500   522.55152      0.00425        0.070041219    0.0720318      0.068108893   -691.44473      683.83019      683.83019      683.83019      3.1977523e+08  1.7757978     -34828290      -34828290       1556.0692     -34826734      -691.25308     -710.89859     -672.18251     -46.368212     -74.656779     -19.480034      13093.879    
      8600   520.42272      0.0043         0.070718283    0.072705614    0.068777317   -698.08772      683.86424      683.86424      683.86424      3.1982299e+08  1.7755326     -34827888      -34827888       1549.73       -34826338      -697.93519     -717.54862     -678.77934     -46.115983     -74.427568     -19.609965      13163.862    
      8700   518.32805      0.00435        0.071394265    0.073376744    0.069442951   -704.70914      683.89829      683.89829      683.89829      3.1987076e+08  1.7752674     -34827481      -34827481       1543.4924     -34825937      -704.60661     -724.17216     -685.34864     -45.879222     -74.198815     -19.749204      13190.714    
      8800   516.26816      0.0044         0.072068763    0.074045256    0.070105806   -711.30792      683.93233      683.93233      683.93233      3.1991854e+08  1.7750023     -34827069      -34827069       1537.3584     -34825531      -711.26339     -730.76986     -691.89051     -45.662097     -73.97079      -19.895638      13162.332    
      8900   514.2436       0.00445        0.072741321    0.074711309    0.070765925   -717.88323      683.96638      683.96638      683.96638      3.1996632e+08  1.7747373     -34826652      -34826652       1531.3296     -34825120      -717.90102     -737.3433      -698.40537     -45.46815      -73.743888     -20.047172      12886.56     
      9000   512.25471      0.0045         0.073411544    0.075375163    0.071423431   -724.43503      684.00043      684.00043      684.00043      3.200141e+08   1.7744723     -34826230      -34826230       1525.4071     -34824704      -724.51561     -743.89503     -704.89446     -45.300485     -73.517897     -20.20186       12695.408    
      9100   510.30172      0.00455        0.074079174    0.076037005    0.072078483   -730.96361      684.03447      684.03447      684.03447      3.2006189e+08  1.7742073     -34825803      -34825803       1519.5914     -34824283      -731.10461     -750.4269      -711.35932     -45.161966     -73.292171     -20.358122      13037.222    
      9200   508.38463      0.0046         0.074744069    0.076696863    0.072731289   -737.46927      684.06852      684.06852      684.06852      3.2010969e+08  1.7739424     -34825371      -34825371       1513.8826     -34823857      -737.66661     -756.93918     -717.80201     -45.054484     -73.065717     -20.51513       13203.98     
      9300   506.50332      0.00465        0.075406163    0.077354716    0.073382037   -743.95235      684.10257      684.10257      684.10257      3.2015749e+08  1.7736776     -34824934      -34824934       1508.2804     -34823426      -744.20097     -763.43169     -724.2244      -44.978927     -72.837508     -20.672586      12663.84     
      9400   504.65749      0.0047         0.07606551     0.078010672    0.074030826   -750.41371      684.13661      684.13661      684.13661      3.2020529e+08  1.7734128     -34824492      -34824492       1502.7838     -34822990      -750.70822     -769.90547     -730.62744     -44.935841     -72.606992     -20.829906      13115.065    
      9500   502.84668      0.00475        0.076722079    0.078664931    0.07467773    -756.85415      684.17066      684.17066      684.17066      3.202531e+08   1.773148      -34824046      -34824046       1497.3915     -34822548      -757.18805     -776.36251     -737.01189     -44.925363     -72.374401     -20.986561      13130.602    
      9600   501.07032      0.0048         0.077375832    0.079317635    0.075322821   -763.27424      684.20471      684.20471      684.20471      3.2030091e+08  1.7728834     -34823594      -34823594       1492.1019     -34822102      -763.64009     -782.80419     -743.37844     -44.946771     -72.140022     -21.141568      13084.039    
      9700   499.32773      0.00485        0.078026725    0.079968852    0.075966143   -769.67421      684.23876      684.23876      684.23876      3.2034873e+08  1.7726187     -34823138      -34823138       1486.9127     -34821651      -770.0639      -789.2312      -749.72754     -44.998378     -71.903925     -21.293815      13138.911    
      9800   497.61813      0.0049         0.078674756    0.080618708    0.076607797   -776.05481      684.2728       684.2728       684.2728       3.2039655e+08  1.7723541     -34822678      -34822678       1481.8218     -34821196      -776.45948     -795.64479     -756.06017     -45.077511     -71.666562     -21.442376      13088.438    
      9900   495.9406       0.00495        0.079319981    0.081267371    0.077248017   -782.41753      684.30685      684.30685      684.30685      3.2044438e+08  1.7720896     -34822212      -34822212       1476.8264     -34820735      -782.82734     -802.04659     -762.37866     -45.180854     -71.428837     -21.586141      13140.238    
     10000   494.29415      0.005          0.079962504    0.081915074    0.077887095   -788.76445      684.3409       684.3409       684.3409       3.2049221e+08  1.7718251     -34821742      -34821742       1471.9236     -34820270      -789.16856     -808.43892     -768.68586     -45.304684     -71.191636     -21.723647      13198.867    
     10100   492.67761      0.00505        0.080602489    0.082562149    0.078525313   -795.09812      684.37494      684.37494      684.37494      3.2054005e+08  1.7715607     -34821267      -34821267       1467.1098     -34819800      -795.48472     -814.82506     -774.98459     -45.445162     -70.955595     -21.853633      13200.945    
     10200   491.08972      0.0051         0.08124011     0.083208937    0.079162971   -801.42123      684.40899      684.40899      684.40899      3.2058789e+08  1.7712963     -34820787      -34820787       1462.3813     -34819325      -801.77755     -821.20836     -781.27778     -45.59786      -70.721479     -21.975219      13120.217    
     10300   489.52909      0.00515        0.081875617    0.083855709    0.079800368   -807.73647      684.44304      684.44304      684.44304      3.2063574e+08  1.771032      -34820302      -34820302       1457.7341     -34818845      -808.04951     -827.5915      -787.5684      -45.75775      -70.490233     -22.087857      12870.977    
     10400   487.99432      0.0052         0.082509177    0.084502599    0.080437675   -814.0454       684.47708      684.47708      684.47708      3.2068359e+08  1.7707677     -34819813      -34819813       1453.1637     -34818360      -814.30227     -833.97581     -793.85813     -45.920009     -70.262829     -22.190876      13078.209    
     10500   486.48396      0.00525        0.083140908    0.085149646    0.081074995   -820.34887      684.51113      684.51113      684.51113      3.2073145e+08  1.7705035     -34819319      -34819319       1448.6661     -34817871      -820.53697     -840.36166     -800.14799     -46.080088     -70.040257     -22.283111      12933.4      
     10600   484.99661      0.0053         0.083770861    0.085796821    0.081712369   -826.64709      684.54518      684.54518      684.54518      3.2077931e+08  1.7702394     -34818821      -34818821       1444.2371     -34817377      -826.75412     -846.74879     -806.43838     -46.233842     -69.823235     -22.363578      13258.9      
     10700   483.53091      0.00535        0.084399098    0.086444028    0.082349901   -832.9403       684.57922      684.57922      684.57922      3.2082717e+08  1.7699753     -34818317      -34818317       1439.8725     -34816878      -832.95434     -853.13623     -812.73034     -46.377162     -69.612355     -22.431649      13017.948    
     10800   482.0856       0.0054         0.085025731    0.087091157    0.082987745   -839.22899      684.61327      684.61327      684.61327      3.2087504e+08  1.7697112     -34817809      -34817809       1435.5686     -34816374      -839.13873     -859.52289     -819.02536     -46.506846     -69.407834     -22.487201      12803.735    
     10900   480.65948      0.00545        0.085650735    0.087738077    0.083625883   -845.51261      684.64732      684.64732      684.64732      3.2092292e+08  1.7694472     -34817296      -34817296       1431.3218     -34815865      -845.30704     -865.9075      -825.3233      -46.621115     -69.209823     -22.530879      12545.984    
     11000   479.25153      0.0055         0.086274013    0.088384689    0.084264297   -851.79044      684.68136      684.68136      684.68136      3.209708e+08   1.7691832     -34816779      -34816779       1427.1292     -34815352      -851.45831     -872.28906     -831.62396     -46.718788     -69.018305     -22.563427      13301.435    
     11100   477.86089      0.00555        0.086895593    0.089030947    0.084903021   -858.06254      684.71541      684.71541      684.71541      3.2101868e+08  1.7689193     -34816256      -34816256       1422.9881     -34814833      -857.59282     -878.66713     -837.92767     -46.798032     -68.833017     -22.58552       12908.711    
     11200   476.48678      0.0056         0.087515544    0.089676829    0.085542077   -864.32914      684.74946      684.74946      684.74946      3.2106657e+08  1.7686555     -34815729      -34815729       1418.8963     -34814310      -863.71127     -885.04149     -844.23466     -46.857248     -68.653413     -22.597829      13113.189    
     11300   475.12861      0.00565        0.088133894    0.090322278    0.086181383   -870.58986      684.7835       684.7835       684.7835       3.2111447e+08  1.7683917     -34815197      -34815197       1414.8519     -34813782      -869.8139      -891.41157     -850.54412     -46.895654     -68.478806     -22.601227      13159.263    
     11400   473.78592      0.0057         0.088750638    0.090967246    0.086820698   -876.84376      684.81755      684.81755      684.81755      3.2116236e+08  1.768128      -34814660      -34814660       1410.8536     -34813249      -875.9007      -897.77691     -856.85367     -46.913471     -68.308688     -22.596419      13103.984    
     11500   472.45847      0.00575        0.089365719    0.091611589    0.087459704   -883.08911      684.8516       684.8516       684.8516       3.2121027e+08  1.7678643     -34814119      -34814119       1406.9007     -34812712      -881.97108     -904.13609     -863.16017     -46.911763     -68.142556     -22.584696      13284.2      
     11600   471.14622      0.0058         0.089979086    0.092255067    0.088098102   -889.32397      684.88564      684.88564      684.88564      3.2125818e+08  1.7676006     -34813572      -34813572       1402.993      -34812169      -888.02453     -910.48672     -869.46067     -46.891998     -67.97981      -22.568007      13028.269    
     11700   469.84929      0.00585        0.090590708    0.092897363    0.088735615   -895.5463       684.91969      684.91969      684.91969      3.2130609e+08  1.767337      -34813021      -34813021       1399.131      -34811622      -894.06078     -916.82569     -875.75243     -46.856442     -67.819505     -22.548214      13195.063    
     11800   468.56799      0.0059         0.091200634    0.093538084    0.089371995   -901.75413      684.95374      684.95374      684.95374      3.2135401e+08  1.7670735     -34812465      -34812465       1395.3154     -34811070      -900.08028     -923.14911     -882.03301     -46.807472     -67.660567     -22.525823      13090.828    
     11900   467.30273      0.00595        0.091808737    0.094176752    0.090006881   -907.9443       684.98779      684.98779      684.98779      3.2140193e+08  1.76681       -34811905      -34811905       1391.5477     -34810513      -906.08179     -929.45227     -888.29885     -46.747295     -67.501944     -22.500581      13326.711    
     12000   466.05412      0.006          0.092414761    0.094812893    0.090639761   -914.11273      685.02183      685.02183      685.02183      3.2144986e+08  1.7665466     -34811339      -34811339       1387.8296     -34809951      -912.06278     -935.73051     -894.54489     -46.677943     -67.342833     -22.472341      13017.791    
     12100   464.82284      0.00605        0.093018451    0.095446135    0.091270145   -920.25571      685.05588      685.05588      685.05588      3.2149779e+08  1.7662832     -34810769      -34810769       1384.1631     -34809385      -918.02073     -941.98012     -900.76629     -46.601368     -67.182756     -22.441327      13147.213    
     12200   463.60966      0.0061         0.093619669    0.096076234    0.091897659   -926.37079      685.08993      685.08993      685.08993      3.2154573e+08  1.7660199     -34810195      -34810195       1380.5504     -34808814      -923.95429     -948.1987      -906.95938     -46.519943     -67.021609     -22.40785       12939.445    
     12300   462.41532      0.00615        0.094218347    0.096703069    0.092522073   -932.45658      685.12397      685.12397      685.12397      3.2159367e+08  1.7657566     -34809615      -34809615       1376.9939     -34808238      -929.86279     -954.38509     -913.12186     -46.436282     -66.859425     -22.372258      13214.323    
     12400   461.24055      0.0062         0.094814467    0.097326522    0.093143238   -938.51214      685.15802      685.15802      685.15802      3.2164162e+08  1.7654934     -34809031      -34809031       1373.4956     -34807658      -935.74604     -960.53809     -919.25229     -46.352789     -66.696414     -22.334829      13082.991    
     12500   460.08599      0.00625        0.095408083    0.097946379    0.093761064   -944.53664      685.19207      685.19207      685.19207      3.2168957e+08  1.7652303     -34808443      -34808443       1370.0575     -34807073      -941.60457     -966.6556      -925.34976     -46.271297     -66.532861     -22.295769      12955.476    
     12600   458.95228      0.0063         0.095999213    0.098562337    0.094375389   -950.52863      685.22611      685.22611      685.22611      3.2173752e+08  1.7649671     -34807850      -34807850       1366.6815     -34806483      -947.43857     -972.73463     -931.41267     -46.19341      -66.369131     -22.255317      13150.733    
     12700   457.83998      0.00635        0.096588032    0.099174157    0.094986074   -956.48742      685.26016      685.26016      685.26016      3.2178548e+08  1.7647041     -34807253      -34807253       1363.3693     -34805890      -953.24976     -978.77283     -937.43967     -46.121487     -66.205795     -22.213876      13158.953    
     12800   456.74953      0.0064         0.097174781    0.099781748    0.095593061   -962.41332      685.29421      685.29421      685.29421      3.2183345e+08  1.7644411     -34806651      -34806651       1360.1221     -34805291      -959.04052     -984.76929     -943.43016     -46.058413     -66.043444     -22.17189       13192.819    
     12900   455.68123      0.00645        0.097759706    0.10038519     0.096196488   -968.30786      685.32825      685.32825      685.32825      3.2188142e+08  1.7641781     -34806045      -34806045       1356.9409     -34804688      -964.81328     -990.72476     -949.38552     -46.007066     -65.883325     -22.129657      13148.329    
     13000   454.63521      0.0065         0.098343056    0.10098468     0.096796744   -974.1738       685.3623       685.3623       685.3623       3.219294e+08   1.7639152     -34805435      -34805435       1353.826      -34804081      -970.5705      -996.64132     -955.30959     -45.969611     -65.726776     -22.087637      12713.38     
     13100   453.61136      0.00655        0.098925024    0.10158046     0.097394326   -980.01417      685.39635      685.39635      685.39635      3.2197738e+08  1.7636524     -34804820      -34804820       1350.7772     -34803469      -976.31408     -1002.5212     -961.20726     -45.947597     -65.574324     -22.046429      12928.773    
     13200   452.60938      0.0066         0.099505845    0.10217276     0.097989766   -985.8323       685.43039      685.43039      685.43039      3.2202536e+08  1.7633896     -34804201      -34804201       1347.7934     -34802854      -982.04634     -1008.3668     -967.0838      -45.941958     -65.426305     -22.006481      13326.716    
     13300   451.62878      0.00665        0.10008573     0.10276187     0.098583583   -991.6315       685.46444      685.46444      685.46444      3.2207335e+08  1.7631268     -34803578      -34803578       1344.8734     -34802233      -987.7694      -1014.1808     -972.94432     -45.952939     -65.282914     -21.968227      12778.037    
     13400   450.6689       0.0067         0.10066493     0.10334802     0.099176232   -997.41485      685.49849      685.49849      685.49849      3.2212134e+08  1.7628641     -34802951      -34802951       1342.015      -34801609      -993.48561     -1019.9656     -978.79331     -45.980005     -65.144064     -21.932432      13259.722    
     13500   449.72893      0.00675        0.10124355     0.10393147     0.099768145   -1003.185       685.53253      685.53253      685.53253      3.2216934e+08  1.7626015     -34802319      -34802319       1339.216      -34800980      -999.19616     -1025.7239     -984.63504     -46.022267     -65.009714     -21.899309      13086.456    
     13600   448.80794      0.0068         0.10182163     0.10451258     0.10035974    -1008.9447      685.56658      685.56658      685.56658      3.2221735e+08  1.7623389     -34801684      -34801684       1336.4734     -34800347      -1004.9014     -1031.4589     -990.47362     -46.078763     -64.879808     -21.868171      13220.679    
     13700   447.90489      0.00685        0.10239917     0.10509177     0.10095151    -1014.6968      685.60063      685.60063      685.60063      3.2226536e+08  1.7620763     -34801044      -34801044       1333.7843     -34799710      -1010.6013     -1037.1751     -996.31395     -46.147553     -64.75459      -21.837948      12985.959    
     13800   447.01864      0.0069         0.10297611     0.10566952     0.10154398    -1020.4445      685.63467      685.63467      685.63467      3.2231337e+08  1.7618138     -34800400      -34800400       1331.1452     -34799069      -1016.2952     -1042.8771     -1002.1612     -46.225564     -64.634383     -21.807454      13118.505    
     13900   446.14798      0.00695        0.10355245     0.10624625     0.1021376     -1026.1907      685.66872      685.66872      685.66872      3.2236139e+08  1.7615514     -34799752      -34799752       1328.5525     -34798423      -1021.9833     -1048.569      -1008.0198     -46.309754     -64.519065     -21.775412      13018.165    
     14000   445.29171      0.007          0.10412819     0.10682233     0.10273271    -1031.9376      685.70277      685.70277      685.70277      3.2240941e+08  1.761289      -34799099      -34799099       1326.0027     -34797773      -1027.6653     -1054.2544     -1013.8931     -46.397104     -64.408067     -21.740603      13063.11     
     14100   444.44862      0.00705        0.1047032      0.10739807     0.10332939    -1037.6862      685.73681      685.73681      685.73681      3.2245744e+08  1.7610267     -34798443      -34798443       1323.4921     -34797119      -1033.3403     -1059.9366     -1019.7818     -46.484293     -64.301116     -21.702015      12978.043    
     14200   443.61758      0.0071         0.10527729     0.10797372     0.10392751    -1043.4362      685.77086      685.77086      685.77086      3.2250547e+08  1.7607644     -34797782      -34797782       1321.0174     -34796461      -1039.0061     -1065.6178     -1025.6848     -46.568586     -64.197701     -21.659278      12974.744    
     14300   442.79759      0.00715        0.1058503      0.10854946     0.10452683    -1049.1869      685.80491      685.80491      685.80491      3.2255351e+08  1.7605022     -34797116      -34797116       1318.5756     -34795798      -1044.6613     -1071.2999     -1031.5996     -46.647273     -64.096799     -21.612594      13215.321    
     14400   441.98776      0.0072         0.10642221     0.10912558     0.10512713    -1054.9384      685.83896      685.83896      685.83896      3.2260155e+08  1.76024       -34796447      -34796447       1316.1641     -34795131      -1050.3056     -1076.9857     -1037.5241     -46.717655     -63.997204     -21.562408      12834.585    
     14500   441.18737      0.00725        0.10699302     0.10970234     0.10572817    -1060.6909      685.873        685.873        685.873        3.226496e+08   1.7599779     -34795773      -34795773       1313.7806     -34794459      -1055.939      -1082.6779     -1043.456      -46.777584     -63.898361     -21.509463      13151.547    
     14600   440.39575      0.0073         0.10756286     0.11027999     0.10632967    -1066.4447      685.90705      685.90705      685.90705      3.2269765e+08  1.7597158     -34795095      -34795095       1311.4234     -34793783      -1061.5629     -1088.3789     -1049.3923     -46.825733     -63.799629     -21.454838      13002.697    
     14700   439.61235      0.00735        0.10813181     0.11085854     0.10693118    -1072.1985      685.9411       685.9411       685.9411       3.227457e+08   1.7594538     -34794412      -34794412       1309.0905     -34793103      -1067.178      -1094.0887     -1055.3287     -46.860571     -63.700114     -21.399489      13074.878    
     14800   438.83669      0.0074         0.10869994     0.1114377      0.10753221    -1077.95        685.97514      685.97514      685.97514      3.2279376e+08  1.7591918     -34793725      -34793725       1306.7807     -34792419      -1072.785      -1099.8046     -1061.2604     -46.880627     -63.598644     -21.343963      13052.675    
     14900   438.06839      0.00745        0.10926727     0.11201713     0.10813233    -1083.6968      686.00919      686.00919      686.00919      3.2284183e+08  1.7589299     -34793034      -34793034       1304.4929     -34791730      -1078.3841     -1105.5231     -1067.1831     -46.885166     -63.493556     -21.288552      13198.808    
     15000   437.30717      0.0075         0.10983381     0.1125965      0.10873116    -1089.4365      686.04324      686.04324      686.04324      3.228899e+08   1.7586681     -34792339      -34792339       1302.2261     -34791036      -1083.9754     -1111.2411     -1073.0931     -46.874344     -63.383025     -21.233236      13027.447    
     15100   436.55281      0.00755        0.11039965     0.11317558     0.10932842    -1095.1679      686.07728      686.07728      686.07728      3.2293798e+08  1.7584063     -34791639      -34791639       1299.9797     -34790339      -1089.5598     -1116.9561     -1078.9877     -46.848533     -63.266004     -21.178103      13045.605    
     15200   435.80518      0.0076         0.11096498     0.1137542      0.10992394    -1100.8903      686.11133      686.11133      686.11133      3.2298606e+08  1.7581445     -34790934      -34790934       1297.7534     -34789636      -1095.1392     -1122.6666     -1084.865      -46.808108     -63.141785     -21.123186      13195.159    
     15300   435.06418      0.00765        0.11152992     0.11433217     0.11051746    -1106.6027      686.14538      686.14538      686.14538      3.2303414e+08  1.7578828     -34790225      -34790225       1295.5468     -34788930      -1100.7147     -1128.3708     -1090.7225     -46.753418     -63.010017     -21.068636      12890.179    
     15400   434.32973      0.0077         0.11209452     0.11490923     0.11110862    -1112.3033      686.17942      686.17942      686.17942      3.2308223e+08  1.7576211     -34789512      -34789512       1293.3598     -34788219      -1106.2869     -1134.0659     -1096.5569     -46.684836     -62.870991     -21.014986      13107.759    
     15500   433.60181      0.00775        0.11265883     0.11548513     0.11169706    -1117.99        686.21347      686.21347      686.21347      3.2313032e+08  1.7573595     -34788795      -34788795       1291.1922     -34787504      -1111.8562     -1139.7497     -1102.3643     -46.602607     -62.725727     -20.962996      12998.352    
     15600   432.88047      0.0078         0.11322289     0.11605964     0.11228241    -1123.6613      686.24752      686.24752      686.24752      3.2317842e+08  1.757098      -34788073      -34788073       1289.0441     -34786784      -1117.423      -1145.4196     -1108.1413     -46.507314     -62.575187     -20.91372       13171.303    
     15700   432.16583      0.00785        0.11378671     0.11663253     0.11286436    -1129.3153      686.28156      686.28156      686.28156      3.2322653e+08  1.7568365     -34787347      -34787347       1286.916      -34786060      -1122.9876     -1151.0736     -1113.8847     -46.399645     -62.42053      -20.868333      13039.346    
     15800   431.45813      0.0079         0.11435036     0.11720373     0.11344269    -1134.9512      686.31561      686.31561      686.31561      3.2327464e+08  1.756575      -34786617      -34786617       1284.8086     -34785332      -1128.5503     -1156.7109     -1119.5923     -46.280452     -62.262818     -20.82811       13229.751    
     15900   430.75766      0.00795        0.11491392     0.11777319     0.11401731    -1140.5688      686.34966      686.34966      686.34966      3.2332275e+08  1.7563136     -34785883      -34785883       1282.7227     -34784600      -1134.1122     -1162.331      -1125.2633     -46.151141     -62.103116     -20.793839      13051.009    
     16000   430.06472      0.008          0.1154776      0.1183409      0.11458813    -1146.1687      686.3837       686.3837       686.3837       3.2337087e+08  1.7560523     -34785144      -34785144       1280.6593     -34783863      -1139.6753     -1167.9339     -1130.8969     -46.013307     -61.942747     -20.766055      13204.592    
     16100   429.37962      0.00805        0.11604171     0.11890688     0.11515501    -1151.7513      686.41775      686.41775      686.41775      3.2341899e+08  1.755791      -34784401      -34784401       1278.6192     -34783122      -1145.2426     -1173.5197     -1136.4916     -45.868038     -61.782619     -20.745021      13084.311    
     16200   428.70267      0.0081         0.11660657     0.11947117     0.11571783    -1157.3175      686.4518       686.4518       686.4518       3.2346712e+08  1.7555298     -34783654      -34783654       1276.6034     -34782377      -1150.8174     -1179.0888     -1142.0462     -45.716741     -61.623896     -20.730779      13192.722    
     16300   428.03418      0.00815        0.11717243     0.12003388     0.11627641    -1162.8678      686.48584      686.48584      686.48584      3.2351525e+08  1.7552686     -34782902      -34782902       1274.6127     -34781628      -1156.402      -1184.6423     -1147.559      -45.560998     -61.468147     -20.723499      13080.775    
     16400   427.3745       0.0082         0.11773942     0.12059517     0.11683058    -1168.4026      686.51989      686.51989      686.51989      3.2356339e+08  1.7550074     -34782147      -34782147       1272.6483     -34780874      -1161.9978     -1190.1818     -1153.0282     -45.401771     -61.316479     -20.722758      12845.088    
     16500   426.72396      0.00825        0.11830767     0.12115523     0.11738037    -1173.9231      686.55394      686.55394      686.55394      3.2361153e+08  1.7547464     -34781387      -34781387       1270.7111     -34780117      -1167.6059     -1195.7092     -1158.4541     -45.239617     -61.169799     -20.727757      13232.505    
     16600   426.08283      0.0083         0.11887738     0.12171433     0.11792603    -1179.4317      686.58799      686.58799      686.58799      3.2365968e+08  1.7544853     -34780624      -34780624       1268.8019     -34779355      -1173.2286     -1201.2271     -1163.8394     -45.075406     -61.029017     -20.737782      12903.87     
     16700   425.45127      0.00835        0.11944863     0.12227277     0.11846794    -1184.9308      686.62203      686.62203      686.62203      3.2370783e+08  1.7542243     -34779856      -34779856       1266.9212     -34778589      -1178.8663     -1206.7384     -1169.1876     -44.910071     -60.894365     -20.752097      13148.404    
     16800   424.82938      0.0084         0.12002113     0.12283075     0.11900643    -1190.4213      686.65608      686.65608      686.65608      3.2375599e+08  1.7539634     -34779084      -34779084       1265.0693     -34777819      -1184.5164     -1212.2453     -1174.5021     -44.744486     -60.765559     -20.77001       13101.047    
     16900   424.2172       0.00845        0.12059452     0.12338848     0.11954183    -1195.9037      686.69013      686.69013      686.69013      3.2380415e+08  1.7537025     -34778308      -34778308       1263.2464     -34777044      -1190.1754     -1217.7496     -1179.7862     -44.579801     -60.641778     -20.79067       13259.276    
     17000   423.61473      0.0085         0.12116842     0.12394614     0.12007451    -1201.3786      686.72417      686.72417      686.72417      3.2385231e+08  1.7534417     -34777528      -34777528       1261.4523     -34776266      -1195.8393     -1223.2533     -1185.0433     -44.417277     -60.521229     -20.813426      12871.179    
     17100   423.02193      0.00855        0.12174241     0.12450398     0.12060486    -1206.8468      686.75822      686.75822      686.75822      3.2390048e+08  1.7531809     -34776743      -34776743       1259.6871     -34775484      -1201.5042     -1228.7588     -1190.2775     -44.258211     -60.402002     -20.837816      13168.029    
     17200   422.43874      0.0086         0.12231614     0.12506227     0.12113326    -1212.3092      686.79227      686.79227      686.79227      3.2394866e+08  1.7529202     -34775955      -34775955       1257.9504     -34774697      -1207.1665     -1234.2687     -1195.4923     -44.104227     -60.282742     -20.863364      13027.025    
     17300   421.86508      0.00865        0.12288926     0.12562109     0.12166002    -1217.7659      686.82631      686.82631      686.82631      3.2399684e+08  1.7526595     -34775163      -34775163       1256.2422     -34773906      -1212.8227     -1239.7838     -1200.6911     -43.956782     -60.16194      -20.889669      12837.452    
     17400   421.30085      0.0087         0.1234614      0.12618053     0.12218546    -1223.217       686.86036      686.86036      686.86036      3.2404503e+08  1.7523989     -34774366      -34774366       1254.562      -34773112      -1218.4692     -1245.305      -1205.8767     -43.816301     -60.03824      -20.916265      12938.403    
     17500   420.74597      0.00875        0.12403217     0.12674064     0.12270976    -1228.6621      686.89441      686.89441      686.89441      3.2409322e+08  1.7521384     -34773566      -34773566       1252.9097     -34772313      -1224.1023     -1250.8329     -1211.0511     -43.682602     -59.910956     -20.942751      12784.067    
     17600   420.20039      0.0088         0.12460111     0.12730137     0.12323292    -1234.0995      686.92845      686.92845      686.92845      3.2414141e+08  1.7518778     -34772761      -34772761       1251.285      -34771510      -1229.7173     -1256.3669     -1216.2144     -43.555284     -59.779189     -20.969256      13089.087    
     17700   419.6641       0.00885        0.12516767     0.12786257     0.12375503    -1239.5272      686.9625       686.9625       686.9625       3.2418961e+08  1.7516174     -34771952      -34771952       1249.688      -34770703      -1235.3089     -1261.9055     -1221.3672     -43.433914     -59.641825     -20.99612       12938.388    
     17800   419.13715      0.0089         0.12573125     0.12842409     0.12427613    -1244.9427      686.99655      686.99655      686.99655      3.2423781e+08  1.751357      -34771140      -34771140       1248.1189     -34769892      -1240.8709     -1267.4472     -1226.5101     -43.317418     -59.498168     -21.023549      13057.07     
     17900   418.61964      0.00895        0.12629137     0.1289858      0.12479631    -1250.3445      687.03059      687.03059      687.03059      3.2428602e+08  1.7510966     -34770323      -34770323       1246.5778     -34769077      -1246.399      -1272.9909     -1231.6438     -43.204537     -59.348486     -21.052083      13254.014    
     18000   418.11168      0.009          0.1268477      0.12954748     0.12531562    -1255.7309      687.06464      687.06464      687.06464      3.2433424e+08  1.7508363     -34769503      -34769503       1245.0652     -34768257      -1251.8895     -1278.5342     -1236.769      -43.094073     -59.193877     -21.082185      13099.922    
     18100   417.61343      0.00905        0.12739996     0.13010889     0.12583415    -1261.1004      687.09869      687.09869      687.09869      3.2438246e+08  1.750576      -34768678      -34768678       1243.5815     -34767435      -1257.3398     -1284.0749     -1241.8865     -42.984965     -59.035175     -21.114477      13210.251    
     18200   417.12506      0.0091         0.12794795     0.13066981     0.126352      -1266.4521      687.13273      687.13273      687.13273      3.2443068e+08  1.7503158     -34767850      -34767850       1242.1272     -34766608      -1262.7481     -1289.6108     -1246.9973     -42.876353     -58.872816     -21.149903      13000.868    
     18300   416.64669      0.00915        0.12849151     0.1312301      0.12686935    -1271.7854      687.16678      687.16678      687.16678      3.2447891e+08  1.7500557     -34767017      -34767017       1240.7027     -34765777      -1268.1126     -1295.1404     -1252.1031     -42.768034     -58.706569     -21.188927      13120.76     
     18400   416.17844      0.0092         0.12903054     0.13178967     0.12738648    -1277.1007      687.20083      687.20083      687.20083      3.2452714e+08  1.7497956     -34766181      -34766181       1239.3083     -34764942      -1273.4324     -1300.6629     -1257.2069     -42.660151     -58.53612      -21.231579      13097.488    
     18500   415.72038      0.00925        0.12956511     0.13234853     0.12790383    -1282.3998      687.23487      687.23487      687.23487      3.2457538e+08  1.7495355     -34765341      -34765341       1237.9443     -34764103      -1278.7082     -1306.1785     -1262.3127     -42.553369     -58.361032     -21.277253      13120.971    
     18600   415.27258      0.0093         0.13009536     0.13290669     0.12842191    -1287.6847      687.26892      687.26892      687.26892      3.2462362e+08  1.7492755     -34764498      -34764498       1236.6108     -34763261      -1283.9414     -1311.6871     -1267.4257     -42.448778     -58.181253     -21.324841      12897.165    
     18700   414.83505      0.00935        0.13062144     0.13346405     0.12894128    -1292.9576      687.30297      687.30297      687.30297      3.2467187e+08  1.7490156     -34763650      -34763650       1235.308      -34762415      -1289.1334     -1317.1878     -1272.5515     -42.347653     -57.997071     -21.373219      12855.521    
     18800   414.40774      0.0094         0.13114357     0.13402042     0.12946249    -1298.2202      687.33701      687.33701      687.33701      3.2472012e+08  1.7487557     -34762799      -34762799       1234.0355     -34761565      -1294.2864     -1322.6787     -1277.6955     -42.250583     -57.809242     -21.420986      12792.82     
     18900   413.99054      0.00945        0.13166201     0.13457561     0.12998611    -1303.4748      687.37106      687.37106      687.37106      3.2476838e+08  1.7484958     -34761944      -34761944       1232.7931     -34760711      -1299.403      -1328.158      -1282.8632     -42.158014     -57.61872      -21.466239      12761.646    
     19000   413.58327      0.0095         0.13217704     0.13512936     0.13051261    -1308.7228      687.40511      687.40511      687.40511      3.2481664e+08  1.7482361     -34761085      -34761085       1231.5804     -34759853      -1304.4859     -1333.6231     -1288.0593     -42.070662     -57.426881     -21.507371      12218.626    
     19100   413.18574      0.00955        0.13268892     0.13568145     0.13104225    -1313.9654      687.43916      687.43916      687.43916      3.248649e+08   1.7479763     -34760222      -34760222       1230.3966     -34758992      -1309.5378     -1339.0718     -1293.2865     -41.989        -57.23476      -21.543226      12648.86     
     19200   412.79767      0.0096         0.13319794     0.13623168     0.13157517    -1319.2032      687.4732       687.4732       687.4732       3.2491317e+08  1.7477166     -34759356      -34759356       1229.241      -34758127      -1314.5614     -1344.5021     -1298.546      -41.913254     -57.043317     -21.573151      13241.273    
     19300   412.41878      0.00965        0.13370433     0.13677992     0.13211133    -1324.4365      687.50725      687.50725      687.50725      3.2496145e+08  1.747457      -34758486      -34758486       1228.1127     -34757258      -1319.5591     -1349.9128     -1303.8375     -41.84344      -56.853232     -21.596722      13033.555    
     19400   412.04877      0.0097         0.13420833     0.13732611     0.13265074    -1329.6659      687.5413       687.5413       687.5413       3.2500973e+08  1.7471974     -34757612      -34757612       1227.0109     -34756385      -1324.5333     -1355.3033     -1309.161      -41.779078     -56.665061     -21.614027      13211.488    
     19500   411.68734      0.00975        0.13471024     0.13787029     0.13319335    -1334.8923      687.57534      687.57534      687.57534      3.2505802e+08  1.7469379     -34756734      -34756734       1225.9346     -34755508      -1329.4867     -1360.674      -1314.5161     -41.718603     -56.479432     -21.625496      13169.16     
     19600   411.33414      0.0098         0.13521037     0.13841245     0.13373897    -1340.1161      687.60939      687.60939      687.60939      3.2510631e+08  1.7466784     -34755853      -34755853       1224.8828     -34754628      -1334.4226     -1366.0247     -1319.9011     -41.659876     -56.297283     -21.6316        13034.047    
     19700   410.9888       0.00985        0.13570895     0.13895249     0.13428726    -1345.3366      687.64344      687.64344      687.64344      3.251546e+08   1.7464189     -34754967      -34754967       1223.8545     -34753743      -1339.3432     -1371.3544     -1325.3122     -41.601301     -56.119646     -21.632558      13277.917    
     19800   410.65094      0.0099         0.13620629     0.13949034     0.13483771    -1350.553       687.67748      687.67748      687.67748      3.252029e+08   1.7461596     -34754078      -34754078       1222.8484     -34752855      -1344.2516     -1376.6626     -1330.7447     -41.542244     -55.946954     -21.628395      13021.244    
     19900   410.32015      0.00995        0.13670267     0.140026       0.13538973    -1355.7641      687.71153      687.71153      687.71153      3.2525121e+08  1.7459002     -34753185      -34753185       1221.8633     -34751963      -1349.1505     -1381.9492     -1336.1928     -41.483002     -55.779257     -21.619428      13196.097    
     20000   409.99599      0.01           0.1371983      0.14055952     0.13594268    -1360.9688      687.74558      687.74558      687.74558      3.2529952e+08  1.7456409     -34752288      -34752288       1220.898      -34751067      -1354.042      -1387.2146     -1341.6499     -41.423826     -55.616418     -21.606067      7631.6414    
     20100   409.678        0.01005        0.13769345     0.14109104     0.13649591    -1366.1663      687.77962      687.77962      687.77962      3.2534783e+08  1.7453817     -34751387      -34751387       1219.9511     -34750168      -1358.9287     -1392.4603     -1347.1099     -41.364661     -55.458331     -21.588315      12728.233    
     20200   409.36569      0.0101         0.13818842     0.14162073     0.13704892    -1371.3564      687.81367      687.81367      687.81367      3.2539615e+08  1.7451225     -34750483      -34750483       1219.0211     -34749264      -1363.8137     -1397.6879     -1352.5677     -41.305311     -55.304574     -21.56615       12881.701    
     20300   409.05855      0.01015        0.13868348     0.14214876     0.1376014     -1376.5396      687.84772      687.84772      687.84772      3.2544447e+08  1.7448634     -34749575      -34749575       1218.1065     -34748357      -1368.6995     -1402.8992     -1358.0202     -41.244998     -55.153657     -21.539736      13173.601    
     20400   408.75606      0.0102         0.13917887     0.14267523     0.13815306    -1381.7161      687.88176      687.88176      687.88176      3.254928e+08   1.7446043     -34748663      -34748663       1217.2058     -34747445      -1373.5887     -1408.095      -1363.4647     -41.182845     -55.004472     -21.508831      13096.63     
     20500   408.45778      0.01025        0.1396748      0.1432001      0.13870363    -1386.8855      687.91581      687.91581      687.91581      3.2554114e+08  1.7443453     -34747747      -34747747       1216.3175     -34746530      -1378.4831     -1413.2751     -1368.8984     -41.11819      -54.856134     -21.473617      12932.443    
     20600   408.16329      0.0103         0.14017142     0.14372328     0.13925279    -1392.047       687.94986      687.94986      687.94986      3.2558947e+08  1.7440863     -34746827      -34746827       1215.4406     -34745612      -1383.3843     -1418.4385     -1374.3182     -41.051267     -54.707312     -21.434746      13122.201    
     20700   407.87221      0.01035        0.14066883     0.14424468     0.13980009    -1397.1991      687.9839       687.9839       687.9839       3.2563782e+08  1.7438274     -34745903      -34745903       1214.5738     -34744689      -1388.2934     -1423.5843     -1379.7196     -40.98262      -54.557517     -21.392501      12623.008    
     20800   407.58423      0.0104         0.14116701     0.14476418     0.14034499    -1402.3396      688.01795      688.01795      688.01795      3.2568616e+08  1.7435686     -34744976      -34744976       1213.7162     -34743762      -1393.2101     -1428.7114     -1385.0974     -40.913696     -54.4072       -21.346434      13071.789    
     20900   407.29913      0.01045        0.14166582     0.14528155     0.14088703    -1407.4657      688.052        688.052        688.052        3.2573452e+08  1.7433097     -34744045      -34744045       1212.8673     -34742832      -1398.1329     -1433.8174     -1390.4468     -40.846272     -54.256769     -21.296176      13081.222    
     21000   407.0168       0.0105         0.14216511     0.14579647     0.14142591    -1412.575       688.08604      688.08604      688.08604      3.2578287e+08  1.743051      -34743110      -34743110       1212.0265     -34741898      -1403.0605     -1438.8993     -1395.7652     -40.781663     -54.105339     -21.241729      13070.746    
     21100   406.73723      0.01055        0.14266469     0.14630874     0.14196144    -1417.6655      688.12009      688.12009      688.12009      3.2583124e+08  1.7427923     -34742171      -34742171       1211.194      -34740960      -1407.991      -1443.955      -1401.0505     -40.721057     -53.951159     -21.183864      13143.834    
     21200   406.46049      0.0106         0.14316439     0.14681819     0.14249354    -1422.7358      688.15414      688.15414      688.15414      3.258796e+08   1.7425336     -34741229      -34741229       1210.3699     -34740018      -1412.9226     -1448.9829     -1406.3019     -40.66552      -53.791857     -21.123633      13137.916    
     21300   406.18668      0.01065        0.14366396     0.1473247      0.14302221    -1427.7848      688.18819      688.18819      688.18819      3.2592797e+08  1.742275      -34740282      -34740282       1209.5546     -34739073      -1417.8531     -1453.9818     -1411.5195     -40.616405     -53.625883     -21.062059      13025.246    
     21400   405.91596      0.0107         0.14416315     0.14782823     0.14354748    -1432.8114      688.22223      688.22223      688.22223      3.2597635e+08  1.7420164     -34739332      -34739332       1208.7484     -34738123      -1422.7797     -1458.9512     -1416.7034     -40.57544      -53.452462     -21.000444      13021.425    
     21500   405.64854      0.01075        0.14466157     0.14832879     0.14406931    -1437.8145      688.25628      688.25628      688.25628      3.2602473e+08  1.7417579     -34738378      -34738378       1207.9521     -34737170      -1427.6987     -1463.8914     -1421.8535     -40.543798     -53.270715     -20.940189      12939.677    
     21600   405.3847       0.0108         0.1451588      0.14882641     0.14458762    -1442.7924      688.29033      688.29033      688.29033      3.2607312e+08  1.7414995     -34737421      -34737421       1207.1664     -34736214      -1432.6059     -1468.8024     -1426.9688     -40.521609     -53.079504     -20.882193      13103.592    
     21700   405.12476      0.01085        0.14565434     0.1493211      0.14510235    -1447.7434      688.32437      688.32437      688.32437      3.2612151e+08  1.741241      -34736459      -34736459       1206.3924     -34735253      -1437.4966     -1473.6847     -1432.0488     -40.508909     -52.877556     -20.827701      13125.277    
     21800   404.86911      0.0109         0.14614772     0.14981296     0.14561339    -1452.6657      688.35842      688.35842      688.35842      3.261699e+08   1.7409827     -34735494      -34735494       1205.6311     -34734289      -1442.3659     -1478.5389     -1437.0924     -40.505656     -52.664399     -20.777873      13073.145    
[...]
    852700   333.33673      0.42635        0.063964657    0.063819655    0.063027604   -627.7224       971.25337      971.25337      971.25337      9.1621546e+08  0.61978452    -25302467      -25302467       992.61985     -25301475      -631.28208     -629.85102     -622.03409     -0.73790335     0.7042998      1.4579485      11522.881    
    852800   333.32801      0.4264         0.063966548    0.063817033    0.063029743   -627.72703      971.28742      971.28742      971.28742      9.1631182e+08  0.61971934    -25301608      -25301608       992.5939      -25300615      -631.30074     -629.82514     -622.0552      -0.69393865     0.67371147     1.4372373      11514.886    
    852900   333.3184       0.42645        0.063968276    0.063814166    0.063031986   -627.73066      971.32146      971.32146      971.32146      9.1640818e+08  0.61965418    -25300748      -25300748       992.56527     -25299756      -631.3178      -629.79686     -622.07734     -0.65124061     0.64332821     1.4231077      11516.5      
    853000   333.30824      0.4265         0.06396976     0.063811051    0.063034277   -627.73283      971.35551      971.35551      971.35551      9.1650455e+08  0.61958902    -25299889      -25299889       992.53503     -25298896      -631.33245     -629.76611     -622.09994     -0.61054341     0.61281358     1.4156759      11530.5      
    853100   333.29795      0.42655        0.063970898    0.063807676    0.063036564   -627.733        971.38956      971.38956      971.38956      9.1660092e+08  0.61952387    -25299029      -25299029       992.50438     -25298036      -631.34367     -629.7328      -622.12252     -0.57247113     0.5819365      1.4148403      11497.321    
    853200   333.28796      0.4266         0.063971577    0.063804027    0.063038777   -627.73051      971.4236       971.4236       971.4236       9.1669731e+08  0.61945874    -25298169      -25298169       992.47464     -25297177      -631.35038     -629.69678     -622.14436     -0.53750198     0.55067037     1.4203335      11430.24     
    853300   333.27874      0.42665        0.063971707    0.063800119    0.063040817   -627.72479      971.45765      971.45765      971.45765      9.167937e+08   0.61939361    -25297309      -25297309       992.44719     -25296317      -631.35166     -629.65821     -622.16449     -0.50599944     0.51917842     1.4318437      11470.918    
    853400   333.27078      0.4267         0.063971206    0.063795987    0.063042599   -627.71541      971.4917       971.4917       971.4917       9.1689009e+08  0.61932849    -25296449      -25296449       992.42346     -25295457      -631.34672     -629.61744     -622.18208     -0.47837277     0.48777364     1.4490693      11504.338    
    853500   333.26451      0.42675        0.063970019    0.063791694    0.063044082   -627.70226      971.52574      971.52574      971.52574      9.169865e+08   0.61926338    -25295589      -25295589       992.40479     -25294597      -631.335       -629.57507     -622.19672     -0.45501744     0.4568683      1.4717016      11472.628    
    853600   333.26032      0.4268         0.063968089    0.06378731     0.063045223   -627.68525      971.55979      971.55979      971.55979      9.1708291e+08  0.61919828    -25294729      -25294729       992.39234     -25293737      -631.31595     -629.53181     -622.20798     -0.43633339     0.42689142     1.4993804      11519.097    
    853700   333.25856      0.42685        0.063965371    0.063782918    0.063045992   -627.66438      971.59384      971.59384      971.59384      9.1717932e+08  0.61913319    -25293869      -25293869       992.38708     -25292877      -631.28913     -629.48846     -622.21557     -0.42253342     0.39836327     1.5316019      11478.56     
    853800   333.25948      0.4269         0.063961863    0.063778603    0.063046381   -627.63993      971.62788      971.62788      971.62788      9.1727575e+08  0.6190681     -25293009      -25293009       992.38982     -25292017      -631.2545      -629.44587     -622.2194      -0.41356588     0.37187448     1.5675682      11440.277    
    853900   333.26327      0.42695        0.063957592    0.063774439    0.063046396   -627.61223      971.66193      971.66193      971.66193      9.1737218e+08  0.61900303    -25292149      -25292149       992.40112     -25291157      -631.21236     -629.40478     -622.21955     -0.40924224     0.34808969     1.6063979      11455.419    
    854000   333.27007      0.427          0.063952629    0.063770498    0.063046046   -627.58179      971.69598      971.69598      971.69598      9.1746861e+08  0.61893796    -25291289      -25291289       992.42135     -25290296      -631.16337     -629.36588     -622.2161      -0.40931164     0.32749515     1.6471576      11467.251    
    854100   333.27988      0.42705        0.063947067    0.06376684     0.063045335   -627.54912      971.73002      971.73002      971.73002      9.1756506e+08  0.61887291    -25290429      -25290429       992.45058     -25289436      -631.10848     -629.32978     -622.20908     -0.41340859     0.31037292     1.689056       11555.21     
    854200   333.29268      0.4271         0.063940999    0.063763515    0.063044277   -627.51473      971.76407      971.76407      971.76407      9.1766151e+08  0.61880786    -25289568      -25289568       992.48869     -25288576      -631.0486      -629.29697     -622.19864     -0.42113241     0.29687026     1.731423       11467.594    
    854300   333.30834      0.42715        0.063934513    0.063760571    0.063042885   -627.47913      971.79812      971.79812      971.79812      9.1775796e+08  0.61874283    -25288708      -25288708       992.53533     -25287715      -630.98459     -629.26791     -622.1849      -0.43213168     0.28710566     1.7734639      11543.753    
    854400   333.3267       0.4272         0.063927694    0.063758044    0.063041158   -627.44271      971.83217      971.83217      971.83217      9.1785443e+08  0.6186778     -25287848      -25287848       992.58999     -25286855      -630.91728     -629.24298     -622.16786     -0.44613699     0.28120328     1.8144088      11543.123    
    854500   333.34752      0.42725        0.063920621    0.063755931    0.063039086   -627.40567      971.86621      971.86621      971.86621      9.179509e+08   0.61861278    -25286987      -25286987       992.652       -25285995      -630.84748     -629.22212     -622.14741     -0.46271043     0.27920468     1.8535137      11510.044    
    854600   333.37054      0.4273         0.063913353    0.063754176    0.063036633   -627.36792      971.90026      971.90026      971.90026      9.1804738e+08  0.61854777    -25286127      -25286127       992.72056     -25285134      -630.77575     -629.2048      -622.1232      -0.48123935     0.28121719     1.8900581      11493.653    
    854700   333.3955       0.42735        0.063905932    0.063752707    0.063033745   -627.32917      971.93431      971.93431      971.93431      9.1814386e+08  0.61848277    -25285267      -25285267       992.79486     -25284274      -630.70251     -629.1903      -622.0947      -0.50112422     0.28737474     1.9234514      11472.403    
    854800   333.42211      0.4274         0.063898409    0.063751463    0.063030381   -627.28926      971.96835      971.96835      971.96835      9.1824035e+08  0.61841778    -25284406      -25284406       992.8741      -25283413      -630.62826     -629.17802     -622.06149     -0.52185039     0.29760574     1.9532574      11460.217    
    854900   333.45007      0.42745        0.063890847    0.063750395    0.063026492   -627.24808      972.0024       972.0024       972.0024       9.1833685e+08  0.61835279    -25283546      -25283546       992.95738     -25282553      -630.55363     -629.16749     -622.02311     -0.54305945     0.31162999     1.9790059      11426.853    
    855000   333.4791       0.4275         0.063883288    0.063749471    0.063022024   -627.20547      972.03645      972.03645      972.03645      9.1843335e+08  0.61828782    -25282685      -25282685       993.04381     -25281692      -630.47904     -629.15836     -621.97902     -0.56451421     0.32904131     2.0003638      11496.731    
    855100   333.50887      0.42755        0.063875749    0.063748645    0.063016907   -627.16112      972.07049      972.07049      972.07049      9.1852986e+08  0.61822286    -25281825      -25281825       993.13247     -25280832      -630.40463     -629.15021     -621.92851     -0.58601752     0.34930498     2.0173543      11493.681    
    855200   333.53911      0.4276         0.063868212    0.063747847    0.06301109    -627.11456      972.10454      972.10454      972.10454      9.1862638e+08  0.6181579     -25280965      -25280965       993.22253     -25279971      -630.33025     -629.14234     -621.8711      -0.60748596     0.37188771     2.029976       11507.306    
    855300   333.56954      0.42765        0.063860656    0.063746993    0.06300456    -627.06541      972.13859      972.13859      972.13859      9.1872291e+08  0.61809295    -25280104      -25280104       993.31314     -25279111      -630.25567     -629.13391     -621.80666     -0.62901753     0.39629683     2.038177       11492.153    
    855400   333.5999       0.4277         0.063853049    0.063745955    0.06299733    -627.01319      972.17263      972.17263      972.17263      9.1881944e+08  0.61802802    -25279244      -25279244       993.40354     -25278250      -630.1806      -629.12366     -621.73531     -0.65055052     0.42204478     2.0419768      11446.859    
    855500   333.62996      0.42775        0.06384537     0.063744594    0.062989408   -626.95739      972.20668      972.20668      972.20668      9.1891598e+08  0.61796309    -25278383      -25278383       993.49305     -25277390      -630.10481     -629.11023     -621.65712     -0.67194077     0.4488047      2.0414425      11536.184    
    855600   333.65953      0.4278         0.063837597    0.063742782    0.062980827   -626.89763      972.24073      972.24073      972.24073      9.1901252e+08  0.61789817    -25277523      -25277523       993.5811      -25276530      -630.0281      -629.09235     -621.57244     -0.69309129     0.47634101     2.0366529      11472.076    
    855700   333.68844      0.42785        0.063829705    0.063740408    0.062971648   -626.83366      972.27477      972.27477      972.27477      9.1910907e+08  0.61783326    -25276663      -25276663       993.6672      -25275669      -629.95021     -629.06892     -621.48185     -0.713819       0.50423634     2.0278124      11524.564    
    855800   333.71657      0.4279         0.063821665    0.063737376    0.062961937   -626.76529      972.30882      972.30882      972.30882      9.1920563e+08  0.61776836    -25275803      -25275803       993.75096     -25274809      -629.87086     -629.039       -621.38601     -0.73391591     0.53196247     2.0154075      11547.072    
    855900   333.74384      0.42795        0.063813439    0.063733606    0.062951758   -626.69234      972.34287      972.34287      972.34287      9.193022e+08   0.61770347    -25274943      -25274943       993.83216     -25273949      -629.78967     -629.00179     -621.28555     -0.7532392      0.55914448     2.0000951      11450.909    
    856000   333.77021      0.428          0.063804978    0.063729032    0.062941185   -626.61467      972.37691      972.37691      972.37691      9.1939877e+08  0.61763858    -25274083      -25274083       993.9107      -25273089      -629.70617     -628.95665     -621.1812      -0.77160171     0.58535532     1.9825485      11482.952    
    856100   333.79572      0.42805        0.063796252    0.063723599    0.062930314   -626.53233      972.41096      972.41096      972.41096      9.1949535e+08  0.61757371    -25273223      -25273223       993.98664     -25272229      -629.62005     -628.90303     -621.07391     -0.78874014     0.61012281     1.9632513      11494.069    
    856200   333.82039      0.4281         0.063787237    0.063717252    0.0629192     -626.44523      972.44501      972.44501      972.44501      9.1959193e+08  0.61750885    -25272363      -25272363       994.06013     -25271369      -629.53108     -628.84038     -620.96422     -0.80433316     0.63286963     1.9427038      11512.375    
    856300   333.84434      0.42815        0.063777906    0.063709948    0.062907869   -626.35323      972.47905      972.47905      972.47905      9.1968853e+08  0.61744399    -25271503      -25271503       994.13143     -25270509      -629.439       -628.7683      -620.85239     -0.81800125     0.65297674     1.9215365      11491.368    
    856400   333.86767      0.4282         0.063768264    0.063701698    0.062896344   -626.25646      972.5131       972.5131       972.5131       9.1978513e+08  0.61737915    -25270643      -25270643       994.2009      -25269649      -629.34384     -628.68688     -620.73865     -0.82944687     0.66976951     1.9003981      11479.052    
    856500   333.8905       0.42825        0.063758335    0.06369255     0.062884666   -626.15528      972.54715      972.54715      972.54715      9.1988173e+08  0.61731431    -25269783      -25269783       994.26889     -25268789      -629.24584     -628.5966      -620.6234      -0.83846516     0.68265883     1.879752       11512.054    
    856600   333.91296      0.4283         0.06374815     0.063682571    0.062872871   -626.05014      972.5812       972.5812       972.5812       9.1997835e+08  0.61724948    -25268924      -25268924       994.33579     -25267930      -629.14532     -628.49811     -620.50699     -0.84507836     0.69131244     1.8598244      11504.259    
    856700   333.93517      0.42835        0.063737783    0.063671866    0.062861003   -625.94178      972.61524      972.61524      972.61524      9.2007496e+08  0.61718466    -25268065      -25268065       994.40191     -25267070      -629.04301     -628.39246     -620.38987     -0.84953917     0.69563464     1.8407478      11500.396    
    856800   333.95719      0.4284         0.063727342    0.063660559    0.062849107   -625.8311       972.64929      972.64929      972.64929      9.2017159e+08  0.61711985    -25267205      -25267205       994.4675      -25266211      -628.93996     -628.28086     -620.27246     -0.85223016     0.69559433     1.8225265      11406.282    
    856900   333.97908      0.42845        0.063716948    0.063648767    0.062837233   -625.71905      972.68334      972.68334      972.68334      9.2026822e+08  0.61705505    -25266346      -25266346       994.53267     -25265351      -628.83739     -628.16449     -620.15527     -0.85373238     0.69129287     1.8049635      11536.528    
    857000   334.0008       0.4285         0.063706718    0.063636595    0.062825415   -625.60647      972.71738      972.71738      972.71738      9.2036486e+08  0.61699026    -25265487      -25265487       994.59736     -25264492      -628.73642     -628.04436     -620.03864     -0.85473085     0.68283347     1.7878452      11555.542    
    857100   334.0223       0.42855        0.063696727    0.06362409     0.062813674   -625.49384      972.75143      972.75143      972.75143      9.2046151e+08  0.61692548    -25264628      -25264628       994.66138     -25263633      -628.63782     -627.92095     -619.92276     -0.85586864     0.6702886      1.7710327      11530.75     
    857200   334.04347      0.4286         0.063687039    0.0636113      0.062802021   -625.38156      972.78548      972.78548      972.78548      9.2055816e+08  0.6168607     -25263769      -25263769       994.7244      -25262774      -628.5422      -627.79472     -619.80776     -0.85768413     0.65390839     1.7544458      11531.19     
    857300   334.06418      0.42865        0.063677697    0.063598251    0.062790426   -625.26976      972.81952      972.81952      972.81952      9.2065482e+08  0.61679594    -25262910      -25262910       994.78607     -25261916      -628.45001     -627.66594     -619.69333     -0.86061426     0.63414325     1.7380577      11536.653    
    857400   334.08431      0.4287         0.063668716    0.063584976    0.062778855   -625.15847      972.85357      972.85357      972.85357      9.2075149e+08  0.61673118    -25262052      -25262052       994.84603     -25261057      -628.36137     -627.53492     -619.57913     -0.86499206     0.61167708     1.7217749      11524.435    
    857500   334.10375      0.42875        0.063660098    0.063571545    0.062767306   -625.04795      972.88762      972.88762      972.88762      9.2084816e+08  0.61666644    -25261193      -25261193       994.90391     -25260198      -628.27632     -627.40237     -619.46515     -0.87093873     0.58717683     1.7055608      11491.643    
    857600   334.12237      0.4288         0.06365183     0.063558036    0.06275578    -624.93839      972.92166      972.92166      972.92166      9.2094484e+08  0.6166017     -25260335      -25260335       994.95937     -25259340      -628.19472     -627.26905     -619.35139     -0.87843602     0.56135757     1.6895089      11491.435    
    857700   334.14007      0.42885        0.063643878    0.063544512    0.062744298   -624.82997      972.95571      972.95571      972.95571      9.2104153e+08  0.61653697    -25259477      -25259477       995.01208     -25258482      -628.11624     -627.13558     -619.23808     -0.88730476     0.53498601     1.673994       11511.572    
    857800   334.15674      0.4289         0.063636204    0.063531043    0.06273291    -624.72295      972.98976      972.98976      972.98976      9.2113823e+08  0.61647225    -25258618      -25258618       995.0617      -25257623      -628.04051     -627.00265     -619.12568     -0.89731377     0.50893219     1.6596568      11470.588    
    857900   334.17226      0.42895        0.063628762    0.063517738    0.062721655   -624.61767      973.0238       973.0238       973.0238       9.2123493e+08  0.61640754    -25257760      -25257760       995.10794     -25256765      -627.96706     -626.87133     -619.01461     -0.9083297      0.48422927     1.6471252      11476.206    
    858000   334.18658      0.429          0.063621493    0.063504726    0.062710571   -624.51448      973.05785      973.05785      973.05785      9.2133163e+08  0.61634284    -25256902      -25256902       995.15058     -25255907      -627.89531     -626.74292     -618.90522     -0.92013322     0.46189521     1.6368929      11503.587    
    858100   334.19965      0.42905        0.063614323    0.063492135    0.062699712   -624.41375      973.0919       973.0919       973.0919       9.2142835e+08  0.61627815    -25256044      -25256044       995.1895      -25255049      -627.82455     -626.61866     -618.79805     -0.9324372      0.44280715     1.6293397      11499.678    
    858200   334.21146      0.4291         0.063607193    0.063480073    0.062689173   -624.31595      973.12594      973.12594      973.12594      9.2152507e+08  0.61621346    -25255186      -25255186       995.22466     -25254191      -627.75419     -626.49961     -618.69404     -0.94511005     0.42761194     1.6247906      11472.031    
    858300   334.222        0.42915        0.063600077    0.063468632    0.062679081   -624.22169      973.15999      973.15999      973.15999      9.216218e+08   0.61614879    -25254328      -25254328       995.25605     -25253333      -627.68395     -626.3867      -618.59443     -0.95819482     0.41685578     1.6235733      11515.28     
    858400   334.23125      0.4292         0.063592991    0.063457888    0.062669554   -624.1317       973.19404      973.19404      973.19404      9.2171853e+08  0.61608413    -25253471      -25253471       995.28358     -25252475     