LAMMPS (23 Jun 2022 - Update 1)
OMP_NUM_THREADS environment is not set. Defaulting to 1 thread. (src/comm.cpp:98)
  using 1 OpenMP thread(s) per MPI task
###

# Read restart info
read_restart ${read_res}
read_restart ./300700/equpmf101.res
Reading restart file ...
  restart file = 23 Jun 2022, LAMMPS = 23 Jun 2022
WARNING: Restart file used different # of processors: 8 vs. 4 (src/read_restart.cpp:654)
  restoring atom style atomic from restart
  orthogonal box = (2151.1072 2151.1072 2151.1072) to (2848.8928 2848.8928 2848.8928)
  1 by 2 by 2 MPI processor grid
  restoring pair style table from restart
  1000 atoms
  read_restart CPU = 0.414 seconds

# Settings
pair_style table/pgn spline 9941
pair_coeff 1 1 N20.txt DE_GNP 147.89 72.9   # 1.35 * r
pair_coeff 2 2 N100.txt DE_GNP 473.9 111.78
WARNING: 3 of 9941 force values in table DE_GNP are inconsistent with -dE/dr.
WARNING:  Should only be flagged at inflection points (src/pair_table_pgn.cpp:478)
pair_coeff 1 2 mixed_potential.txt DE_GNP 391.2 92.95
WARNING: 1562 of 9941 force values in table DE_GNP are inconsistent with -dE/dr.
WARNING:  Should only be flagged at inflection points (src/pair_table_pgn.cpp:478)

# Neighbor list
neighbor 2.0 bin
neigh_modify delay 0 every 1 check no once yes

# Temperature
variable T equal ${Temp}
variable T equal 300

# Deformation
reset_timestep 0
variable tmp equal "lx"
variable L0 equal ${tmp}
variable L0 equal 697.785664154099
variable strain equal "(lx - v_L0)/v_L0"
variable stp equal "step"
variable tmpe equal "temp"
variable p1 equal "v_strain"
variable p2 equal "-pxx*1.01325/10000"
variable p3 equal "-pyy*1.01325/10000"
variable p4 equal "-pzz*1.01325/10000"
variable p5 equal "lx"
variable p6 equal "ly"
variable p7 equal "lz"
variable p8 equal "press"
variable p9 equal "epair"
variable p10 equal "etotal"

# Thermo
thermo_style custom step temp v_p1 v_p2 v_p3 v_p4 press lx ly lz vol density epair pe ke etotal pxx pyy pzz pxy pxz pyz spcpu
thermo ${ts_save}
thermo 100

# Dump
# dump 1 all custom 2000 ./${N20}${N100}/tensile/trajectory/trajectory_${usic}_${trial}_*.tensile.custom id type x y z ix iy iz
# dump_modify 1 sort id
dump 2 all cfg 20000 ./${N20}${N100}/tensile/trajectory/dumpten.tens_${usic}_${trial}_*.cfg mass type xs ys zs fx fy fz
dump 2 all cfg 20000 ./300${N100}/tensile/trajectory/dumpten.tens_${usic}_${trial}_*.cfg mass type xs ys zs fx fy fz
dump 2 all cfg 20000 ./300700/tensile/trajectory/dumpten.tens_${usic}_${trial}_*.cfg mass type xs ys zs fx fy fz
dump 2 all cfg 20000 ./300700/tensile/trajectory/dumpten.tens_2_${trial}_*.cfg mass type xs ys zs fx fy fz
dump 2 all cfg 20000 ./300700/tensile/trajectory/dumpten.tens_2_5_*.cfg mass type xs ys zs fx fy fz
dump_modify 2 element N20 N100

fix 1 all nvt temp ${T} ${T} 100
fix 1 all nvt temp 300 ${T} 100
fix 1 all nvt temp 300 300 100
fix 2 all deform 1 x erate ${strain_rate} y erate ${strain_rate} z erate ${strain_rate} units box
fix 2 all deform 1 x erate 5e-6 y erate ${strain_rate} z erate ${strain_rate} units box
fix 2 all deform 1 x erate 5e-6 y erate 5e-6 z erate ${strain_rate} units box
fix 2 all deform 1 x erate 5e-6 y erate 5e-6 z erate 5e-6 units box
fix             def1 all print ${ts_save} "${p1} ${p2} ${p3} ${p4}" file ./tensile/tensile${N20}${N100}_${usic}_${trial}.txt screen no
fix             def1 all print 100 "${p1} ${p2} ${p3} ${p4}" file ./tensile/tensile${N20}${N100}_${usic}_${trial}.txt screen no
fix             def1 all print 100 "${p1} ${p2} ${p3} ${p4}" file ./tensile/tensile300${N100}_${usic}_${trial}.txt screen no
fix             def1 all print 100 "${p1} ${p2} ${p3} ${p4}" file ./tensile/tensile300700_${usic}_${trial}.txt screen no
fix             def1 all print 100 "${p1} ${p2} ${p3} ${p4}" file ./tensile/tensile300700_2_${trial}.txt screen no
fix             def1 all print 100 "${p1} ${p2} ${p3} ${p4}" file ./tensile/tensile300700_2_5.txt screen no

timestep       		${ts}
timestep       		0.1
run				${steps_tensile}
run				6000000
Generated 0 of 1 mixed pair_coeff terms from geometric mixing rule
Unused restart file global fix info:
  fix style: npt, fix ID: 5
Neighbor list info ...
  update every 1 steps, delay 0 steps, check no
  max neighbors/atom: 2000, page size: 100000
  master list distance cutoff = 113.78
  ghost atom cutoff = 113.78
  binsize = 56.89, bins = 13 13 13
  1 neighbor lists, perpetual/occasional/extra = 1 0 0
  (1) pair table/pgn, perpetual
      attributes: half, newton on
      pair build: half/bin/atomonly/newton
      stencil: half/bin/3d
      bin: standard
Per MPI rank memory allocation (min/avg/max) = 3.845 | 3.848 | 3.851 Mbytes
   Step          Temp           v_p1           v_p2           v_p3           v_p4          Press            Lx             Ly             Lz           Volume        Density         E_pair         PotEng         KinEng         TotEng          Pxx            Pyy            Pzz            Pxy            Pxz            Pyz           S/CPU     
         0   289.69945      4.8877547e-16  0.012252722    0.0041080188   0.0075403114  -78.62835       697.78566      697.78566      697.78566      3.3975521e+08  1.7692154     -41889626      -41889626       862.6755      -41888764      -120.92497     -40.542993     -74.417088      27.415959      41.45585      -20.698866      0            
       100   290.65506      5e-05          0.01321275     0.0050752105   0.0084879562  -88.085917      697.82055      697.82055      697.82055      3.3980618e+08  1.76895       -41889568      -41889568       865.52113     -41888703      -130.3997      -50.088433     -83.769615      27.536337      41.480761     -20.574367      12105.179    
       200   292.5133       0.0001         0.014182627    0.0060506799   0.0094426476  -97.626299      697.85544      697.85544      697.85544      3.3985715e+08  1.7686847     -41889504      -41889504       871.05466     -41888633      -139.97164     -59.715568     -93.191687      27.654013      41.500361     -20.451803      12192.926    
       300   295.24068      0.00015        0.015151627    0.0070236832   0.010393744   -107.14386      697.89033      697.89033      697.89033      3.3990813e+08  1.7684195     -41889436      -41889436       879.17633     -41888557      -149.53493     -69.318364     -102.57828      27.767606      41.515352     -20.333303      12238.365    
       400   298.78915      0.0002         0.016118744    0.0079932363   0.011340256   -116.62879      697.92522      697.92522      697.92522      3.3995911e+08  1.7681543     -41889362      -41889362       889.74308     -41888472      -159.07964     -78.887109     -111.91963      27.87706       41.526619     -20.219033      12253.026    
       500   303.09368      0.00025        0.017083017    0.0089583861   0.012281268   -126.07179      697.96011      697.96011      697.96011      3.4001009e+08  1.7678891     -41889283      -41889283       902.56124     -41888381      -168.59627     -88.412397     -121.20669      27.9825        41.534756     -20.108857      12232.184    
       600   308.06941      0.0003         0.018043529    0.0099182475   0.013215902   -135.46403      697.995        697.995        697.995        3.4006108e+08  1.767624      -41889200      -41889200       917.37809     -41888282      -178.07579     -97.885492     -130.43082      28.084211      41.540031     -20.002552      12251.818    
       700   313.60834      0.00035        0.018999492    0.010872095    0.014143382   -144.79799      698.02989      698.02989      698.02989      3.4011208e+08  1.767359      -41889111      -41889111       933.87208     -41888177      -187.51041     -107.29923     -139.58433      28.182676      41.542839     -19.900424      12229.246    
       800   319.57469      0.0004         0.019950093    0.011819314    0.015063007   -154.06667      698.06478      698.06478      698.06478      3.4016308e+08  1.767094      -41889018      -41889018       951.63884     -41888066      -196.89211     -116.64756     -148.66032      28.278749      41.543117     -19.803074      12215.382    
       900   325.79769      0.00045        0.020894519    0.012759389    0.015974341   -163.26424      698.09967      698.09967      698.09967      3.4021409e+08  1.7668291     -41888919      -41888919       970.16989     -41887949      -206.21286     -125.92538     -157.65449      28.373424      41.540767     -19.710535      12219.018    
      1000   332.06244      0.0005         0.021832038    0.013691889    0.016877118   -172.38603      698.13456      698.13456      698.13456      3.402651e+08   1.7665642     -41888816      -41888816       988.82524     -41887827      -215.46546     -135.12844     -166.5642       28.467494      41.535823     -19.622276      11344.855    
      1100   338.10716      0.00055        0.022762066    0.014616555    0.017771235   -181.42892      698.16945      698.16945      698.16945      3.4031612e+08  1.7662994     -41888708      -41888708       1006.8254     -41887701      -224.64412     -144.25418     -175.38845      28.561535      41.527519     -19.538243      12284.849    
      1200   343.65763      0.0006         0.023684121    0.015533284    0.018656793   -190.39131      698.20434      698.20434      698.20434      3.4036714e+08  1.7660346     -41888594      -41888594       1023.3537     -41887571      -233.7441      -153.3016      -184.12823      28.655887      41.515031     -19.458683      12263.709    
      1300   348.5609       0.00065        0.024597811    0.016442052    0.019534059   -199.27271      698.23922      698.23922      698.23922      3.4041817e+08  1.7657699     -41888477      -41888477       1037.9548     -41887439      -242.76152     -162.27044     -192.78617      28.750514      41.497368     -19.384032      12258.214    
      1400   353.03556      0.0007         0.025502807    0.017342854    0.02040339    -208.0732       698.27411      698.27411      698.27411      3.404692e+08   1.7655052     -41888354      -41888354       1051.2796     -41887302      -251.69313     -171.16066     -201.3658       28.845079      41.473615     -19.314366      12262.064    
      1500   357.77298      0.00075        0.026398866    0.018235645    0.021265149   -216.79302      698.309        698.309        698.309        3.4052024e+08  1.7652406     -41888226      -41888226       1065.3868     -41887161      -260.53655     -179.97182     -209.8707       28.939327      41.443174     -19.249661      12227.746    
      1600   363.48251      0.0008         0.027285903    0.01912048     0.02211969    -225.43325      698.34389      698.34389      698.34389      3.4057128e+08  1.764976      -41888093      -41888093       1082.3889     -41887011      -269.29093     -188.70446     -218.30436      29.032563      41.404992     -19.190404      12236.673    
      1700   370.28047      0.00085        0.028164037    0.019997595    0.022967382   -233.99626      698.37878      698.37878      698.37878      3.4062232e+08  1.7647115     -41887956      -41887956       1102.632      -41886853      -277.95743     -197.36092     -226.67043      29.123852      41.357612     -19.137498      12198.14     
      1800   377.74015      0.0009         0.02903353     0.020867297    0.023808713   -242.48554      698.41367      698.41367      698.41367      3.4067338e+08  1.7644471     -41887814      -41887814       1124.8457     -41886689      -286.53866     -205.94421     -234.97373      29.211884      41.299948     -19.092379      12213.315    
      1900   385.32447      0.00095        0.029894738    0.021729962    0.02464433    -250.9056       698.44856      698.44856      698.44856      3.4072443e+08  1.7641827     -41887667      -41887667       1147.4305     -41886519      -295.03813     -214.45805     -243.22063      29.294713      41.23192      -19.056199      12215.328    
      2000   392.64026      0.001          0.030748189    0.022586069    0.025474922   -259.26205      698.48345      698.48345      698.48345      3.407755e+08   1.7639183     -41887515      -41887515       1169.2157     -41886346      -303.46103     -222.90717     -251.41793      29.370918      41.153897     -19.030113      12221.302    
      2100   399.52231      0.00105        0.031594546    0.023436158    0.026301183   -267.56111      698.51834      698.51834      698.51834      3.4082657e+08  1.763654      -41887358      -41887358       1189.7092     -41886169      -311.81393     -231.2969      -259.5725       29.439465      41.06637      -19.014811      12205.33     
      2200   406.02532      0.0011         0.032434499    0.024280756    0.027123755   -275.8089       698.55323      698.55323      698.55323      3.4087764e+08  1.7633898     -41887197      -41887197       1209.0741     -41885988      -320.10361     -239.63243     -267.69064      29.499178      40.970515     -19.009821      12243.799    
      2300   412.3112       0.00115        0.03326879     0.025120365    0.027943228   -284.01146      698.58812      698.58812      698.58812      3.4092872e+08  1.7631256     -41887031      -41887031       1227.7923     -41885803      -328.33742     -247.91873     -275.77822      29.54946       40.86772      -19.013834      12232.2      
      2400   418.49925      0.0012         0.034098189    0.025955497    0.028760189   -292.17493      698.62301      698.62301      698.62301      3.409798e+08   1.7628615     -41886860      -41886860       1246.2193     -41885614      -336.52296     -256.16084     -283.841        29.590348      40.759654     -19.024994      12250.823    
      2500   424.60412      0.00125        0.034923411    0.026786698    0.029575187   -300.30528      698.6579       698.6579       698.6579       3.4103089e+08  1.7625974     -41886685      -41886685       1264.3986     -41885420      -344.66727     -264.36416     -291.8844       29.622247      40.648252     -19.040784      12215.568    
      2600   430.57672      0.0013         0.035745105    0.027614469    0.030388666   -308.40773      698.69279      698.69279      698.69279      3.4108198e+08  1.7623333     -41886504      -41886504       1282.1839     -41885222      -352.77676     -272.53362     -299.91282      29.64572       40.535609     -19.058475      12252.409    
      2700   436.36513      0.00135        0.036563844    0.028439261    0.031201036   -316.48701      698.72767      698.72767      698.72767      3.4113308e+08  1.7620694     -41886319      -41886319       1299.4209     -41885019      -360.85708     -280.67368     -307.93028      29.661009      40.423762     -19.075437      12247.514    
      2800   441.94004      0.0014         0.03738011     0.029261497    0.032012656   -324.54729      698.76256      698.76256      698.76256      3.4118418e+08  1.7618054     -41886128      -41886128       1316.022      -41884812      -368.91301     -288.78853     -315.94035      29.667799      40.314359     -19.089763      12259.411    
      2900   447.28894      0.00145        0.038194364    0.030081605    0.032823805   -332.5924       698.79745      698.79745      698.79745      3.4123529e+08  1.7615416     -41885933      -41885933       1331.9501     -41884601      -376.94907     -296.88236     -323.94577      29.665363      40.208807     -19.100192      12255.875    
      3000   452.40419      0.0015         0.039007092    0.030899981    0.033634698   -340.62594      698.83234      698.83234      698.83234      3.4128641e+08  1.7612777     -41885733      -41885733       1347.1824     -41884385      -384.97007     -304.9591      -331.94866      29.652908      40.108786     -19.105728      12298.436    
      3100   457.27778      0.00155        0.039818748    0.031716994    0.034445462   -348.65105      698.86723      698.86723      698.86723      3.4133752e+08  1.761014      -41885527      -41885527       1361.6951     -41884165      -392.98049     -313.02239     -339.95028      29.629773      40.01599      -19.10553       12206.9      
      3200   461.90176      0.0016         0.040629699    0.032533069    0.035256253   -356.67085      698.90212      698.90212      698.90212      3.4138865e+08  1.7607502     -41885317      -41885317       1375.4646     -41883941      -400.98395     -321.07643     -347.95217      29.595894      39.931452     -19.099062      12221.812    
      3300   466.26955      0.00165        0.041440259    0.033348641    0.036067217   -364.68827      698.93701      698.93701      698.93701      3.4143978e+08  1.7604866     -41885101      -41885101       1388.4711     -41883713      -408.98356     -329.12549     -355.95575      29.551505      39.855403     -19.086506      12211.144    
      3400   470.37647      0.0017         0.042250666    0.03416411     0.036878338   -372.70537      698.9719       698.9719       698.9719       3.4149091e+08  1.760223      -41884880      -41884880       1400.7008     -41883479      -416.98165     -337.17355     -363.9609       29.497028      39.787694     -19.068036      12198.776    
      3500   474.21974      0.00175        0.043060983    0.034979771    0.037689501   -380.72294      699.00679      699.00679      699.00679      3.4154205e+08  1.7599594     -41884654      -41884654       1412.1454     -41883242      -424.97886     -345.2235      -371.96646      29.433184      39.728232     -19.043551      12241.757    
      3600   477.7983       0.0018         0.043871273    0.035795796    0.038500629   -388.7415       699.04168      699.04168      699.04168      3.4159319e+08  1.7596959     -41884423      -41884423       1422.8017     -41883000      -432.9758      -353.27704     -379.97166      29.361271      39.677204     -19.013112      12204.835    
      3700   481.11269      0.00185        0.044681561    0.03661239     0.039311679   -396.76168      699.07657      699.07657      699.07657      3.4164434e+08  1.7594324     -41884186      -41884186       1432.6714     -41882753      -440.97272     -361.3362      -387.97611      29.282745      39.635207     -18.977588      12232.31     
      3800   484.16494      0.0019         0.045491838    0.037429779    0.040122634   -404.78411      699.11146      699.11146      699.11146      3.416955e+08   1.759169      -41883944      -41883944       1441.7605     -41882502      -448.96953     -369.4032      -395.97961      29.199411      39.602852     -18.938055      12219.092    
      3900   486.95843      0.00195        0.046302015    0.038248158    0.040933623   -412.80959      699.14635      699.14635      699.14635      3.4174666e+08  1.7589057     -41883696      -41883696       1450.0791     -41882246      -456.96536     -377.47997     -403.98345      29.113112      39.580221     -18.895141      12234.658    
      4000   489.49771      0.002          0.047112006    0.039067699    0.041744948   -420.83939      699.18124      699.18124      699.18124      3.4179782e+08  1.7586424     -41883443      -41883443       1457.6406     -41881985      -464.95935     -385.56821     -411.9906       29.025742      39.567086     -18.849225      12224.271    
      4100   491.78837      0.00205        0.047921786    0.03988849     0.042556875   -428.87458      699.21612      699.21612      699.21612      3.4184899e+08  1.7583792     -41883184      -41883184       1464.4618     -41881720      -472.95125     -393.66879     -420.0037       28.93835       39.563453     -18.800402      12267.178    
      4200   493.83686      0.0021         0.048731328    0.040710561    0.043369593   -436.91581      699.25101      699.25101      699.25101      3.4190017e+08  1.758116      -41882920      -41882920       1470.5618     -41881449      -480.94082     -401.782       -428.02461      28.851139      39.569479     -18.748558      12269.258    
      4300   495.65039      0.00215        0.049540504    0.041533834    0.044183153   -444.96255      699.2859       699.2859       699.2859       3.4195135e+08  1.7578528     -41882650      -41882650       1475.9622     -41881174      -488.92676     -409.90707     -436.05382      28.764199      39.585272     -18.693945      12247.543    
      4400   497.23679      0.0022         0.050349133    0.042358239    0.044997593   -453.01411      699.32079      699.32079      699.32079      3.4200253e+08  1.7575897     -41882374      -41882374       1480.6862     -41880893      -496.90731     -418.04332     -444.09171      28.677813      39.610807     -18.637081      12245.409    
      4500   498.60444      0.00225        0.051157087    0.043183701    0.045813031   -461.07022      699.35568      699.35568      699.35568      3.4205372e+08  1.7573267     -41882092      -41882092       1484.7589     -41880607      -504.88119     -426.18999     -452.13946      28.592294      39.645825     -18.578835      12290.455    
      4600   499.76209      0.0023         0.051964308    0.044010199    0.046629697   -469.13136      699.39057      699.39057      699.39057      3.4210492e+08  1.7570637     -41881805      -41881805       1488.2062     -41880316      -512.84785     -434.34689     -460.19933      28.508004      39.689811     -18.520075      12294.971    
      4700   500.71877      0.00235        0.052770779    0.044837703    0.047447739   -477.19787      699.42546      699.42546      699.42546      3.4215612e+08  1.7568008     -41881511      -41881511       1491.055      -41880020      -520.8071      -442.51373     -468.27277      28.425554      39.742269     -18.460849      12244.244    
      4800   501.4837       0.0024         0.053576562    0.045666102    0.04826718    -485.26966      699.46035      699.46035      699.46035      3.4220733e+08  1.7565379     -41881212      -41881212       1493.3328     -41879719      -528.75955     -450.68938     -476.36003      28.345662      39.802554     -18.400856      12181.629    
      4900   502.06618      0.00245        0.0543818      0.046495279    0.04908809    -493.34705      699.49524      699.49524      699.49524      3.4225854e+08  1.7562751     -41880907      -41880907       1495.0674     -41879412      -536.70664     -458.87273     -484.46178      28.269471      39.869554     -18.339725      12174.283    
      5000   502.47557      0.0025         0.055186629    0.047325042    0.049910399   -501.42962      699.53013      699.53013      699.53013      3.4230975e+08  1.7560123     -41880595      -41880595       1496.2865     -41879099      -544.64968     -467.06185     -492.57734      28.198279      39.941967     -18.277406      12246.357    
      5100   502.72123      0.00255        0.055991203    0.048155157    0.0507339     -509.51644      699.56502      699.56502      699.56502      3.4236097e+08  1.7557496     -41880278      -41880278       1497.018      -41878781      -552.59021     -475.25445     -500.70466      28.133651      40.018761     -18.214179      10147.595    
      5200   502.81243      0.0026         0.056795692    0.048985463    0.051558405   -517.60691      699.59991      699.59991      699.59991      3.424122e+08   1.7554869     -41879955      -41879955       1497.2896     -41878458      -560.5299      -483.44893     -508.8419       28.07688       40.099599     -18.150558      12183.454    
      5300   502.75826      0.00265        0.057600331    0.049815918    0.05238384    -525.70142      699.6348       699.6348       699.6348       3.4246343e+08  1.7552243     -41879626      -41879626       1497.1283     -41878129      -568.47107     -491.64488     -516.9883       28.028054      40.183753     -18.086605      12245.163    
      5400   502.56755      0.0027         0.058405379    0.050646517    0.053210207   -533.80081      699.66969      699.66969      699.66969      3.4251467e+08  1.7549618     -41879291      -41879291       1496.5604     -41877794      -576.41627     -499.84226     -525.14391      27.986703      40.270071     -18.022128      12217.523    
      5500   502.24887      0.00275        0.059211022    0.051477273    0.054037469   -541.90563      699.70457      699.70457      699.70457      3.4256591e+08  1.7546993     -41878949      -41878949       1495.6114     -41877454      -584.36735     -508.04119     -533.30835      27.952066      40.357593     -17.957259      12189.262    
      5600   501.81052      0.0028         0.06001738     0.052308144    0.054865555   -550.01589      699.73946      699.73946      699.73946      3.4261715e+08  1.7544368     -41878602      -41878602       1494.306      -41877107      -592.32549     -516.24124     -541.48093      27.923579      40.445571     -17.891807      12238.853    
      5700   501.26054      0.00285        0.060824535    0.053139101    0.055694382   -558.13149      699.77435      699.77435      699.77435      3.4266841e+08  1.7541744     -41878248      -41878248       1492.6683     -41876755      -600.29149     -524.44215     -549.66081      27.901506      40.533365     -17.824739      12247.226    
      5800   500.60665      0.0029         0.061632472    0.053970085    0.056523814   -566.25173      699.80924      699.80924      699.80924      3.4271966e+08  1.753912      -41877888      -41877888       1490.7211     -41876398      -608.26521     -532.64332     -557.84667      27.886144      40.619666     -17.755407      12254.734    
      5900   499.85624      0.00295        0.062441216    0.054801038    0.057353652   -574.37587      699.84413      699.84413      699.84413      3.4277092e+08  1.7536497     -41877523      -41877523       1488.4865     -41876034      -616.24688     -540.84419     -566.03654      27.877541      40.703198     -17.683803      12263.118    
      6000   499.01626      0.003          0.063250845    0.055631851    0.058183731   -582.50326      699.87902      699.87902      699.87902      3.4282219e+08  1.7533875     -41877150      -41877150       1485.9852     -41875664      -624.23731     -549.04368     -574.22878      27.875466      40.782862     -17.61026       12284.36     
      6100   498.09329      0.00305        0.064061407    0.056462384    0.059013926   -590.63317      699.91391      699.91391      699.91391      3.4287346e+08  1.7531253     -41876772      -41876772       1483.2368     -41875289      -632.23693     -557.24041     -582.42216      27.879984      40.857534     -17.53519       12287.098    
      6200   497.09346      0.0031         0.064872927    0.05729253     0.05984414    -598.76502      699.9488       699.9488       699.9488       3.4292474e+08  1.7528632     -41876388      -41876388       1480.2594     -41874908      -640.24601     -565.43331     -590.61574      27.89121       40.926097     -17.459039      12216.444    
      6300   496.02258      0.00315        0.065685398    0.058122165    0.060674171   -606.89772      699.98369      699.98369      699.98369      3.4297602e+08  1.7526011     -41875997      -41875997       1477.0705     -41874520      -648.26447     -573.62117     -598.80751      27.908938      40.987561     -17.381989      12174.833    
      6400   494.88611      0.0032         0.066498699    0.058951095    0.061503743   -615.02932      700.01858      700.01858      700.01858      3.4302731e+08  1.752339      -41875600      -41875600       1473.6863     -41874127      -656.29113     -581.80207     -606.99475      27.932495      41.041031     -17.304305      12209.833    
      6500   493.68923      0.00325        0.067312619    0.059779067    0.062332564   -623.15733      700.05347      700.05347      700.05347      3.430786e+08   1.752077      -41875197      -41875197       1470.1222     -41873727      -664.3239      -589.97352     -615.17458      27.960997      41.085718     -17.226344      12232.548    
      6600   492.43685      0.0033         0.068126939    0.060605868    0.063160323   -631.27932      700.08836      700.08836      700.08836      3.431299e+08   1.7518151     -41874788      -41874788       1466.3929     -41873322      -672.36061     -598.13342     -623.34392      27.993821      41.120719     -17.14779       12217.62     
      6700   491.13363      0.00335        0.068941481    0.061431296    0.063986745   -639.39311      700.12325      700.12325      700.12325      3.431812e+08   1.7515532     -41874372      -41874372       1462.5121     -41872910      -680.39951     -606.27975     -631.50007      28.03135       41.145193     -17.068201      11831.151    
      6800   489.78397      0.0034         0.069756133    0.06225517     0.064811569   -647.4969       700.15814      700.15814      700.15814      3.4323251e+08  1.7512914     -41873951      -41873951       1458.493      -41872492      -688.4395      -614.41076     -639.64045      28.074747      41.158673     -16.987034      12257.694    
      6900   488.39204      0.00345        0.07057073     0.063077431    0.065634541   -655.58912      700.19302      700.19302      700.19302      3.4328382e+08  1.7510296     -41873523      -41873523       1454.3481     -41872068      -696.47895     -622.52585     -647.76255      28.12468       41.161332     -16.903771      11891.326    
      7000   486.96174      0.0035         0.071385022    0.063898126    0.066455463   -663.66843      700.22791      700.22791      700.22791      3.4333514e+08  1.7507679     -41873088      -41873088       1450.0889     -41871638      -704.51539     -630.62547     -655.86442      28.181259      41.153684     -16.817979      11831.255    
      7100   485.49677      0.00355        0.072198779    0.064717288    0.067274097   -671.73341      700.2628       700.2628       700.2628       3.4338647e+08  1.7505062     -41872648      -41872648       1445.7265     -41871202      -712.54655     -638.70998     -663.94372      28.244584      41.136708     -16.729305      12280.058    
      7200   484.00067      0.0036         0.073011749    0.065534896    0.068090133   -679.78215      700.29769      700.29769      700.29769      3.4343779e+08  1.7502446     -41872201      -41872201       1441.2713     -41870759      -720.56994     -646.77914     -671.99737      28.314362      41.111276     -16.637657      12258.522    
      7300   482.47691      0.00365        0.07382371     0.066350874    0.068903348   -687.81292      700.33258      700.33258      700.33258      3.4348913e+08  1.749983      -41871747      -41871747       1436.7339     -41870311      -728.58337     -654.83221     -680.02317      28.390085      41.077708     -16.542984      12271.072    
      7400   480.92893      0.0037         0.074634449    0.067164978    0.069713544   -695.82357      700.36747      700.36747      700.36747      3.4354047e+08  1.7497215     -41871288      -41871288       1432.1242     -41869856      -736.58474     -662.8668      -688.01919      28.470896      41.035713     -16.445138      12236.68     
      7500   479.36016      0.00375        0.075443723    0.067976878    0.070520498   -703.81149      700.40236      700.40236      700.40236      3.4359181e+08  1.74946       -41870822      -41870822       1427.4527     -41869395      -744.57165     -670.87962     -695.98321      28.556025      40.984397     -16.344251      11926.418    
      7600   477.77399      0.0038         0.076251342    0.068786245    0.071324053   -711.77446      700.43725      700.43725      700.43725      3.4364316e+08  1.7491986     -41870350      -41870350       1422.7294     -41868928      -752.54223     -678.86746     -703.91368      28.644107      40.92297      -16.240998      12281.13     
      7700   476.1738       0.00385        0.077057217    0.069592825    0.072124135   -719.71109      700.47214      700.47214      700.47214      3.4369451e+08  1.7489373     -41869872      -41869872       1417.9643     -41868454      -760.4956      -686.82778     -711.80987      28.733195      40.850762     -16.136553      12247.475    
      7800   474.56285      0.0039         0.077861238    0.070396428    0.072920703   -727.62026      700.50703      700.50703      700.50703      3.4374587e+08  1.748676      -41869388      -41869388       1413.1671     -41867975      -768.43067     -694.75872     -719.67138      28.821418      40.7676       -16.032379      12232.911    
      7900   472.94427      0.00395        0.078663336    0.071196998    0.073713788   -735.50167      700.54192      700.54192      700.54192      3.4379724e+08  1.7484147     -41868898      -41868898       1408.3473     -41867489      -776.34676     -702.65974     -727.49852      28.906876      40.674459     -15.929765      12234.34     
      8000   471.32105      0.004          0.079463559    0.071994536    0.074503447   -743.35568      700.57681      700.57681      700.57681      3.438486e+08   1.7481535     -41868401      -41868401       1403.5136     -41866998      -784.24436     -710.53083     -735.29185      28.98754       40.572714     -15.829984      12199.627    
      8100   469.6959       0.00405        0.080262022    0.072789076    0.075289711   -751.18285      700.6117       700.6117       700.6117       3.4389998e+08  1.7478924     -41867899      -41867899       1398.6742     -41866500      -792.12457     -718.37232     -743.05167      29.061774      40.463371     -15.733739      12234.906    
      8200   468.07132      0.0041         0.08105891     0.073580692    0.076072614   -758.98418      700.64659      700.64659      700.64659      3.4395136e+08  1.7476313     -41867390      -41867390       1393.8365     -41865996      -799.98924     -726.18497     -750.77832      29.128         40.347396     -15.641439      12196.725    
      8300   466.44955      0.00415        0.08185435     0.074369438    0.076852112   -766.7601       700.68147      700.68147      700.68147      3.4400274e+08  1.7473702     -41866875      -41866875       1389.0071     -41865486      -807.83962     -733.96929     -758.47138      29.18459       40.225753     -15.553802      12244.781    
      8400   464.83265      0.0042         0.082648314    0.075155335    0.077628068   -774.51013      700.71636      700.71636      700.71636      3.4405413e+08  1.7471092     -41866354      -41866354       1384.1923     -41864970      -815.67544     -741.72549     -766.12947      29.229925      40.099348     -15.471825      12227.854    
      8500   463.2226       0.00425        0.083440699    0.075938462    0.078400348   -782.23376      700.75125      700.75125      700.75125      3.4410553e+08  1.7468483     -41865828      -41865828       1379.3978     -41864448      -823.49567     -749.45435     -773.75127      29.262416      39.969084     -15.396824      12210.944    
      8600   461.62126      0.0043         0.084231362    0.076718946    0.079168766   -789.93034      700.78614      700.78614      700.78614      3.4415693e+08  1.7465874     -41865295      -41865295       1374.6293     -41863920      -831.29891     -757.15713     -781.33498      29.280437      39.836102     -15.330505      12236.552    
      8700   460.03041      0.00435        0.085020183    0.077496955    0.079933189   -797.59956      700.82103      700.82103      700.82103      3.4420833e+08  1.7463265     -41864756      -41864756       1369.892      -41863386      -839.08397     -764.83548     -788.87924      29.282489      39.701863     -15.274395      12263.41     
      8800   458.45176      0.0044         0.085807121    0.078272646    0.080693555   -805.24162      700.85592      700.85592      700.85592      3.4425974e+08  1.7460657     -41864211      -41864211       1365.1911     -41862846      -846.85044     -772.49095     -796.38347      29.267779      39.567928     -15.229508      12292.101    
      8900   456.88691      0.00445        0.086592164    0.079046184    0.08144982    -812.85687      700.89081      700.89081      700.89081      3.4431116e+08  1.745805      -41863661      -41863661       1360.5312     -41862300      -854.59821     -780.12518     -803.84722      29.236433      39.436205     -15.196386      12262.554    
      9000   455.3374       0.0045         0.087375261    0.079817724    0.082202011   -820.44575      700.9257       700.9257       700.9257       3.4436258e+08  1.7455443     -41863104      -41863104       1355.917      -41861748      -862.32678     -787.73969     -811.27077      29.189069      39.30862      -15.175226      12242.572    
      9100   453.80467      0.00455        0.088156298    0.080587471    0.08295022    -828.00885      700.96059      700.96059      700.96059      3.44414e+08    1.7452837     -41862541      -41862541       1351.3528     -41861190      -870.03502     -795.3365      -818.65502      29.126707      39.186591     -15.165522      12289.008    
      9200   452.29008      0.0046         0.088935153    0.081355712    0.083694698   -835.54754      700.99548      700.99548      700.99548      3.4446544e+08  1.7450231     -41861973      -41861973       1346.8426     -41860626      -877.72172     -802.91845     -826.00245      29.050695      39.070974     -15.16585       12252.424    
      9300   450.79484      0.00465        0.089711641    0.082122765    0.084435826   -843.06351      701.03037      701.03037      701.03037      3.4451687e+08  1.7447626     -41861399      -41861399       1342.3901     -41860056      -885.38506     -810.48868     -833.31681      28.962545      38.9621       -15.174659      12251.702    
      9400   449.32004      0.0047         0.090485509    0.082888844    0.085173992   -850.55792      701.06526      701.06526      701.06526      3.4456831e+08  1.7445021     -41860818      -41860818       1337.9984     -41859480      -893.02254     -818.04929     -840.60195      28.864064      38.859855     -15.190602      12220.781    
      9500   447.86654      0.00475        0.09125661     0.083654141    0.085909739   -858.0327       701.10015      701.10015      701.10015      3.4461976e+08  1.7442417     -41860232      -41860232       1333.6701     -41858899      -900.63272     -825.60218     -847.8632       28.75769       38.764651     -15.212225      12242.556    
      9600   446.43492      0.0048         0.092024917    0.084418783    0.086643621   -865.49         701.13504      701.13504      701.13504      3.4467121e+08  1.7439813     -41859641      -41859641       1329.4069     -41858311      -908.21532     -833.14861     -855.10606      28.646478      38.677644     -15.237895      12262.635    
      9700   445.02542      0.00485        0.092790481    0.085182899    0.08737627    -872.93248      701.16992      701.16992      701.16992      3.4472267e+08  1.743721      -41859043      -41859043       1325.2097     -41857718      -915.77085     -840.68985     -862.33674      28.533384      38.599974     -15.265744      12247.882    
      9800   443.63798      0.0049         0.093553412    0.085946569    0.088108412   -880.36317      701.20481      701.20481      701.20481      3.4477413e+08  1.7434607     -41858440      -41858440       1321.0782     -41857119      -923.30039     -848.22669     -869.56242      28.420878      38.531948     -15.294138      12219.358    
      9900   442.27229      0.00495        0.094313878    0.086709846    0.088840727   -887.78502      701.2397       701.2397       701.2397       3.4482559e+08  1.7432005     -41857831      -41857831       1317.0114     -41856514      -930.80561     -855.75964     -876.78981      28.310983      38.473127     -15.321696      12194.804    
     10000   440.92779      0.005          0.095072082    0.087472774    0.089573774   -895.20069      701.27459      701.27459      701.27459      3.4487706e+08  1.7429403     -41857216      -41857216       1313.0077     -41855903      -938.2885      -863.28916     -884.02442      28.205508      38.422873     -15.34765       12226.594    
     10100   439.60376      0.00505        0.0958282      0.088235351    0.090307998   -902.61222      701.30948      701.30948      701.30948      3.4492854e+08  1.7426802     -41856595      -41856595       1309.0649     -41855286      -945.7508      -870.81521     -891.27064      28.106331      38.380845     -15.371203      12247.75     
     10200   438.29931      0.0051         0.096582449    0.088997555    0.091043754   -910.02141      701.34437      701.34437      701.34437      3.4498002e+08  1.7424202     -41855968      -41855968       1305.1805     -41854663      -953.19466     -878.33758     -898.53199      28.015156      38.347248     -15.391287      12264.117    
     10300   437.01343      0.00515        0.097335037    0.089759309    0.091781307   -917.42957      701.37926      701.37926      701.37926      3.4503151e+08  1.7421601     -41855336      -41855336       1301.3514     -41854035      -960.62213     -885.8555      -905.81107      27.933618      38.322182     -15.407047      12300.609    
     10400   435.74508      0.0052         0.098086141    0.09052044     0.092520882   -924.83745      701.41415      701.41415      701.41415      3.45083e+08    1.7419002     -41854698      -41854698       1297.5744     -41853400      -968.03495     -893.36728     -913.11011      27.863347      38.304885     -15.41782       12241.06     
     10500   434.49324      0.00525        0.098835875    0.091280744    0.093262604   -932.24516      701.44904      701.44904      701.44904      3.451345e+08   1.7416403     -41854054      -41854054       1293.8467     -41852760      -975.43425     -900.8709      -920.43033      27.806269      38.293897     -15.423291      12273.289    
     10600   433.25695      0.0053         0.099584204    0.092039961    0.094006435   -939.65161      701.48393      701.48393      701.48393      3.45186e+08    1.7413804     -41853404      -41853404       1290.1652     -41852114      -982.81968     -908.36379     -927.77138      27.763891      38.287573     -15.423689      12281.067    
     10700   432.03538      0.00535        0.10033106     0.092797785    0.094752228   -947.05509      701.51882      701.51882      701.51882      3.4523751e+08  1.7411206     -41852748      -41852748       1286.5276     -41851462      -990.19057     -915.84293     -935.13178      27.736572      38.284        -15.418922      12269.699    
     10800   430.82789      0.0054         0.10107633     0.093553938    0.095499702   -954.45341      701.55371      701.55371      701.55371      3.4528902e+08  1.7408609     -41852087      -41852087       1282.9319     -41850804      -997.54586     -923.30558     -942.50877      27.72382       38.281089     -15.408768      12230.758    
     10900   429.63403      0.00545        0.10181993     0.094308161    0.096248451   -961.84403      701.5886       701.5886       701.5886       3.4534054e+08  1.7406012     -41851419      -41851419       1279.3768     -41850140      -1004.8846     -930.74918     -949.89836      27.724609      38.276978     -15.39341       12224.791    
     11000   428.45353      0.0055         0.10256173     0.095060241    0.096997956   -969.22419      701.62349      701.62349      701.62349      3.4539206e+08  1.7403415     -41850746      -41850746       1275.8615     -41849470      -1012.2055     -938.17163     -957.2954       27.737234      38.269733     -15.372796      12240.626    
     11100   427.28632      0.00555        0.10330153     0.095809962    0.097747661   -976.59069      701.65837      701.65837      701.65837      3.4544359e+08  1.7400819     -41850067      -41850067       1272.3857     -41848794      -1019.5069     -945.57081     -964.69441      27.759801      38.257574     -15.347221      12197.184    
     11200   426.13245      0.0056         0.1040392      0.096557167    0.098497081   -983.94093      701.69326      701.69326      701.69326      3.4549512e+08  1.7398224     -41849382      -41849382       1268.9497     -41848113      -1026.787      -952.94515     -972.09061      27.790397      38.238887     -15.317624      12231.518    
     11300   424.99217      0.00565        0.10477465     0.097301731    0.099245712   -991.27261      701.72815      701.72815      701.72815      3.4554666e+08  1.7395629     -41848691      -41848691       1265.5541     -41847425      -1034.0454     -960.29342     -979.47902      27.827196      38.212118     -15.284966      12220.154    
     11400   423.86586      0.0057         0.10550782     0.098043463    0.09999291    -998.58274      701.76304      701.76304      701.76304      3.4559821e+08  1.7393034     -41847994      -41847994       1262.2002     -41846732      -1041.2812     -967.61375     -986.8533       27.868654      38.176185     -15.249854      12258.841    
     11500   422.75403      0.00575        0.10623867     0.09878231     0.10073802    -1005.8689      701.79793      701.79793      701.79793      3.4564975e+08  1.739044      -41847292      -41847292       1258.8893     -41846033      -1048.4941     -974.9056      -994.20695      27.913484      38.130618     -15.21303       12236.344    
     11600   421.6573       0.0058         0.10696722     0.09951836     0.10148051    -1013.1297      701.83282      701.83282      701.83282      3.4570131e+08  1.7387847     -41846583      -41846583       1255.6234     -41845328      -1055.6844     -982.16985     -1001.5348      27.960218      38.075205     -15.175206      12255.255    
     11700   420.57627      0.00585        0.1076935      0.10025177     0.10221999    -1020.3644      701.86771      701.86771      701.86771      3.4575287e+08  1.7385254     -41845870      -41845870       1252.4043     -41844617      -1062.8522     -989.40805     -1008.8328      28.007008      38.010097     -15.137012      12221.068    
     11800   419.51158      0.0059         0.10841753     0.10098267     0.10295612    -1027.5724      701.9026       701.9026       701.9026       3.4580443e+08  1.7382662     -41845150      -41845150       1249.2339     -41843901      -1069.9979     -996.62146     -1016.0979      28.051724      37.935737     -15.098588      12264.39     
     11900   418.46383      0.00595        0.10913925     0.10171116     0.10368869    -1034.7532      701.93749      701.93749      701.93749      3.45856e+08    1.738007      -41844425      -41844425       1246.1138     -41843178      -1077.1206     -1003.8111     -1023.3278      28.092299      37.852632     -15.060074      12279.524    
     12000   417.43357      0.006          0.10985847     0.10243725     0.10441747    -1041.9054      701.97238      701.97238      701.97238      3.4590757e+08  1.7377479     -41843694      -41843694       1243.0459     -41842450      -1084.2188     -1010.9771     -1030.5203      28.12672       37.761418     -15.021628      12234.923    
     12100   416.42133      0.00605        0.11057494     0.10316101     0.10514218    -1049.0275      702.00727      702.00727      702.00727      3.4595915e+08  1.7374888     -41842957      -41842957       1240.0316     -41841717      -1091.2898     -1018.12       -1037.6726      28.153233      37.662463     -14.983091      12305.249    
     12200   415.42757      0.0061         0.11128844     0.1038825      0.10586263    -1056.1183      702.04216      702.04216      702.04216      3.4601074e+08  1.7372297     -41842215      -41842215       1237.0724     -41840978      -1098.3315     -1025.2406     -1044.7829      28.170799      37.556358     -14.944228      12254.136    
     12300   414.45269      0.00615        0.11199878     0.10460181     0.10657863    -1063.177       702.07705      702.07705      702.07705      3.4606233e+08  1.7369708     -41841467      -41841467       1234.1693     -41840233      -1105.342      -1032.3396     -1051.8493      28.178886      37.444278     -14.905259      12277.258    
     12400   413.497        0.0062         0.11270587     0.10531903     0.10729004    -1070.2029      702.11194      702.11194      702.11194      3.4611392e+08  1.7367118     -41840713      -41840713       1231.3235     -41839482      -1112.3205     -1039.418      -1058.8703      28.176654      37.327911     -14.867002      12237.627    
     12500   412.56076      0.00625        0.1134098      0.10603433     0.1079969     -1077.1972      702.14682      702.14682      702.14682      3.4616552e+08  1.736453      -41839955      -41839955       1228.5355     -41838726      -1119.2677     -1046.4774     -1065.8465      28.163408      37.209131     -14.830024      12239.886    
     12600   411.6441       0.0063         0.1141108      0.10674776     0.10869941    -1084.1614      702.18171      702.18171      702.18171      3.4621713e+08  1.7361941     -41839190      -41839190       1225.8058     -41837964      -1126.186      -1053.5185     -1072.7798      28.138601      37.089474     -14.794031      12243.148    
     12700   410.74703      0.00635        0.11480906     0.1074593      0.10939781    -1091.0969      702.2166       702.2166       702.2166       3.4626874e+08  1.7359354     -41838420      -41838420       1223.1345     -41837197      -1133.0774     -1060.5408     -1079.6725      28.101832      36.97054      -14.758406      12239.243    
     12800   409.86943      0.0064         0.11550477     0.10816898     0.11009236    -1098.0051      702.25149      702.25149      702.25149      3.4632035e+08  1.7356766     -41837645      -41837645       1220.5212     -41836424      -1139.9434     -1067.5448     -1086.5271      28.053078      36.853736     -14.722349      12214.662    
     12900   409.01105      0.00645        0.11619807     0.10887692     0.11078335    -1104.888       702.28638      702.28638      702.28638      3.4637197e+08  1.735418      -41836864      -41836864       1217.9651     -41835646      -1146.7858     -1074.5317     -1093.3467      27.992874      36.740167     -14.685503      12259.08     
     13000   408.17151      0.0065         0.11688917     0.10958324     0.11147106    -1111.7476      702.32127      702.32127      702.32127      3.464236e+08   1.7351594     -41836078      -41836078       1215.4651     -41834862      -1153.6064     -1081.5025     -1100.1338      27.922046      36.630603     -14.647508      12216.116    
     13100   407.35034      0.00655        0.11757834     0.11028798     0.11215578    -1118.5857      702.35616      702.35616      702.35616      3.4647523e+08  1.7349008     -41835286      -41835286       1213.0197     -41834073      -1160.408      -1088.4577     -1106.8915      27.842083      36.52594      -14.608311      12219.86     
     13200   406.54699      0.0066         0.11826582     0.1109911      0.11283766    -1125.4037      702.39105      702.39105      702.39105      3.4652686e+08  1.7346423     -41834489      -41834489       1210.6275     -41833279      -1167.1929     -1095.397      -1113.6211      27.75481       36.426992     -14.568056      12230.824    
     13300   405.76088      0.00665        0.1189518      0.11169261     0.11351681    -1132.2024      702.42594      702.42594      702.42594      3.465785e+08   1.7343838     -41833687      -41833687       1208.2866     -41832479      -1173.963      -1102.3204     -1120.3238      27.661855      36.334464     -14.527266      12224.069    
     13400   404.99141      0.0067         0.11963647     0.11239269     0.11419341    -1138.9837      702.46083      702.46083      702.46083      3.4663015e+08  1.7341254     -41832879      -41832879       1205.9953     -41831673      -1180.7202     -1109.2297     -1127.0013      27.564657      36.249018     -14.486481      12183.096    
     13500   404.2379       0.00675        0.12032004     0.11309158     0.11486762    -1145.7496      702.49572      702.49572      702.49572      3.466818e+08   1.733867      -41832066      -41832066       1203.7515     -41830862      -1187.4664     -1116.1271     -1133.6552      27.464913      36.171492     -14.445882      12268.348    
     13600   403.49969      0.0068         0.12100267     0.11378945     0.11553959    -1152.5017      702.53061      702.53061      702.53061      3.4673346e+08  1.7336087     -41831248      -41831248       1201.5532     -41830046      -1194.2035     -1123.0146     -1140.2871      27.364827      36.102423     -14.404973      12280.979    
     13700   402.77609      0.00685        0.12168461     0.11448645     0.1162095     -1159.2419      702.5655       702.5655       702.5655       3.4678512e+08  1.7333505     -41830424      -41830424       1199.3984     -41829224      -1200.9337     -1129.8934     -1146.8986      27.266802      36.042232     -14.363115      12294.354    
     13800   402.06645      0.0069         0.12236601     0.11518262     0.11687759    -1165.9716      702.60039      702.60039      702.60039      3.4683678e+08  1.7330923     -41829594      -41829594       1197.2852     -41828397      -1207.6587     -1136.764      -1153.4921      27.173166      35.991322     -14.319901      12291.691    
     13900   401.37018      0.00695        0.12304695     0.11587786     0.11754404    -1172.6913      702.63527      702.63527      702.63527      3.4688846e+08  1.7328341     -41828760      -41828760       1195.2118     -41827565      -1214.379      -1143.6255     -1160.0695      27.086397      35.950154     -14.274752      12225.885    
     14000   400.68676      0.007          0.1237274      0.11657208     0.11820904    -1179.4013      702.67016      702.67016      702.67016      3.4694013e+08  1.732576      -41827920      -41827920       1193.1767     -41826727      -1221.0945     -1150.477      -1166.6325      27.008984      35.918814     -14.22662       12198.423    
     14100   400.01575      0.00705        0.12440741     0.11726532     0.11887284    -1186.1027      702.70505      702.70505      702.70505      3.4699181e+08  1.7323179     -41827075      -41827075       1191.1786     -41825884      -1227.8056     -1157.3188     -1173.1837      26.943338      35.896746     -14.174692      12248.515    
     14200   399.35674      0.0071         0.12508702     0.11795755     0.1195357     -1192.7964      702.73994      702.73994      702.73994      3.470435e+08   1.7320599     -41826224      -41826224       1189.2162     -41825035      -1234.5129     -1164.1505     -1179.7256      26.891794      35.882996     -14.118983      12243.382    
     14300   398.70939      0.00715        0.12576622     0.11864862     0.12019779    -1199.4823      702.77483      702.77483      702.77483      3.4709519e+08  1.731802      -41825368      -41825368       1187.2885     -41824181      -1241.2161     -1170.9708     -1186.26        26.85649       35.876342     -14.060323      12214.043    
     14400   398.07341      0.0072         0.12644497     0.11933843     0.1208592     -1206.1603      702.80972      702.80972      702.80972      3.4714689e+08  1.7315441     -41824507      -41824507       1185.3946     -41823322      -1247.9148     -1177.7787     -1192.7875      26.839076      35.875409     -13.999465      12252.04     
     14500   397.44863      0.00725        0.12712322     0.12002696     0.12151991    -1212.8303      702.84461      702.84461      702.84461      3.4719859e+08  1.7312862     -41823641      -41823641       1183.5342     -41822457      -1254.6086     -1184.574      -1199.3083      26.840143      35.878918     -13.936892      12193.68     
     14600   396.83499      0.0073         0.12780086     0.12071425     0.1221799     -1219.4917      702.8795       702.8795       702.8795       3.472503e+08   1.7310284     -41822769      -41822769       1181.7068     -41821587      -1261.2964     -1191.357      -1205.8219      26.858771      35.885812     -13.873115      12210.728    
     14700   396.23251      0.00735        0.1284777      0.12140035     0.12283916    -1226.1443      702.91439      702.91439      702.91439      3.4730201e+08  1.7307707     -41821892      -41821892       1179.9127     -41820712      -1267.9763     -1198.1283     -1212.3282      26.893156      35.894988     -13.808525      12244.637    
     14800   395.64128      0.0074         0.12915355     0.12208531     0.12349782    -1232.7878      702.94928      702.94928      702.94928      3.4735373e+08  1.730513      -41821010      -41821010       1178.1522     -41819832      -1274.6464     -1204.8884     -1218.8287      26.942032      35.905932     -13.743636      12256.216    
     14900   395.06144      0.00745        0.12982816     0.12276924     0.12415599    -1239.4223      702.98417      702.98417      702.98417      3.4740545e+08  1.7302553     -41820123      -41820123       1176.4255     -41818946      -1281.3044     -1211.6382     -1225.3243      27.004695      35.918613     -13.679298      12278.769    
     15000   394.49313      0.0075         0.13050137     0.12345222     0.12481383    -1246.0479      703.01906      703.01906      703.01906      3.4745718e+08  1.7299978     -41819230      -41819230       1174.7332     -41818055      -1287.9484     -1218.3787     -1231.8167      27.080366      35.932993     -13.616706      12228.256    
     15100   393.93651      0.00755        0.13117305     0.12413425     0.12547148    -1252.6648      703.05395      703.05395      703.05395      3.4750891e+08  1.7297402     -41818333      -41818333       1173.0757     -41817159      -1294.5774     -1225.1098     -1238.3072      27.168173      35.948763     -13.557578      12284.709    
     15200   393.3917       0.0076         0.1318431      0.12481535     0.12612904    -1259.2729      703.08884      703.08884      703.08884      3.4756065e+08  1.7294827     -41817430      -41817430       1171.4533     -41816258      -1301.1902     -1231.8318     -1244.7968      27.266632      35.965597     -13.503397      12262.695    
     15300   392.85881      0.00765        0.13251155     0.12549569     0.12678662    -1265.8734      703.12372      703.12372      703.12372      3.476124e+08   1.7292253     -41816522      -41816522       1169.8665     -41815352      -1307.7873     -1238.5462     -1251.2866      27.374028      35.98306      -13.454749      12239.519    
     15400   392.33796      0.0077         0.13317847     0.12617538     0.12744438    -1272.4673      703.15861      703.15861      703.15861      3.4766415e+08  1.7289679     -41815609      -41815609       1168.3155     -41814441      -1314.3693     -1245.2542     -1257.7783      27.488362      36.000882     -13.411365      12212.323    
     15500   391.82923      0.00775        0.13384388     0.12685449     0.12810251    -1279.0555      703.1935       703.1935       703.1935       3.477159e+08   1.7287106     -41814691      -41814691       1166.8005     -41813524      -1320.9364     -1251.9565     -1264.2735      27.606799      36.019438     -13.372921      12248.893    
     15600   391.3326       0.0078         0.1345079      0.12753301     0.12876119    -1285.6389      703.22839      703.22839      703.22839      3.4776766e+08  1.7284533     -41813768      -41813768       1165.3217     -41812602      -1327.4898     -1258.653      -1270.7741      27.72596       36.039371     -13.339119      12253.228    
     15700   390.84801      0.00785        0.13517066     0.1282108      0.12942061    -1292.2183      703.26328      703.26328      703.26328      3.4781942e+08  1.728196      -41812840      -41812840       1163.8786     -41811676      -1334.0307     -1265.3422     -1277.2821      27.842926      36.060882     -13.309497      12237.631    
     15800   390.37528      0.0079         0.13583227     0.12888758     0.13008095    -1298.7937      703.29817      703.29817      703.29817      3.4787119e+08  1.7279388     -41811906      -41811906       1162.4709     -41810744      -1340.5603     -1272.0215     -1283.7992      27.955535      36.084252     -13.283851      12202.375    
     15900   389.91418      0.00795        0.13649294     0.12956316     0.13074234    -1305.3654      703.33306      703.33306      703.33306      3.4792297e+08  1.7276817     -41810968      -41810968       1161.0978     -41809807      -1347.0805     -1278.689      -1290.3266      28.062086      36.110302     -13.261918      12237.216    
     16000   389.46443      0.008          0.13715292     0.13023747     0.13140487    -1311.9344      703.36795      703.36795      703.36795      3.4797474e+08  1.7274246     -41810025      -41810025       1159.7586     -41808865      -1353.5941     -1285.3439     -1296.8652      28.160922      36.139699     -13.243         12241.011    
     16100   389.02576      0.00805        0.13781243     0.13091047     0.13206855    -1318.5014      703.40284      703.40284      703.40284      3.4802653e+08  1.7271676     -41809076      -41809076       1158.4523     -41807918      -1360.1029     -1291.9858     -1303.4153      28.250033      36.172791     -13.226247      12261.073    
     16200   388.59786      0.0081         0.13847153     0.13158217     0.13273328    -1325.0661      703.43773      703.43773      703.43773      3.4807832e+08  1.7269106     -41808123      -41808123       1157.1781     -41806966      -1366.6077     -1298.615      -1309.9756      28.327687      36.210344     -13.211485      12229.132    
     16300   388.18051      0.00815        0.13913024     0.13225263     0.13339878    -1331.6281      703.47262      703.47262      703.47262      3.4813011e+08  1.7266537     -41807164      -41807164       1155.9353     -41806008      -1373.1088     -1305.232      -1316.5436      28.39273       36.253751     -13.19896       12247.66     
     16400   387.7735       0.0082         0.13978863     0.13292193     0.13406472    -1338.1866      703.50751      703.50751      703.50751      3.4818191e+08  1.7263968     -41806201      -41806201       1154.7233     -41805046      -1379.6065     -1311.8375     -1323.1159      28.444194      36.303974     -13.189166      12249.73     
     16500   387.3767       0.00825        0.14044677     0.13359015     0.13473072    -1344.741       703.5424       703.5424       703.5424       3.4823372e+08  1.72614       -41805232      -41805232       1153.5417     -41804078      -1386.1019     -1318.4323     -1329.6889      28.481351      36.360644     -13.182345      12248.17     
     16600   386.99001      0.0083         0.14110481     0.13425738     0.13539643    -1351.2908      703.57729      703.57729      703.57729      3.4828553e+08  1.7258832     -41804258      -41804258       1152.3902     -41803105      -1392.5962     -1325.0173     -1336.2589      28.50365       36.42287      -13.178639      12290.025    
     16700   386.61337      0.00835        0.14176285     0.1349237      0.13606154    -1357.8357      703.61217      703.61217      703.61217      3.4833734e+08  1.7256265     -41803279      -41803279       1151.2686     -41802128      -1399.0906     -1331.5934     -1342.823       28.510782      36.489984     -13.17836       12258.558    
     16800   386.24674      0.0084         0.14242099     0.13558919     0.13672582    -1364.3753      703.64706      703.64706      703.64706      3.4838916e+08  1.7253698     -41802295      -41802295       1150.1768     -41801145      -1405.5859     -1338.1612     -1349.3789      28.503243      36.56171      -13.181591      12230.094    
     16900   385.89009      0.00845        0.14307931     0.1362539      0.13738905    -1370.9096      703.68195      703.68195      703.68195      3.4844099e+08  1.7251132     -41801306      -41801306       1149.1148     -41800157      -1412.083      -1344.7214     -1355.9245      28.481619      36.637859     -13.187952      12298.362    
     17000   385.54337      0.0085         0.14373784     0.13691777     0.13805099    -1377.4376      703.71684      703.71684      703.71684      3.4849282e+08  1.7248566     -41800312      -41800312       1148.0823     -41799163      -1418.5822     -1351.2734     -1362.4573      28.446518      36.718117     -13.196863      12296.463    
     17100   385.20656      0.00855        0.1443965      0.13758062     0.13871144    -1383.9578      703.75173      703.75173      703.75173      3.4854466e+08  1.7246001     -41799312      -41799312       1147.0794     -41798165      -1425.0826     -1357.8152     -1368.9755      28.398833      36.801983     -13.207753      12277.65     
     17200   384.87963      0.0086         0.1450552      0.13824217     0.13937026    -1390.4684      703.78662      703.78662      703.78662      3.485965e+08   1.7243436     -41798308      -41798308       1146.1058     -41797162      -1431.5836     -1364.3442     -1375.4775      28.338783      36.888358     -13.220372      12226.011    
     17300   384.56251      0.00865        0.14571385     0.13890219     0.1400273     -1396.968       703.82151      703.82151      703.82151      3.4864834e+08  1.7240872     -41797298      -41797298       1145.1615     -41796153      -1438.0839     -1370.858      -1381.962       28.265816      36.975553     -13.234219      12241.167    
     17400   384.25507      0.0087         0.14637236     0.13956052     0.14068247    -1403.4554      703.8564       703.8564       703.8564       3.487002e+08   1.7238308     -41796284      -41796284       1144.246      -41795140      -1444.5828     -1377.3552     -1388.428       28.179321      37.061551     -13.24826       12241.854    
     17500   383.95709      0.00875        0.14703064     0.1402169      0.14133561    -1409.9289      703.89129      703.89129      703.89129      3.4875205e+08  1.7235745     -41795265      -41795265       1143.3586     -41794121      -1451.0796     -1383.8332     -1394.874       28.078935      37.144273     -13.261184      12223.156    
     17600   383.66829      0.0088         0.14768858     0.14087113     0.14198654    -1416.3871      703.92618      703.92618      703.92618      3.4880391e+08  1.7233182     -41794240      -41794240       1142.4986     -41793098      -1457.573      -1390.29       -1401.2982      27.964872      37.222016     -13.271289      12205.401    
     17700   383.38833      0.00885        0.14834607     0.14152313     0.14263511    -1422.8286      703.96107      703.96107      703.96107      3.4885578e+08  1.723062      -41793211      -41793211       1141.665      -41792069      -1464.0619     -1396.7247     -1407.6991      27.838447      37.294343     -13.276885      12194.378    
     17800   383.11682      0.0089         0.14900301     0.14217284     0.14328127    -1429.2528      703.99596      703.99596      703.99596      3.4890765e+08  1.7228059     -41792176      -41792176       1140.8565     -41791035      -1470.5454     -1403.1368     -1414.0762      27.701282      37.361162     -13.276522      12204.397    
     17900   382.85335      0.00895        0.14965924     0.14282026     0.14392501    -1435.6592      704.03085      704.03085      704.03085      3.4895953e+08  1.7225497     -41791137      -41791137       1140.0719     -41789996      -1477.0218     -1409.5264     -1420.4294      27.554606      37.422389     -13.268735      12241.224    
     18000   382.59744      0.009          0.15031458     0.14346534     0.14456632    -1442.047       704.06574      704.06574      704.06574      3.4901141e+08  1.7222937     -41790092      -41790092       1139.3099     -41788953      -1483.4896     -1415.8928     -1426.7587      27.399669      37.477383     -13.252538      12247.006    
     18100   382.34864      0.00905        0.15096883     0.14410801     0.14520521    -1448.4153      704.10062      704.10062      704.10062      3.490633e+08   1.7220377     -41789042      -41789042       1138.569      -41787904      -1489.9465     -1422.2355     -1433.064       27.238216      37.525003     -13.227309      12248.571    
     18200   382.10649      0.0091         0.15162173     0.1447482      0.14584159    -1454.7628      704.13551      704.13551      704.13551      3.4911519e+08  1.7217817     -41787988      -41787988       1137.8479     -41786850      -1496.3901     -1428.5537     -1439.3446      27.072035      37.564573     -13.192755      12267.905    
     18300   381.87059      0.00915        0.15227303     0.1453858      0.14647516    -1461.0872      704.1704       704.1704       704.1704       3.4916709e+08  1.7215258     -41786928      -41786928       1137.1454     -41785791      -1502.8179     -1434.8462     -1445.5974      26.90343       37.595594     -13.148482      12227.615    
     18400   381.64065      0.0092         0.15292237     0.14602057     0.14710555    -1467.3855      704.20529      704.20529      704.20529      3.4921899e+08  1.7212699     -41785864      -41785864       1136.4607     -41784728      -1509.2264     -1441.111      -1451.8189      26.735546      37.61757      -13.09447       12268.59     
     18500   381.41647      0.00925        0.15356922     0.14665236     0.14773248    -1473.6543      704.24018      704.24018      704.24018      3.492709e+08   1.7210141     -41784795      -41784795       1135.7931     -41783659      -1515.6104     -1447.3462     -1458.0062      26.5719        37.630725     -13.03112       12286.076    
     18600   381.19799      0.0093         0.15421309     0.14728107     0.14835581    -1479.8913      704.27507      704.27507      704.27507      3.4932281e+08  1.7207583     -41783720      -41783720       1135.1425     -41782585      -1521.9649     -1453.5511     -1464.158       26.415182      37.635295     -12.9595        12246.052    
     18700   380.98518      0.00935        0.15485366     0.14790665     0.14897558    -1486.0955      704.30996      704.30996      704.30996      3.4937473e+08  1.7205026     -41782641      -41782641       1134.5088     -41781507      -1528.2868     -1459.7251     -1470.2747      26.267668      37.631551     -12.881546      12216.202    
     18800   380.77808      0.0094         0.1554907      0.14852908     0.14959188    -1492.2663      704.34485      704.34485      704.34485      3.4942665e+08  1.720247      -41781557      -41781557       1133.8921     -41780423      -1534.5739     -1465.8681     -1476.357       26.131472      37.619794     -12.799983      12190.158    
     18900   380.57678      0.00945        0.15612396     0.14914841     0.15020483    -1498.4035      704.37974      704.37974      704.37974      3.4947858e+08  1.7199914     -41780468      -41780468       1133.2927     -41779335      -1540.8237     -1471.9804     -1482.4065      26.00814       37.600259     -12.718029      12245.596    
     19000   380.38141      0.0095         0.15675311     0.14976469     0.1508145     -1504.5063      704.41463      704.41463      704.41463      3.4953052e+08  1.7197358     -41779374      -41779374       1132.7109     -41778241      -1547.0329     -1478.0626     -1488.4234      25.89873       37.573166     -12.638703      12239.288    
     19100   380.19216      0.00955        0.15737782     0.15037796     0.15142092    -1510.5739      704.44952      704.44952      704.44952      3.4958245e+08  1.7194803     -41778275      -41778275       1132.1473     -41777143      -1553.1983     -1484.1151     -1494.4083      25.803591      37.538872     -12.564856      12217.02     
     19200   380.00928      0.0096         0.15799793     0.15098839     0.15202431    -1516.6071      704.48441      704.48441      704.48441      3.496344e+08   1.7192248     -41777172      -41777172       1131.6027     -41776041      -1559.3183     -1490.1396     -1500.3633      25.722552      37.498062     -12.499016      12237.154    
     19300   379.83298      0.00965        0.15861347     0.15159631     0.15262509    -1522.6083      704.5193       704.5193       704.5193       3.4968635e+08  1.7189694     -41776064      -41776064       1131.0777     -41774933      -1565.3932     -1496.1392     -1506.2925      25.654933      37.451378     -12.443343      12174.482    
     19400   379.6634       0.0097         0.15922446     0.15220207     0.15322373    -1528.5805      704.55419      704.55419      704.55419      3.497383e+08   1.7187141     -41774951      -41774951       1130.5728     -41773821      -1571.4232     -1502.1177     -1512.2007      25.599075      37.399263     -12.399391      12210.401    
     19500   379.50061      0.00975        0.15983101     0.15280603     0.15382067    -1534.5265      704.58907      704.58907      704.58907      3.4979026e+08  1.7184588     -41773834      -41773834       1130.088      -41772704      -1577.4094     -1508.0783     -1518.092       25.55262       37.341996     -12.36834       12262.954    
     19600   379.34461      0.0098         0.16043327     0.15340854     0.15441624    -1540.4492      704.62396      704.62396      704.62396      3.4984223e+08  1.7182035     -41772711      -41772711       1129.6235     -41771582      -1583.3533     -1514.0246     -1523.9698      25.513574      37.279823     -12.351427      12245.289    
     19700   379.19527      0.00985        0.16103154     0.15401004     0.15501072    -1546.3518      704.65885      704.65885      704.65885      3.498942e+08   1.7179483     -41771584      -41771584       1129.1788     -41770455      -1589.2577     -1519.9609     -1529.8369      25.480236      37.213345     -12.349566      12271.99     
     19800   379.05245      0.0099         0.16162613     0.15461099     0.15560442    -1552.238       704.69374      704.69374      704.69374      3.4994617e+08  1.7176932     -41770453      -41770453       1128.7535     -41769324      -1595.1259     -1525.8918     -1535.6962      25.451027      37.143459     -12.363123      12264.148    
     19900   378.91592      0.00995        0.16221744     0.15521182     0.1561977     -1558.1115      704.72863      704.72863      704.72863      3.4999815e+08  1.7174381     -41769317      -41769317       1128.3469     -41768188      -1600.9617     -1531.8216     -1541.5514      25.424735      37.071026     -12.391967      12204.939    
     20000   378.78541      0.01           0.16280587     0.15581288     0.15679081    -1563.9758      704.76352      704.76352      704.76352      3.5005014e+08  1.717183      -41768176      -41768176       1127.9583     -41767048      -1606.769      -1537.7536     -1547.405       25.400447      36.996778     -12.43573       7667.9825    
     20100   378.66065      0.01005        0.16339187     0.15641442     0.15738391    -1569.8337      704.79841      704.79841      704.79841      3.5010213e+08  1.716928      -41767030      -41767030       1127.5867     -41765903      -1612.5524     -1543.6903     -1553.2584      25.377285      36.921278     -12.493362      12220.597    
     20200   378.54137      0.0101         0.16397602     0.15701668     0.15797713    -1575.6882      704.8333       704.8333       704.8333       3.5015412e+08  1.7166731     -41765880      -41765880       1127.2315     -41764753      -1618.3175     -1549.6342     -1559.1131      25.354738      36.844972     -12.562855      12212.252    
     20300   378.42736      0.01015        0.16455883     0.15761989     0.15857056    -1581.5421      704.86819      704.86819      704.86819      3.5020612e+08  1.7164182     -41764725      -41764725       1126.8921     -41763599      -1624.0693     -1555.5874     -1564.9697      25.332695      36.768051     -12.641457      12297.328    
     20400   378.31848      0.0102         0.16514072     0.15822413     0.15916418    -1587.3971      704.90308      704.90308      704.90308      3.5025813e+08  1.7161633     -41763566      -41763566       1126.5678     -41762440      -1629.8122     -1561.5507     -1570.8283      25.311033      36.691619     -12.725562      12198.16     
     20500   378.21469      0.01025        0.16572204     0.15882936     0.15975794    -1593.2539      704.93797      704.93797      704.93797      3.5031014e+08  1.7159085     -41762402      -41762402       1126.2588     -41761276      -1635.5494     -1567.5239     -1576.6883      25.289656      36.617098     -12.811143      12125.761    
     20600   378.11603      0.0103         0.16630299     0.15943552     0.16035175    -1599.1126      704.97286      704.97286      704.97286      3.5036215e+08  1.7156538     -41761234      -41761234       1125.965      -41760108      -1641.2829     -1573.5063     -1582.5488      25.2689        36.545757     -12.894228      12193.152    
     20700   378.02268      0.01035        0.16688372     0.16004248     0.16094542    -1604.9728      705.00775      705.00775      705.00775      3.5041417e+08  1.7153991     -41760061      -41760061       1125.687      -41758935      -1647.0142     -1579.4964     -1588.4078      25.249449      36.478611     -12.971114      12232.07     
     20800   377.93489      0.0104         0.1674644      0.16065001     0.16153875    -1610.8337      705.04264      705.04264      705.04264      3.504662e+08   1.7151444     -41758883      -41758883       1125.4256     -41757758      -1652.7451     -1585.4923     -1594.2635      25.232453      36.416014     -13.038691      12200.365    
     20900   377.85302      0.01045        0.1680452      0.16125789     0.16213155    -1616.6943      705.07752      705.07752      705.07752      3.5051823e+08  1.7148898     -41757701      -41757701       1125.1818     -41756576      -1658.4772     -1591.4916     -1600.114       25.219496      36.357939     -13.094193      12237.715    
     21000   377.7775       0.0105         0.16862629     0.16186591     0.1627236     -1622.5538      705.11241      705.11241      705.11241      3.5057027e+08  1.7146353     -41756514      -41756514       1124.9569     -41755389      -1664.2121     -1597.4923     -1605.9571      25.212334      36.304514     -13.135108      12222.989    
     21100   377.7088       0.01055        0.16920782     0.16247387     0.16331472    -1628.4116      705.1473       705.1473       705.1473       3.5062231e+08  1.7143808     -41755323      -41755323       1124.7523     -41754198      -1669.9514     -1603.4924     -1611.791       25.212416      36.255545     -13.158645      12178.657    
     21200   377.64743      0.0106         0.16978986     0.16308151     0.16390465    -1634.2661      705.18219      705.18219      705.18219      3.5067436e+08  1.7141263     -41754127      -41754127       1124.5696     -41753003      -1675.6957     -1609.4894     -1617.6132      25.22065       36.211027     -13.162249      12266.239    
     21300   377.59393      0.01065        0.17037234     0.16368863     0.16449309    -1640.1154      705.21708      705.21708      705.21708      3.5072641e+08  1.7138719     -41752927      -41752927       1124.4103     -41751803      -1681.4443     -1615.4812     -1623.4206      25.237555      36.170929     -13.144619      12146.698    
     21400   377.54891      0.0107         0.17095507     0.16429499     0.16507981    -1645.9573      705.25197      705.25197      705.25197      3.5077847e+08  1.7136176     -41751722      -41751722       1124.2762     -41750598      -1687.1954     -1621.4655     -1629.211       25.263113      36.134207     -13.104896      12297.338    
     21500   377.51295      0.01075        0.17153792     0.16490036     0.16566456    -1651.7899      705.28686      705.28686      705.28686      3.5083053e+08  1.7133633     -41750513      -41750513       1124.1691     -41749389      -1692.9477     -1627.44       -1634.9821      25.296998      36.099242     -13.042389      12262.575    
     21600   377.48657      0.0108         0.17212088     0.16550463     0.16624727    -1657.6126      705.32175      705.32175      705.32175      3.508826e+08   1.713109      -41749300      -41749300       1124.0905     -41748175      -1698.701      -1633.4037     -1640.733       25.338701      36.064532     -12.957836      12183.466    
     21700   377.47016      0.01085        0.17270393     0.16610769     0.16682793    -1663.4248      705.35664      705.35664      705.35664      3.5093467e+08  1.7128548     -41748081      -41748081       1124.0417     -41746957      -1704.4553     -1639.3555     -1646.4637      25.387046      36.028933     -12.853301      12235.61     
     21800   377.46395      0.0109         0.17328695     0.16670942     0.16740663    -1669.2261      705.39153      705.39153      705.39153      3.5098675e+08  1.7126007     -41746859      -41746859       1124.0232     -41745735      -1710.2092     -1645.294      -1652.1749      25.440888      35.99137      -12.731432      12206.267    
[...]
    847900   331.45479      0.42395        0.069677798    0.069017513    0.068783741   -682.55301      993.6119       993.6119       993.6119       9.8095785e+08  0.61276857    -30739913      -30739913       987.01577     -30738926      -687.6664      -681.14989     -678.84274      2.5328312      0.96557992     2.4545704      11816.586    
    848000   331.47533      0.424          0.069666023    0.069003934    0.068770179   -682.42499      993.64679      993.64679      993.64679      9.8106119e+08  0.61270403    -30738906      -30738906       987.07693     -30737918      -687.55019     -681.01588     -678.70889      2.5599845      1.0073202      2.514613       11828.614    
    848100   331.49803      0.42405        0.069654372    0.068990461    0.068757465   -682.30051      993.68168      993.68168      993.68168      9.8116454e+08  0.61263949    -30737898      -30737898       987.14451     -30736911      -687.43521     -680.88291     -678.58342      2.5804858      1.0462997      2.5667029      11839.954    
    848200   331.52224      0.4241         0.069642974    0.068977288    0.068745786   -682.18126      993.71656      993.71656      993.71656      9.8126789e+08  0.61257497    -30736891      -30736891       987.21662     -30735904      -687.32272     -680.7529      -678.46816      2.5939363      1.0821484      2.6101849      11868.567    
    848300   331.54727      0.42415        0.069631919    0.068964555    0.068735276   -682.06842      993.75145      993.75145      993.75145      9.8137125e+08  0.61251045    -30735884      -30735884       987.29116     -30734896      -687.21361     -680.62724     -678.36443      2.5999571      1.1143852      2.6446211      11876.64     
    848400   331.57239      0.4242         0.069621302    0.068952328    0.068726003   -681.96277      993.78634      993.78634      993.78634      9.8147462e+08  0.61244594    -30734877      -30734877       987.36595     -30733889      -687.10882     -680.50657     -678.27292      2.5982607      1.1424525      2.6697908      11852.366    
    848500   331.59685      0.42425        0.069611227    0.068940644    0.068717991   -681.86483      993.82123      993.82123      993.82123      9.8157799e+08  0.61238144    -30733870      -30733870       987.43878     -30732882      -687.0094      -680.39126     -678.19384      2.5887102      1.1658924      2.6857803      11929.789    
    848600   331.6199       0.4243         0.069601772    0.068929535    0.068711245   -681.77499      993.85612      993.85612      993.85612      9.8168137e+08  0.61231695    -30732863      -30732863       987.50745     -30731875      -686.91609     -680.28162     -678.12726      2.5714524      1.1844535      2.6928854      11924.076    
    848700   331.64084      0.42435        0.06959296     0.068919008    0.068705738   -681.69325      993.89101      993.89101      993.89101      9.8178476e+08  0.61225247    -30731856      -30731856       987.5698      -30730868      -686.82912     -680.17772     -678.07291      2.546819       1.1980576      2.6913986      11874.053    
    848800   331.65897      0.4244         0.069584781    0.06890908     0.068701399   -681.61941      993.9259       993.9259       993.9259       9.8188816e+08  0.612188      -30730849      -30730849       987.62379     -30729861      -686.7484      -680.07974     -678.03009      2.5151402      1.2066942      2.6815148      11850.407    
    848900   331.67367      0.42445        0.06957718     0.068899769    0.068698122   -681.55299      993.96079      993.96079      993.96079      9.8199156e+08  0.61212353    -30729842      -30729842       987.66754     -30728855      -686.67337     -679.98785     -677.99775      2.4767334      1.2103449      2.6635151      11838.507    
    849000   331.6844       0.4245         0.069570062    0.068891067    0.068695779   -681.49324      993.99568      993.99568      993.99568      9.8209497e+08  0.61205908    -30728835      -30728835       987.6995      -30727848      -686.60313     -679.90197     -677.97462      2.4319726      1.2090657      2.6378209      11889.108    
    849100   331.69078      0.42455        0.06956333     0.06888294     0.068694227   -681.43925      994.03057      994.03057      994.03057      9.8219839e+08  0.61199463    -30727829      -30727829       987.7185      -30726841      -686.53669     -679.82176     -677.95931      2.3813619      1.2030647      2.6049714      11875.65     
    849200   331.69257      0.4246         0.069556846    0.068875342    0.068693313   -681.38992      994.06546      994.06546      994.06546      9.8230182e+08  0.6119302     -30726822      -30726822       987.72384     -30725834      -686.47269     -679.74678     -677.95029      2.3256056      1.1928368      2.5656982      11857.982    
    849300   331.68969      0.42465        0.069550479    0.068868235    0.068692895   -681.34422      994.10035      994.10035      994.10035      9.8240525e+08  0.61186577    -30725815      -30725815       987.71525     -30724827      -686.40986     -679.67663     -677.94616      2.2653724      1.1791691      2.5209484      11886.91     
    849400   331.68218      0.4247         0.069544122    0.068861588    0.068692843   -681.30127      994.13524      994.13524      994.13524      9.8250869e+08  0.61180135    -30724808      -30724808       987.69289     -30723820      -686.34712     -679.61104     -677.94565      2.2013165      1.1629175      2.4717719      11826.034    
    849500   331.67024      0.42475        0.06953765     0.06885537     0.068693019   -681.2601       994.17013      994.17013      994.17013      9.8261214e+08  0.61173694    -30723801      -30723801       987.65733     -30722813      -686.28324     -679.54966     -677.94739      2.1342095      1.1451238      2.419274       11879.831    
    849600   331.65419      0.4248         0.069530935    0.068849522    0.068693256   -681.21955      994.20501      994.20501      994.20501      9.8271559e+08  0.61167254    -30722794      -30722794       987.60953     -30721807      -686.21698     -679.49195     -677.94972      2.0647253      1.1268362      2.3645838      11852.574    
    849700   331.6345       0.42485        0.069523874    0.06884399     0.068693391   -681.17857      994.2399       994.2399       994.2399       9.8281906e+08  0.61160815    -30721787      -30721787       987.5509      -30720800      -686.14729     -679.43736     -677.95106      1.9935259      1.1089581      2.308879       11901.116    
    849800   331.61176      0.4249         0.06951638     0.068838734    0.068693262   -681.1362       994.27479      994.27479      994.27479      9.8292252e+08  0.61154377    -30720780      -30720780       987.48319     -30719793      -686.07333     -679.38548     -677.94978      1.9212686      1.0921705      2.2532182      11878.289    
    849900   331.58666      0.42495        0.069508372    0.0688337      0.068692691   -681.09141      994.30968      994.30968      994.30968      9.83026e+08    0.6114794     -30719773      -30719773       987.40845     -30718786      -685.9943      -679.3358      -677.94415      1.8486136      1.0770135      2.1985853      11854.942    
    850000   331.55995      0.425          0.069499792    0.068828824    0.068691534   -681.04334      994.34457      994.34457      994.34457      9.8312948e+08  0.61141503    -30718766      -30718766       987.3289      -30717779      -685.90962     -679.28767     -677.93273      1.7762283      1.063694       2.145844       11837.596    
    850100   331.53237      0.42505        0.069490613    0.068824054    0.068689682   -680.99136      994.37946      994.37946      994.37946      9.8323298e+08  0.61135068    -30717759      -30717759       987.2468      -30716771      -685.81903     -679.24061     -677.91445      1.7047297      1.0523139      2.0956561      11864.544    
    850200   331.50468      0.4251         0.069480837    0.068819344    0.06868704    -680.93501      994.41435      994.41435      994.41435      9.8333647e+08  0.61128633    -30716752      -30716752       987.16434     -30715764      -685.72255     -679.19411     -677.88838      1.6345707      1.0429688      2.0485728      11848.932    
    850300   331.47756      0.42515        0.069470479    0.068814643    0.068683524   -680.8739       994.44924      994.44924      994.44924      9.8343998e+08  0.61122199    -30715745      -30715745       987.08357     -30714757      -685.62032     -679.14772     -677.85368      1.5661067      1.0356868      2.0049388      11842.426    
    850400   331.45162      0.4252         0.069459567    0.068809933    0.068679083   -680.8079       994.48413      994.48413      994.48413      9.8354349e+08  0.61115767    -30714737      -30714737       987.00634     -30713750      -685.51262     -679.10124     -677.80985      1.4996925      1.0305493      1.9648014      11900.41     
    850500   331.4274       0.42525        0.069448145    0.068805234    0.068673713   -680.73721      994.51902      994.51902      994.51902      9.8364701e+08  0.61109335    -30713730      -30713730       986.9342      -30712743      -685.3999      -679.05487     -677.75685      1.4355599      1.0276367      1.9279753      11810.686    
    850600   331.40529      0.4253         0.069436291    0.068800594    0.068667454   -680.66235      994.55391      994.55391      994.55391      9.8375054e+08  0.61102904    -30712723      -30712723       986.86837     -30711737      -685.28291     -679.00907     -677.69508      1.3738623      1.0270839      1.8940699      11862.841    
    850700   331.3856       0.42535        0.069424096    0.068796054    0.068660362   -680.58397      994.5888       994.5888       994.5888       9.8385407e+08  0.61096474    -30711717      -30711717       986.80972     -30710730      -685.16256     -678.96427     -677.62509      1.3146581      1.0288966      1.8626578      11895.522    
    850800   331.36848      0.4254         0.069411652    0.068791641    0.068652504   -680.50266      994.62369      994.62369      994.62369      9.8395762e+08  0.61090044    -30710710      -30710710       986.75874     -30709723      -685.03975     -678.92071     -677.54753      1.2579886      1.0328735      1.8333111      11885.769    
    850900   331.35399      0.42545        0.069399058    0.068787346    0.068643953   -680.41897      994.65857      994.65857      994.65857      9.8406116e+08  0.61083616    -30709703      -30709703       986.71561     -30708716      -684.91545     -678.87832     -677.46314      1.2039135      1.038858       1.8056396      11872.24     
    851000   331.34213      0.4255         0.069386411    0.06878317     0.06863477    -680.33342      994.69346      994.69346      994.69346      9.8416472e+08  0.61077189    -30708696      -30708696       986.68028     -30707710      -684.79064     -678.83711     -677.37251      1.1525386      1.0467223      1.7792776      11877.352    
    851100   331.33281      0.42555        0.069373802    0.068779107    0.06862501    -680.24647      994.72835      994.72835      994.72835      9.8426828e+08  0.61070762    -30707690      -30707690       986.65253     -30706703      -684.66619     -678.79701     -677.27619      1.1040461      1.056365       1.7537843      11848.063    
    851200   331.32592      0.4256         0.069361349    0.068775117    0.068614718   -680.15851      994.76324      994.76324      994.76324      9.8437186e+08  0.61064337    -30706683      -30706683       986.63202     -30705696      -684.54329     -678.75763     -677.17462      1.0587182      1.0677027      1.7286527      11832.831    
    851300   331.32132      0.42565        0.069349171    0.068771142    0.068603946   -680.06994      994.79813      994.79813      994.79813      9.8447543e+08  0.61057912    -30705677      -30705677       986.61831     -30704690      -684.42311     -678.7184      -677.0683       1.0168507      1.08053        1.7033357      11847.314    
    851400   331.31884      0.4257         0.069337376    0.068767117    0.068592753   -679.98107      994.83302      994.83302      994.83302      9.8457902e+08  0.61051488    -30704670      -30704670       986.61092     -30703684      -684.30669     -678.67868     -676.95784      0.97871612     1.0945648      1.677475       11852.263    
    851500   331.31829      0.42575        0.069326055    0.06876299     0.068581189   -679.89221      994.86791      994.86791      994.86791      9.8468261e+08  0.61045065    -30703664      -30703664       986.60929     -30702677      -684.19497     -678.63795     -676.84371      0.94446004     1.1094848      1.6507949      11858.325    
    851600   331.31949      0.4258         0.069315293    0.068758711    0.068569295   -679.8036       994.9028       994.9028       994.9028       9.8478621e+08  0.61038643    -30702658      -30702658       986.61286     -30701671      -684.08876     -678.59572     -676.72633      0.91416977     1.1248477      1.6230247      11840.378    
    851700   331.32223      0.42585        0.06930516     0.068754238    0.068557134   -679.71554      994.93769      994.93769      994.93769      9.8488982e+08  0.61032222    -30701651      -30701651       986.62104     -30700665      -683.98875     -678.55157     -676.60631      0.88790548     1.1399712      1.5938945      11837.958    
    851800   331.32632      0.4259         0.0692957      0.068749545    0.068544771   -679.62831      994.97258      994.97258      994.97258      9.8499343e+08  0.61025802    -30700645      -30700645       986.63321     -30699658      -683.89539     -678.50525     -676.48429      0.86566838     1.1541814      1.563181       11873.103    
    851900   331.33152      0.42595        0.069286944    0.0687446      0.068532282   -679.54215      995.00747      995.00747      995.00747      9.8509706e+08  0.61019383    -30699639      -30699639       986.6487      -30698652      -683.80897     -678.45646     -676.36103      0.84749246     1.1669357      1.5306584      11837.089    
    852000   331.3376       0.426          0.069278908    0.068739371    0.06851973    -679.45722      995.04236      995.04236      995.04236      9.8520068e+08  0.61012965    -30698633      -30698633       986.6668      -30697646      -683.72966     -678.40484     -676.23715      0.83335903     1.1778165      1.496247       11902.734    
    852100   331.34432      0.42605        0.069271625    0.068733837    0.068507205   -679.37385      995.07725      995.07725      995.07725      9.8530432e+08  0.61006547    -30697627      -30697627       986.6868      -30696640      -683.65778     -678.35023     -676.11355      0.82319889     1.1865744      1.4599464      11834.523    
    852200   331.35146      0.4261         0.06926514     0.068727995    0.068494817   -679.29255      995.11214      995.11214      995.11214      9.8540796e+08  0.61000131    -30696621      -30696621       986.70805     -30695634      -683.59378     -678.29258     -675.99129      0.81694979     1.1932174      1.4219         11858.112    
    852300   331.3588       0.42615        0.069259492    0.068721852    0.068482663   -679.21378      995.14702      995.14702      995.14702      9.8551161e+08  0.60993715    -30695615      -30695615       986.72992     -30694628      -683.53804     -678.23195     -675.87134      0.81451931     1.1979217      1.3825854      11932.512    
    852400   331.36618      0.4262         0.069254698    0.068715419    0.068470818   -679.13787      995.18191      995.18191      995.18191      9.8561527e+08  0.609873      -30694609      -30694609       986.75191     -30693622      -683.49073     -678.16845     -675.75443      0.81574856     1.2009648      1.3426551      11903.396    
    852500   331.37349      0.42625        0.069250745    0.068708692    0.068459349   -679.06501      995.2168       995.2168       995.2168       9.8571894e+08  0.60980886    -30693603      -30693603       986.77368     -30692616      -683.45171     -678.10207     -675.64124      0.82051742     1.2025401      1.3029835      11879.047    
    852600   331.38069      0.4263         0.069247619    0.068701679    0.068448335   -678.99542      995.25169      995.25169      995.25169      9.8582261e+08  0.60974473    -30692597      -30692597       986.7951      -30691610      -683.42086     -678.03285     -675.53254      0.82864039     1.2025525      1.2645885      11821.467    
    852700   331.38775      0.42635        0.069245302    0.068694371    0.068437837   -678.92922      995.28658      995.28658      995.28658      9.8592629e+08  0.60968061    -30691591      -30691591       986.81614     -30690604      -683.398       -677.96073     -675.42893      0.83998661     1.2007539      1.2283681      11867.904    
    852800   331.39473      0.4264         0.069243754    0.068686731    0.068427894   -678.86629      995.32147      995.32147      995.32147      9.8602998e+08  0.6096165     -30690585      -30690585       986.8369      -30689598      -683.38272     -677.88533     -675.3308       0.8545555      1.1969362      1.19499        11851.522    
    852900   331.40166      0.42645        0.069242906    0.068678708    0.068418531   -678.8063       995.35636      995.35636      995.35636      9.8613367e+08  0.6095524     -30689579      -30689579       986.85756     -30688592      -683.37435     -677.80615     -675.2384       0.87230837     1.1909828      1.1649974      11841.109    
    853000   331.40865      0.4265         0.069242673    0.068670259    0.068409748   -678.74884      995.39125      995.39125      995.39125      9.8623737e+08  0.6094883     -30688573      -30688573       986.87838     -30687586      -683.37205     -677.72276     -675.15172      0.89308877     1.1828815      1.138933       11854.06     
    853100   331.4158       0.42655        0.06924299     0.068661383    0.068401533   -678.69366      995.42614      995.42614      995.42614      9.8634108e+08  0.60942422    -30687567      -30687567       986.89965     -30686580      -683.37518     -677.63516     -675.07065      0.91671262     1.1727711      1.1173276      11850.263    
    853200   331.4232       0.4266         0.069243781    0.068652101    0.068393879   -678.64055      995.46103      995.46103      995.46103      9.864448e+08   0.60936014    -30686561      -30686561       986.92169     -30685574      -683.38298     -677.54356     -674.9951       0.94301983     1.1608071      1.1006345      11816.296    
    853300   331.43097      0.42665        0.069244942    0.068642448    0.068386771   -678.58923      995.49592      995.49592      995.49592      9.8654852e+08  0.60929608    -30685555      -30685555       986.94483     -30684568      -683.39445     -677.44829     -674.92496      0.97173281     1.1471158      1.0891917      11850.206    
    853400   331.43923      0.4267         0.06924638     0.068632451    0.068380207   -678.53947      995.53081      995.53081      995.53081      9.8665225e+08  0.60923202    -30684549      -30684549       986.96943     -30683562      -683.40863     -677.34963     -674.86017      1.0025218      1.1317873      1.083141       11859.428    
    853500   331.4481       0.42675        0.069247989    0.068622152    0.068374166   -678.49102      995.5657       995.5657       995.5657       9.8675599e+08  0.60916797    -30683543      -30683543       986.99583     -30682556      -683.42452     -677.24799     -674.80055      1.0348929      1.1148982      1.0823924      11891.923    
    853600   331.45767      0.4268         0.069249649    0.068611601    0.068368621   -678.44353      995.60059      995.60059      995.60059      9.8685974e+08  0.60910393    -30682537      -30682537       987.02434     -30681550      -683.4409      -677.14385    