LAMMPS (23 Jun 2022 - Update 1)
OMP_NUM_THREADS environment is not set. Defaulting to 1 thread. (src/comm.cpp:98)
  using 1 OpenMP thread(s) per MPI task
###

# Read restart info
read_restart ${read_res}
read_restart ./700300/equpmf71.res
Reading restart file ...
  restart file = 23 Jun 2022, LAMMPS = 23 Jun 2022
  restoring atom style atomic from restart
  orthogonal box = (2201.5658 2201.5658 2201.5658) to (2798.4342 2798.4342 2798.4342)
  1 by 2 by 2 MPI processor grid
  restoring pair style table from restart
  1000 atoms
  read_restart CPU = 0.327 seconds

# Settings
pair_style table/pgn spline 9941
pair_coeff 1 1 N20.txt DE_GNP 147.89 72.9   # 1.35 * r
pair_coeff 2 2 N100.txt DE_GNP 473.9 111.78
WARNING: 3 of 9941 force values in table DE_GNP are inconsistent with -dE/dr.
WARNING:  Should only be flagged at inflection points (src/pair_table_pgn.cpp:478)
pair_coeff 1 2 mixed_potential.txt DE_GNP 391.2 92.95
WARNING: 1562 of 9941 force values in table DE_GNP are inconsistent with -dE/dr.
WARNING:  Should only be flagged at inflection points (src/pair_table_pgn.cpp:478)

# Neighbor list
neighbor 2.0 bin
neigh_modify delay 0 every 1 check no once yes

# Temperature
variable T equal ${Temp}
variable T equal 300

# Deformation
reset_timestep 0
variable tmp equal "lx"
variable L0 equal ${tmp}
variable L0 equal 596.868378461536
variable strain equal "(lx - v_L0)/v_L0"
variable stp equal "step"
variable tmpe equal "temp"
variable p1 equal "v_strain"
variable p2 equal "-pxx*1.01325/10000"
variable p3 equal "-pyy*1.01325/10000"
variable p4 equal "-pzz*1.01325/10000"
variable p5 equal "lx"
variable p6 equal "ly"
variable p7 equal "lz"
variable p8 equal "press"
variable p9 equal "epair"
variable p10 equal "etotal"

# Thermo
thermo_style custom step temp v_p1 v_p2 v_p3 v_p4 press lx ly lz vol density epair pe ke etotal pxx pyy pzz pxy pxz pyz spcpu
thermo ${ts_save}
thermo 100

# Dump
# dump 1 all custom 2000 ./${N20}${N100}/tensile/trajectory/trajectory_${usic}_${trial}_*.tensile.custom id type x y z ix iy iz
# dump_modify 1 sort id
dump 2 all cfg 20000 ./${N20}${N100}/tensile/trajectory/dumpten.tens_${usic}_${trial}_*.cfg mass type xs ys zs fx fy fz
dump 2 all cfg 20000 ./700${N100}/tensile/trajectory/dumpten.tens_${usic}_${trial}_*.cfg mass type xs ys zs fx fy fz
dump 2 all cfg 20000 ./700300/tensile/trajectory/dumpten.tens_${usic}_${trial}_*.cfg mass type xs ys zs fx fy fz
dump 2 all cfg 20000 ./700300/tensile/trajectory/dumpten.tens_2_${trial}_*.cfg mass type xs ys zs fx fy fz
dump 2 all cfg 20000 ./700300/tensile/trajectory/dumpten.tens_2_5_*.cfg mass type xs ys zs fx fy fz
dump_modify 2 element N20 N100

fix 1 all nvt temp ${T} ${T} 100
fix 1 all nvt temp 300 ${T} 100
fix 1 all nvt temp 300 300 100
fix 2 all deform 1 x erate ${strain_rate} y erate ${strain_rate} z erate ${strain_rate} units box
fix 2 all deform 1 x erate 5e-6 y erate ${strain_rate} z erate ${strain_rate} units box
fix 2 all deform 1 x erate 5e-6 y erate 5e-6 z erate ${strain_rate} units box
fix 2 all deform 1 x erate 5e-6 y erate 5e-6 z erate 5e-6 units box
fix             def1 all print ${ts_save} "${p1} ${p2} ${p3} ${p4}" file ./tensile/tensile${N20}${N100}_${usic}_${trial}.txt screen no
fix             def1 all print 100 "${p1} ${p2} ${p3} ${p4}" file ./tensile/tensile${N20}${N100}_${usic}_${trial}.txt screen no
fix             def1 all print 100 "${p1} ${p2} ${p3} ${p4}" file ./tensile/tensile700${N100}_${usic}_${trial}.txt screen no
fix             def1 all print 100 "${p1} ${p2} ${p3} ${p4}" file ./tensile/tensile700300_${usic}_${trial}.txt screen no
fix             def1 all print 100 "${p1} ${p2} ${p3} ${p4}" file ./tensile/tensile700300_2_${trial}.txt screen no
fix             def1 all print 100 "${p1} ${p2} ${p3} ${p4}" file ./tensile/tensile700300_2_5.txt screen no

timestep       		${ts}
timestep       		0.1
run				${steps_tensile}
run				6000000
Generated 0 of 1 mixed pair_coeff terms from geometric mixing rule
Unused restart file global fix info:
  fix style: npt, fix ID: 5
Neighbor list info ...
  update every 1 steps, delay 0 steps, check no
  max neighbors/atom: 2000, page size: 100000
  master list distance cutoff = 113.78
  ghost atom cutoff = 113.78
  binsize = 56.89, bins = 11 11 11
  1 neighbor lists, perpetual/occasional/extra = 1 0 0
  (1) pair table/pgn, perpetual
      attributes: half, newton on
      pair build: half/bin/atomonly/newton
      stencil: half/bin/3d
      bin: standard
Per MPI rank memory allocation (min/avg/max) = 3.856 | 3.857 | 3.858 Mbytes
   Step          Temp           v_p1           v_p2           v_p3           v_p4          Press            Lx             Ly             Lz           Volume        Density         E_pair         PotEng         KinEng         TotEng          Pxx            Pyy            Pzz            Pxy            Pxz            Pyz           S/CPU     
         0   294.8084      -1.9047221e-16  0.015759406    0.022461863    0.02214613    -198.5933       596.86838      596.86838      596.86838      2.1263547e+08  2.2015339     -18239864      -18239864       877.88908     -18238986      -155.53324     -221.68135     -218.56531     -11.105868     -52.140894     -17.455563      0            
       100   296.18607      5e-05          0.016815293    0.023494389    0.023191943   -208.90411      596.89822      596.89822      596.89822      2.1266737e+08  2.2012037     -18239773      -18239773       881.99155     -18238891      -165.95404     -231.87159     -228.88668     -11.056426     -52.152834     -17.532933      7144.4932    
       200   298.61675      0.0001         0.017874989    0.024538096    0.02425054    -219.30628      596.92807      596.92807      596.92807      2.1269927e+08  2.2008735     -18239680      -18239680       889.22969     -18238791      -176.41243     -242.17217     -239.33423     -11.001961     -52.166016     -17.614104      7833.4968    
       300   302.04834      0.00015        0.018925642    0.025580402    0.025308583   -229.67227      596.95791      596.95791      596.95791      2.1273117e+08  2.2005435     -18239585      -18239585       899.44839     -18238686      -186.78156     -252.45894     -249.7763      -10.942997     -52.180146     -17.693768      8443.3017    
       400   306.40665      0.0002         0.019965376    0.02661933     0.02636344    -239.98074      596.98775      596.98775      596.98775      2.1276308e+08  2.2002135     -18239488      -18239488       912.4267      -18238576      -197.04294     -262.71236     -260.18692     -10.879381     -52.194966     -17.767129      8950.4176    
       500   311.59145      0.00025        0.020992864    0.027653107    0.027412685   -250.21352      597.0176       597.0176       597.0176       2.1279499e+08  2.1998835     -18239389      -18239389       927.86612     -18238461      -207.18346     -272.91495     -270.54217     -10.811179     -52.210812     -17.830412      9466.8632    
       600   317.47101      0.0003         0.022007139    0.02868        0.028454013   -260.35414      597.04744      597.04744      597.04744      2.128269e+08   2.1995537     -18239288      -18239288       945.37445     -18238342      -217.19357     -283.04959     -280.81927     -10.73858      -52.227828     -17.880632      10006.408    
       700   323.87552      0.00035        0.023007244    0.029698228    0.029485176   -270.38621      597.07728      597.07728      597.07728      2.1285882e+08  2.1992239     -18239184      -18239184       964.44598     -18238220      -227.06384     -293.09872     -290.99606     -10.660984     -52.245392     -17.914389      10459.513    
       800   330.59204      0.0004         0.023992297    0.030706047    0.030504129   -280.29434      597.10713      597.10713      597.10713      2.1289074e+08  2.1988941     -18239079      -18239079       984.44664     -18238095      -236.78556     -303.04512     -301.05235     -10.577397     -52.2628       -17.928141      10888.696    
       900   337.37322      0.00045        0.02496148     0.031701813    0.03150909    -290.06459      597.13697      597.13697      597.13697      2.1292266e+08  2.1985645     -18238972      -18238972       1004.6398     -18237967      -246.35066     -312.87256     -310.97054     -10.48769      -52.279348     -17.920065      11266.723    
      1000   343.9909       0.0005         0.025913997    0.032683922    0.032498561   -299.68412      597.16681      597.16681      597.16681      2.1295458e+08  2.1982349     -18238863      -18238863       1024.3462     -18237838      -255.75126     -322.56523     -320.73586     -10.391446     -52.295127     -17.889643      11400.826    
      1100   350.37795      0.00055        0.026849064    0.033650986    0.033471127   -309.14114      597.19666      597.19666      597.19666      2.1298651e+08  2.1979053     -18238752      -18238752       1043.3657     -18237708      -264.97966     -332.10941     -330.33434     -10.28798      -52.310437     -17.837408      11738.486    
      1200   356.81782      0.0006         0.027766146    0.034601824    0.03442547    -318.42566      597.2265       597.2265       597.2265       2.1301844e+08  2.1975758     -18238638      -18238638       1062.5425     -18237576      -274.03056     -341.49345     -339.75298     -10.177448     -52.325756     -17.764168      11760.428    
      1300   363.91256      0.00065        0.0286648      0.035535195    0.035360314   -327.52795      597.25634      597.25634      597.25634      2.1305038e+08  2.1972464     -18238523      -18238523       1083.6695     -18237440      -282.89959     -350.70511     -348.97917     -10.061644     -52.341255     -17.669974      11744.918    
      1400   372.12564      0.0007         0.029544723    0.036449872    0.03627481    -336.44019      597.28619      597.28619      597.28619      2.1308232e+08  2.1969171     -18238407      -18238407       1108.1266     -18237298      -291.58375     -359.73227     -358.00454     -9.9429781     -52.356184     -17.554933      11715.858    
      1500   381.37699      0.00075        0.030405955    0.037344965    0.037168691   -345.15869      597.31603      597.31603      597.31603      2.1311426e+08  2.1965878     -18238288      -18238288       1135.6756     -18237152      -300.08345     -368.56615     -366.82646     -9.824228      -52.3702       -17.419737      11759.357    
      1600   391.18823      0.0008         0.031248812    0.038219817    0.038042102   -353.6828       597.34587      597.34587      597.34587      2.131462e+08   2.1962586     -18238168      -18238168       1164.8918     -18237003      -308.4018      -377.20026     -375.44635     -9.7097025     -52.383507     -17.265751      11728.937    
      1700   401.03865      0.00085        0.032073877    0.039073896    0.038895502   -362.01423      597.37572      597.37572      597.37572      2.1317815e+08  2.1959295     -18238046      -18238046       1194.2246     -18236851      -316.54456     -385.62937     -383.86876     -9.6048595     -52.396359     -17.093509      11739.67     
      1800   410.58098      0.0009         0.032881967    0.039906943    0.039729386   -370.15642      597.40556      597.40556      597.40556      2.132101e+08   2.1956004     -18237922      -18237922       1222.64       -18236699      -324.51978     -393.85091     -392.09855     -9.5142967     -52.409078     -16.903334      11714.482    
      1900   419.7259       0.00095        0.033673992    0.040718966    0.040544084   -378.11347      597.4354       597.4354       597.4354       2.1324206e+08  2.1952714     -18237796      -18237796       1249.8721     -18236547      -332.33646     -401.86494     -400.139       -9.441397      -52.421845     -16.6965        11750.595    
      2000   428.58988      0.001          0.034450914    0.041510248    0.041340048   -385.89098      597.46525      597.46525      597.46525      2.1327402e+08  2.1949424     -18237669      -18237669       1276.2675     -18236393      -340.00409     -409.6743      -407.99455     -9.3890143     -52.434451     -16.475559      11707.721    
      2100   437.32023      0.00105        0.035213872    0.0422814      0.042117793   -393.49639      597.49509      597.49509      597.49509      2.1330598e+08  2.1946136     -18237541      -18237541       1302.265      -18236238      -347.5339      -417.28497     -415.6703      -9.3590658     -52.447388     -16.242963      11663.934    
      2200   445.95702      0.0011         0.035964186    0.043033486    0.042878041   -400.93992      597.52493      597.52493      597.52493      2.1333794e+08  2.1942847     -18237410      -18237410       1327.9839     -18236082      -354.93892     -424.70749     -423.17336     -9.3517831     -52.460747     -16.000529      11726.742    
      2300   454.4419       0.00115        0.036703461    0.043768035    0.043621829   -408.2353       597.55478      597.55478      597.55478      2.1336991e+08  2.193956      -18237278      -18237278       1353.2504     -18235925      -362.235       -431.95692     -430.51398     -9.3663983     -52.4743       -15.749746      11723.898    
      2400   462.69791      0.0012         0.037433616    0.044486867    0.044350582   -415.39951      597.58462      597.58462      597.58462      2.1340188e+08  2.1936273     -18237145      -18237145       1377.8354     -18235767      -369.44107     -439.05124     -437.70621     -9.4019429     -52.487169     -15.49235       11728.425    
      2500   470.67516      0.00125        0.038156701    0.045192105    0.045066082   -422.45213      597.61446      597.61446      597.61446      2.1343385e+08  2.1932987     -18237009      -18237009       1401.5903     -18235608      -376.57736     -446.01139     -444.76765     -9.4569807     -52.497667     -15.231084      11729.058    
      2600   478.34748      0.0013         0.038874776    0.045885955    0.045770113   -429.41309      597.64431      597.64431      597.64431      2.1346583e+08  2.1929701     -18236872      -18236872       1424.4371     -18235448      -383.66421     -452.85917     -451.7159      -9.5302813     -52.5036       -14.968999      11735.989    
      2700   485.69592      0.00135        0.039589626    0.046570752    0.046464481   -436.30186      597.67415      597.67415      597.67415      2.1349781e+08  2.1926417     -18236733      -18236733       1446.3195     -18235287      -390.71923     -459.61759     -458.56877     -9.620658      -52.502378     -14.708964      11704.861    
      2800   492.7019       0.0014         0.040302793    0.04724897     0.047151044   -443.13778      597.70399      597.70399      597.70399      2.1352979e+08  2.1923132     -18236592      -18236592       1467.1821     -18235125      -397.75764     -466.31107     -465.34463     -9.7263958     -52.491042     -14.45423       11755.553    
      2900   499.34819      0.00145        0.041015737    0.047923099    0.047831541   -449.93956      597.73384      597.73384      597.73384      2.1356178e+08  2.1919849     -18236450      -18236450       1486.9736     -18234963      -404.79385     -472.96421     -472.06061     -9.8465376     -52.466153     -14.208497      11741.807    
      3000   505.62071      0.0015         0.041729885    0.048595595    0.048507674   -456.72557      597.76368      597.76368      597.76368      2.1359377e+08  2.1916566     -18236305      -18236305       1505.6521     -18234800      -411.84194     -479.60124     -478.73352     -9.9792232     -52.425173     -13.975736      11755.498    
      3100   511.50888      0.00155        0.042446406    0.049268623    0.049181121   -463.5123       597.79352      597.79352      597.79352      2.1362576e+08  2.1913284     -18236159      -18236159       1523.1861     -18234635      -418.91346     -486.24351     -485.37993     -10.122107     -52.366706     -13.760493      11734.764    
      3200   517.00533      0.0016         0.043166165    0.049944002    0.049853555   -470.31408      597.82337      597.82337      597.82337      2.1365775e+08  2.1910002     -18236010      -18236010       1539.5536     -18234470      -426.01692     -492.90898     -492.01633     -10.273307     -52.289829     -13.56731       11749.595    
      3300   522.10574      0.00165        0.043889746    0.050623148    0.050526339   -477.14198      597.85321      597.85321      597.85321      2.1368975e+08  2.1906721     -18235859      -18235859       1554.7417     -18234304      -433.15812     -499.61163     -498.6562      -10.431048     -52.193463     -13.401047      11735.899    
      3400   526.80866      0.0017         0.044617495    0.051307207    0.051200546   -484.00444      597.88305      597.88305      597.88305      2.1372176e+08  2.1903441     -18235705      -18235705       1568.7462     -18234136      -440.34044     -506.36277     -505.3101      -10.594607     -52.076664     -13.266514      11729.565    
      3500   531.11537      0.00175        0.045349678    0.051997338    0.051877171   -490.90941      597.9129       597.9129       597.9129       2.1375376e+08  2.1900161     -18235549      -18235549       1581.5709     -18233968      -447.56652     -513.17383     -511.98787     -10.764346     -51.939323     -13.1676        11752.008    
      3600   535.02962      0.0018         0.046086517    0.052694534    0.052556923   -497.86322      597.94274      597.94274      597.94274      2.1378577e+08  2.1896882     -18235391      -18235391       1593.2269     -18233798      -454.83856     -520.05461     -518.6965      -10.941362     -51.782742     -13.107451      11755.987    
      3700   538.55743      0.00185        0.046828357    0.053399652    0.053240278   -504.87141      597.97258      597.97258      597.97258      2.1381778e+08  2.1893604     -18235230      -18235230       1603.7321     -18233626      -462.15995     -527.01359     -525.44069     -11.126738     -51.608533     -13.088058      11701.195    
      3800   541.70682      0.0019         0.047575357    0.054113315    0.053927439   -511.9372       598.00243      598.00243      598.00243      2.138498e+08   2.1890326     -18235066      -18235066       1613.1104     -18233453      -469.53227     -534.0569      -532.22244     -11.32175      -51.418308     -13.109988      11746.422    
      3900   544.48763      0.00195        0.048327465    0.054835801    0.054618383   -519.06127      598.03227      598.03227      598.03227      2.1388182e+08  2.1887049     -18234899      -18234899       1621.3912     -18233278      -476.955       -541.18728     -539.04153     -11.528342     -51.214775     -13.173225      11711.154    
      4000   546.91129      0.002          0.049084644    0.055566949    0.055312952   -526.24244      598.06212      598.06212      598.06212      2.1391384e+08  2.1883773     -18234729      -18234729       1628.6084     -18233101      -484.42777     -548.40315     -545.89639     -11.747713     -51.001888     -13.276936      11718.702    
      4100   548.99055      0.00205        0.049846955    0.056306565    0.056011114   -533.48017      598.09196      598.09196      598.09196      2.1394586e+08  2.1880497     -18234556      -18234556       1634.8001     -18232922      -491.9512      -555.70259     -552.78671     -11.979499     -50.784607     -13.418669      11724.448    
      4200   550.73924      0.0021         0.050614315    0.057054352    0.056712883   -540.77325      598.1218       598.1218       598.1218       2.1397789e+08  2.1877222     -18234381      -18234381       1640.0074     -18232741      -499.52445     -563.08267     -559.71264     -12.223271     -50.568087     -13.594708      11742.74     
      4300   552.17201      0.00215        0.0513865      0.057809899    0.057418249   -548.11957      598.15165      598.15165      598.15165      2.1400992e+08  2.1873948     -18234202      -18234202       1644.2739     -18232557      -507.14533     -570.53934     -566.67405     -12.478937     -50.356994     -13.800435      11724.146    
      4400   553.30409      0.0022         0.052163216    0.058572853    0.058127241   -555.5171       598.18149      598.18149      598.18149      2.1404195e+08  2.1870674     -18234019      -18234019       1647.6451     -18232372      -514.81092     -578.06911     -573.67126     -12.747173     -50.156222     -14.030065      11725.841    
      4500   554.15106      0.00225        0.052944114    0.059342722    0.058840108   -562.96388      598.21133      598.21133      598.21133      2.1407399e+08  2.1867401     -18233834      -18233834       1650.1672     -18232183      -522.51778     -585.66713     -580.70672     -13.028409     -49.970606     -14.277281      11710.397    
      4600   554.72864      0.0023         0.053728653    0.060118693    0.059557029   -570.45604      598.24118      598.24118      598.24118      2.1410603e+08  2.1864129     -18233645      -18233645       1651.8872     -18231993      -530.26058     -593.32536     -587.78217     -13.320902     -49.803767     -14.53531       11714.611    
      4700   555.05261      0.00235        0.054516181    0.060899877    0.060277943   -577.98832      598.27102      598.27102      598.27102      2.1413808e+08  2.1860857     -18233452      -18233452       1652.8519     -18231799      -538.03287     -601.03506     -594.89704     -13.620428     -49.657713     -14.797415      11695.461    
      4800   555.13862      0.0024         0.055306159    0.061685455    0.061002704   -585.55578      598.30086      598.30086      598.30086      2.1417012e+08  2.1857586     -18233256      -18233256       1653.108      -18231603      -545.82935     -608.78811     -602.04988     -13.922744     -49.533512     -15.057439      11694.109    
      4900   555.00211      0.00245        0.056098218    0.062474742    0.061731136   -593.15436      598.33071      598.33071      598.33071      2.1420217e+08  2.1854315     -18233057      -18233057       1652.7015     -18231404      -553.64637     -616.57777     -609.23894     -14.223596     -49.432026     -15.310839      11725.386    
      5000   554.65815      0.0025         0.056891961    0.063267168    0.062463051   -600.78026      598.36055      598.36055      598.36055      2.1423423e+08  2.1851046     -18232854      -18232854       1651.6772     -18231202      -561.48        -624.3984      -616.46239     -14.519311     -49.353836     -15.553354      11711.843    
      5100   554.12133      0.00255        0.057686965    0.064062104    0.063198308   -608.42957      598.39039      598.39039      598.39039      2.1426628e+08  2.1847777     -18232647      -18232647       1650.0787     -18230997      -569.32608     -632.24381     -623.71881     -14.80589      -49.298827     -15.78          9704.321     
      5200   553.40576      0.0026         0.058482852    0.064858802    0.063936763   -616.09809      598.42024      598.42024      598.42024      2.1429834e+08  2.1844508     -18232437      -18232437       1647.9479     -18230789      -577.18087     -640.10661     -631.00679     -15.080108     -49.265548     -15.986434      11698.97     
      5300   552.52495      0.00265        0.05927925     0.06565654     0.064678212   -623.78157      598.45008      598.45008      598.45008      2.1433041e+08  2.184124      -18232223      -18232223       1645.3249     -18230577      -585.04071     -647.97967     -638.32432     -15.338561     -49.252363     -16.170092      11727.066    
      5400   551.4919       0.0027         0.06007574     0.066454494    0.065422299   -631.47474      598.47992      598.47992      598.47992      2.1436247e+08  2.1837973     -18232005      -18232005       1642.2487     -18230362      -592.90145     -655.85486     -645.66789     -15.577418     -49.256904     -16.329161      11690.966    
      5500   550.31912      0.00275        0.060871744    0.067251892    0.066168609   -639.17179      598.50977      598.50977      598.50977      2.1439454e+08  2.1834706     -18231783      -18231783       1638.7564     -18230144      -600.7574      -663.72457     -653.0334      -15.794127     -49.276046     -16.462687      11711.16     
      5600   549.0186       0.0028         0.061666747    0.068048121    0.066916818   -646.86796      598.53961      598.53961      598.53961      2.1442661e+08  2.1831441     -18231558      -18231558       1634.8837     -18229923      -608.60348     -671.58274     -660.41765     -15.98663      -49.306435     -16.570629      11734.544    
      5700   547.60181      0.00285        0.062460328    0.068842811    0.067666725   -654.55996      598.56945      598.56945      598.56945      2.1445869e+08  2.1828175     -18231329      -18231329       1630.6647     -18229698      -616.43551     -679.42572     -667.81866     -16.152696     -49.344204     -16.653204      11742.2      
      5800   546.07967      0.0029         0.063252017    0.069635721    0.068418026   -662.24447      598.5993       598.5993       598.5993       2.1449077e+08  2.1824911     -18231095      -18231095       1626.132      -18229469      -624.24887     -687.25113     -675.23342     -16.290154     -49.384789     -16.709896      11703.35     
      5900   544.4626       0.00295        0.064041399    0.070426735    0.069170347   -669.91852      598.62914      598.62914      598.62914      2.1452285e+08  2.1821647     -18230859      -18230859       1621.3166     -18229237      -632.03946     -695.05784     -682.65825     -16.396975     -49.423571     -16.74039       11726.099    
      6000   542.76047      0.003          0.064828345    0.071215828    0.069923489   -677.58093      598.65898      598.65898      598.65898      2.1455494e+08  2.1818383     -18230618      -18230618       1616.248      -18229002      -639.80602     -702.84558     -690.09118     -16.471582     -49.456056     -16.745007      11713.899    
      6100   540.98263      0.00305        0.06561278     0.072002849    0.070677325   -685.23054      598.68883      598.68883      598.68883      2.1458703e+08  2.1815121     -18230373      -18230373       1610.9539     -18228762      -647.54779     -710.61287     -697.53097     -16.513128     -49.478398     -16.724699      11692.326    
      6200   539.13792      0.0031         0.06639484     0.072787504    0.071431717   -692.86639      598.71867      598.71867      598.71867      2.1461912e+08  2.1811859     -18230125      -18230125       1605.4607     -18228519      -655.26612     -718.35681     -704.97624     -16.52143      -49.487359     -16.680521      11701.672    
      6300   537.23472      0.00315        0.067174811    0.073569421    0.072186556   -700.48783      598.74851      598.74851      598.74851      2.1465121e+08  2.1808597     -18229872      -18229872       1599.7933     -18228273      -662.96384     -726.07373     -712.42591     -16.495897     -49.481031     -16.614356      11335.296    
      6400   535.28088      0.0032         0.0679531      0.074348443    0.072941855   -708.09573      598.77836      598.77836      598.77836      2.1468331e+08  2.1805337     -18229616      -18229616       1593.975      -18228022      -670.64495     -733.76209     -719.88014     -16.43618      -49.459121     -16.528041      11725.606    
      6500   533.28361      0.00325        0.068730186    0.075124862    0.073697745   -715.69304      598.8082       598.8082       598.8082       2.1471541e+08  2.1802077     -18229356      -18229356       1588.0275     -18227768      -678.31419     -741.42474     -727.34019     -16.343557     -49.421678     -16.422856      11718.439    
      6600   531.24944      0.0033         0.069506306    0.075899043    0.074454253   -723.28186      598.83804      598.83804      598.83804      2.1474752e+08  2.1798817     -18229092      -18229092       1581.9701     -18227510      -685.97391     -749.06531     -734.80635     -16.220397     -49.368881     -16.299568      11206.49     
      6700   529.18426      0.00335        0.070281522    0.076671463    0.075211591   -730.86463      598.86789      598.86789      598.86789      2.1477962e+08  2.1795559     -18228824      -18228824       1575.8204     -18227248      -693.6247      -756.68851     -742.28069     -16.070154     -49.300492     -16.158836      11729.897    
      6800   527.09338      0.0034         0.071055989    0.077442598    0.075970139   -738.44469      598.89773      598.89773      598.89773      2.1481174e+08  2.17923       -18228552      -18228552       1569.5941     -18226982      -701.26808     -764.29901     -749.76698     -15.896312     -49.216041     -16.001333      11709.899    
      6900   524.98153      0.00345        0.071829806    0.078212649    0.076730173   -746.02394      598.92757      598.92757      598.92757      2.1484385e+08  2.1789043     -18228276      -18228276       1563.3054     -18226713      -708.90507     -771.89883     -757.26793     -15.702128     -49.115216     -15.827631      11715.885    
      7000   522.85299      0.0035         0.072602872    0.078981525    0.077491708   -753.60179      598.95742      598.95742      598.95742      2.1487597e+08  2.1785786     -18227997      -18227997       1556.9669     -18226440      -716.53463     -779.48704     -764.7837      -15.491253     -48.998012     -15.63846       11668.086    
      7100   520.71162      0.00355        0.073375075    0.07974897     0.078254563   -761.17644      598.98726      598.98726      598.98726      2.1490809e+08  2.178253      -18227713      -18227713       1550.5903     -18226162      -724.15569     -787.06114     -772.31248     -15.268431     -48.865778     -15.435584      11366.748    
      7200   518.56094      0.0036         0.074146392    0.080514683    0.079018507   -768.74605      599.0171       599.0171       599.0171       2.1494021e+08  2.1779275     -18227426      -18227426       1544.1859     -18225881      -731.76799     -794.61814     -779.85203     -15.038817     -48.720777     -15.223511      11718.966    
      7300   516.40415      0.00365        0.074916836    0.08127829     0.079783267   -776.30855      599.04695      599.04695      599.04695      2.1497234e+08  2.177602      -18227134      -18227134       1537.7634     -18225597      -739.37169     -802.15435     -787.39962     -14.806935     -48.565298     -15.006642      11679.09     
      7400   514.24416      0.0037         0.07568646     0.082039511    0.080548602   -783.8624       599.07679      599.07679      599.07679      2.1500447e+08  2.1772766     -18226839      -18226839       1531.3313     -18225308      -746.96728     -809.66702     -794.95289     -14.577157     -48.401976     -14.787308      11697.952    
      7500   512.08367      0.00375        0.076455301    0.082798123    0.081314182   -791.40589      599.10663      599.10663      599.10663      2.150366e+08   2.1769512     -18226540      -18226540       1524.8977     -18225015      -754.55515     -817.15394     -802.50858     -14.353297     -48.23393      -14.567396      11683.508    
      7600   509.92517      0.0038         0.077223371    0.083553996    0.082079589   -798.93727      599.13648      599.13648      599.13648      2.1506874e+08  2.1766259     -18226237      -18226237       1518.4701     -18224719      -762.13542     -824.61383     -810.06256     -14.138958     -48.064089     -14.349569      11695.737    
      7700   507.771        0.00385        0.077990694    0.084307175    0.082844511   -806.45573      599.16632      599.16632      599.16632      2.1510088e+08  2.1763007     -18225930      -18225930       1512.0553     -18224418      -769.70831     -832.04712     -817.61176     -13.937414     -47.895916     -14.136958      11687.812    
      7800   505.62335      0.0039         0.07875719     0.085057706    0.083608739   -813.96047      599.19617      599.19617      599.19617      2.1513302e+08  2.1759755     -18225619      -18225619       1505.66       -18224114      -777.27303     -839.45429     -825.1541      -13.751589     -47.733831     -13.933544      11671.021    
      7900   503.48433      0.00395        0.079522725    0.085805673    0.084371952   -821.45028      599.22601      599.22601      599.22601      2.1516517e+08  2.1756504     -18225305      -18225305       1499.2904     -18223805      -784.82827     -846.83615     -832.68642     -13.584242     -47.580973     -13.744348      11703.964    
      8000   501.35596      0.004          0.080287404    0.086551216    0.085133835   -828.92493      599.25585      599.25585      599.25585      2.1519732e+08  2.1753254     -18224986      -18224986       1492.9524     -18223493      -792.37507     -854.19409     -840.20562     -13.437331     -47.439629     -13.574415      11725.574    
      8100   499.24016      0.00405        0.081051554    0.087294528    0.085894173   -836.38541      599.2857       599.2857       599.2857       2.1522947e+08  2.1750004     -18224664      -18224664       1486.652      -18223177      -799.91664     -861.53001     -847.70957     -13.313689     -47.312137     -13.428798      11725.837    
      8200   497.13879      0.0041         0.081815619    0.088035843    0.086652769   -843.83331      599.31554      599.31554      599.31554      2.1526162e+08  2.1746755     -18224338      -18224338       1480.3944     -18222857      -807.45738     -868.84622     -855.19634     -13.216663     -47.200691     -13.31268       11681.836    
      8300   495.0536       0.00415        0.082579892    0.088775486    0.08740946    -851.27013      599.34538      599.34538      599.34538      2.1529378e+08  2.1743507     -18224008      -18224008       1474.1851     -18222533      -815.00017     -876.14593     -862.6643      -13.148775     -47.107352     -13.229991      11746.172    
      8400   492.98627      0.0042         0.083344548    0.089513698    0.088164094   -858.69673      599.37523      599.37523      599.37523      2.1532595e+08  2.1740259     -18223674      -18223674       1468.0289     -18222206      -822.54673     -883.43151     -870.11196     -13.111238     -47.033719     -13.184031      11705.86     
      8500   490.93834      0.00425        0.084109556    0.090250616    0.088916488   -866.11287      599.40507      599.40507      599.40507      2.1535811e+08  2.1737012     -18223336      -18223336       1461.9305     -18221874      -830.09677     -890.70433     -877.53751     -13.104421     -46.980186     -13.178604      11714.649    
      8600   488.91128      0.0043         0.08487476     0.090986344    0.089666354   -873.51742      599.43491      599.43491      599.43491      2.1539028e+08  2.1733766     -18222994      -18222994       1455.8943     -18221539      -837.64875     -897.9654      -884.93811     -13.128076     -46.946045     -13.216748      11684.584    
      8700   486.90648      0.00435        0.085640012    0.091720858    0.090413413   -880.9089       599.46476      599.46476      599.46476      2.1542245e+08  2.173052      -18222649      -18222649       1449.9244     -18221199      -845.2012      -905.21448     -892.31101     -13.181274     -46.929448     -13.299731      11693.956    
      8800   484.92526      0.0044         0.08640522     0.092454095    0.091157422   -888.286        599.4946       599.4946       599.4946       2.1545463e+08  2.1727275     -18222300      -18222300       1444.0246     -18220856      -852.75322     -912.45097     -899.65381     -13.262582     -46.927624     -13.426176      11711.053    
      8900   482.96887      0.00445        0.087170412    0.093186153    0.091898179   -895.64847      599.52444      599.52444      599.52444      2.1548681e+08  2.172403      -18221947      -18221947       1438.1988     -18220509      -860.30507     -919.67582     -906.96451     -13.370326     -46.937554     -13.592481      11710.603    
      9000   481.03846      0.0045         0.087935688    0.093917261    0.092635524   -902.99687      599.55429      599.55429      599.55429      2.1551899e+08  2.1720786     -18221590      -18221590       1432.4504     -18220158      -867.85777     -926.8913      -914.24154     -13.502408     -46.956382     -13.794085      11729.894    
      9100   479.13507      0.00455        0.088700986    0.094647694    0.093369383   -910.33165      599.58413      599.58413      599.58413      2.1555117e+08  2.1717543     -18221230      -18221230       1426.7824     -18219803      -875.41067     -934.10011     -921.48417     -13.6557       -46.981644     -14.025829      11723.907    
      9200   477.25957      0.0046         0.089466056    0.095377612    0.094099818   -917.65272      599.61397      599.61397      599.61397      2.1558336e+08  2.1714301     -18220866      -18220866       1421.1975     -18219444      -882.96133     -941.30385     -928.693       -13.826427     -47.011489     -14.282027      11709.766    
      9300   475.41267      0.00465        0.0902304      0.096106892    0.094826876   -924.9582       599.64382      599.64382      599.64382      2.1561555e+08  2.1711059     -18220497      -18220497       1415.6977     -18219082      -890.50481     -948.50128     -935.8685      -14.010243     -47.045087     -14.557677      11723.375    
      9400   473.59496      0.0047         0.090993456    0.096835237    0.095550505   -932.24508      599.67366      599.67366      599.67366      2.1564774e+08  2.1707818     -18220126      -18220126       1410.2849     -18218715      -898.03558     -955.68948     -943.01017     -14.203735     -47.082005     -14.847776      11747.701    
      9500   471.8069       0.00475        0.091754729    0.09756233     0.096270697   -939.51067      599.7035       599.7035       599.7035       2.1567994e+08  2.1704577     -18219750      -18219750       1404.9604     -18218345      -905.54876     -962.86533     -950.11791     -14.403763     -47.122532     -15.146412      11702.92     
      9600   470.04883      0.0048         0.092513599    0.098287808    0.096987525   -946.75198      599.73335      599.73335      599.73335      2.1571214e+08  2.1701337     -18219371      -18219371       1399.7252     -18217971      -913.03823     -970.02525     -957.19245     -14.607095     -47.166415     -15.446728      11749.379    
      9700   468.32093      0.00485        0.093269572    0.099011392    0.097701053   -953.96666      599.76319      599.76319      599.76319      2.1574435e+08  2.1698098     -18218988      -18218988       1394.5798     -18217593      -920.49911     -977.16647     -964.23442     -14.810474     -47.213336     -15.741619      11713.805    
      9800   466.62323      0.0049         0.094022215    0.099732807    0.098411383   -961.15274      599.79303      599.79303      599.79303      2.1577655e+08  2.1694859     -18218601      -18218601       1389.5243     -18217212      -927.92712     -984.28627     -971.24483     -15.011489     -47.264029     -16.025487      11680.773    
      9900   464.95563      0.00495        0.094770872    0.1004518      0.099118489   -968.30713      599.82288      599.82288      599.82288      2.1580876e+08  2.1691621     -18218211      -18218211       1384.5585     -18216827      -935.31578     -991.38218     -978.22343     -15.208285     -47.319092     -16.293522      11648.163    
     10000   463.31792      0.005          0.095514841    0.10116849     0.099822338   -975.4278       599.85272      599.85272      599.85272      2.1584098e+08  2.1688383     -18217817      -18217817       1379.6817     -18216437      -942.65819     -998.45534     -985.16987     -15.398516     -47.378226     -16.542222      11703.75     
     10100   461.70976      0.00505        0.096253303    0.10188321     0.10052294    -982.51319      599.88256      599.88256      599.88256      2.1587319e+08  2.1685147     -18217420      -18217420       1374.8928     -18216045      -949.94624     -1005.5091     -992.08424     -15.579394     -47.440947     -16.768476      11683.433    
     10200   460.13063      0.0051         0.096985357    0.10259632     0.10122027    -989.56145      599.91241      599.91241      599.91241      2.1590541e+08  2.1681911     -18217018      -18217018       1370.1904     -18215648      -957.17106     -1012.5469     -998.96639     -15.747876     -47.507364     -16.969265      11712.257    
     10300   458.57992      0.00515        0.09771009     0.10330799     0.10191426    -996.56991      599.94225      599.94225      599.94225      2.1593764e+08  2.1678675     -18216614      -18216614       1365.5727     -18215248      -964.32362     -1019.5706     -1005.8155     -15.900307     -47.577552     -17.14261       11717.965    
     10400   457.05689      0.0052         0.098426646    0.10401824     0.10260493    -1003.5359      599.97209      599.97209      599.97209      2.1596986e+08  2.167544      -18216205      -18216205       1361.0374     -18214844      -971.39547     -1026.5802     -1012.6319     -16.033211     -47.650667     -17.287396      11701.585    
     10500   455.56072      0.00525        0.099134303    0.10472724     0.10329226    -1010.4574      600.00194      600.00194      600.00194      2.1600209e+08  2.1672206     -18215794      -18215794       1356.582      -18214437      -978.3795      -1033.5775     -1019.4154     -16.144637     -47.724143     -17.403002      11739.334    
     10600   454.09052      0.0053         0.099832571    0.10543526     0.10397615    -1017.3336      600.03178      600.03178      600.03178      2.1603433e+08  2.1668973     -18215378      -18215378       1352.204      -18214026      -985.27087     -1040.5652     -1026.1648     -16.233099     -47.794825     -17.489177      11718.958    
     10700   452.64532      0.00535        0.1005211      0.10614255     0.10465638    -1024.1633      600.06162      600.06162      600.06162      2.1606656e+08  2.166574      -18214960      -18214960       1347.9005     -18213612      -992.06614     -1047.5456     -1032.8781     -16.297019     -47.859558     -17.545877      11713.765    
     10800   451.22418      0.0054         0.10119975     0.10684922     0.10533285    -1030.946       600.09147      600.09147      600.09147      2.160988e+08   2.1662507     -18214537      -18214537       1343.6686     -18213194      -998.76387     -1054.5198     -1039.5544     -16.334747     -47.915665     -17.572592      11692.02     
     10900   449.82619      0.00545        0.10186862     0.10755524     0.10600567    -1037.6825      600.12131      600.12131      600.12131      2.1613104e+08  2.1659276     -18214112      -18214112       1339.5056     -18212772      -1005.3651     -1061.4877     -1046.1946     -16.345619     -47.961234     -17.568825      11713.323    
     11000   448.45051      0.0055         0.10252808     0.10826062     0.10667508    -1044.3746      600.15115      600.15115      600.15115      2.1616329e+08  2.1656045     -18213683      -18213683       1335.409      -18212347      -1011.8734     -1068.4492     -1052.8012     -16.329661     -47.995079     -17.535657      11708.483    
     11100   447.09641      0.00555        0.1031786      0.10896512     0.10734123    -1051.0238      600.181        600.181        600.181        2.1619554e+08  2.1652815     -18213250      -18213250       1331.3768     -18211919      -1018.2936     -1075.4022     -1059.3755     -16.286898     -48.017711     -17.474934      11716.628    
     11200   445.76332      0.0056         0.10382088     0.10966862     0.10800416    -1057.6319      600.21084      600.21084      600.21084      2.1622779e+08  2.1649585     -18212814      -18212814       1327.4071     -18211487      -1024.6324     -1082.3451     -1065.9182     -16.21724      -48.031082     -17.388789      11693.561    
     11300   444.4509       0.00565        0.10445568     0.11037097     0.10866387    -1064.2011      600.24068      600.24068      600.24068      2.1626004e+08  2.1646356     -18212375      -18212375       1323.4989     -18211052      -1030.8974     -1089.2767     -1072.429      -16.121287     -48.036461     -17.279202      11692.099    
     11400   443.15897      0.0057         0.10508381     0.11107187     0.10932038    -1070.733       600.27053      600.27053      600.27053      2.162923e+08   2.1643128     -18211933      -18211933       1319.6517     -18210613      -1037.0966     -1096.1942     -1078.9082     -16.000744     -48.034755     -17.14761       11662.391    
     11500   441.88754      0.00575        0.10570648     0.11177109     0.10997374    -1077.2311      600.30037      600.30037      600.30037      2.1632456e+08  2.16399       -18211487      -18211487       1315.8656     -18210171      -1043.2419     -1103.0949     -1085.3564     -15.857536     -48.02808      -16.994833      11713.193    
     11600   440.63665      0.0058         0.10632535     0.1124684      0.11062411    -1083.7005      600.33022      600.33022      600.33022      2.1635683e+08  2.1636673     -18211038      -18211038       1312.1407     -18209726      -1049.3496     -1109.9768     -1091.7751     -15.694606     -48.018508     -16.821089      11710.122    
     11700   439.40642      0.00585        0.10694212     0.11316356     0.1112715     -1090.1461      600.36006      600.36006      600.36006      2.163891e+08   2.1633446     -18210586      -18210586       1308.4773     -18209277      -1055.4366     -1116.8375     -1098.1643     -15.516589     -48.008553     -16.627507      11716.63     
     11800   438.19699      0.0059         0.10755833     0.11385652     0.11191613    -1096.5737      600.3899       600.3899       600.3899       2.1642137e+08  2.163022      -18210130      -18210130       1304.8758     -18208825      -1061.5182     -1123.6765     -1104.5263     -15.329053     -48.000478     -16.415129      11728.421    
     11900   437.00856      0.00595        0.10817529     0.1145473      0.11255833    -1102.9885      600.41975      600.41975      600.41975      2.1645364e+08  2.1626995     -18209671      -18209671       1301.3369     -18208370      -1067.6071     -1130.4939     -1110.8644     -15.137409     -47.996737     -16.185158      11683.804    
     12000   435.84127      0.006          0.10879423     0.11523589     0.11319855    -1109.3961      600.44959      600.44959      600.44959      2.1648592e+08  2.1623771     -18209209      -18209209       1297.8609     -18207911      -1073.7156     -1137.2898     -1117.1828     -14.946205     -47.999938     -15.93986       11706.519    
     12100   434.6952       0.00605        0.10941617     0.1159223      0.11383726    -1115.8014      600.47943      600.47943      600.47943      2.165182e+08   2.1620547     -18208744      -18208744       1294.4481     -18207449      -1079.8536     -1144.0641     -1123.4864     -14.758428     -48.011442     -15.682887      11679.157    
     12200   433.57033      0.0061         0.11004187     0.11660636     0.11447474    -1122.2073      600.50928      600.50928      600.50928      2.1655048e+08  2.1617323     -18208275      -18208275       1291.0984     -18206984      -1086.0288     -1150.8153     -1129.7778     -14.577115     -48.031374     -15.417432      11687.341    
     12300   432.46655      0.00615        0.11067198     0.11728786     0.11511108    -1128.6156      600.53912      600.53912      600.53912      2.1658277e+08  2.1614101     -18207803      -18207803       1287.8115     -18206515      -1092.2475     -1157.5412     -1136.058      -14.405937     -48.060144     -15.146216      11694.539    
     12400   431.38361      0.0062         0.11130701     0.11796659     0.11574648    -1135.0278      600.56896      600.56896      600.56896      2.1661506e+08  2.1610879     -18207328      -18207328       1284.5867     -18206043      -1098.5147     -1164.2397     -1142.3289     -14.248689     -48.098732     -14.87273       11701.271    
     12500   430.32117      0.00625        0.11194707     0.11864221     0.11638105    -1141.4436      600.59881      600.59881      600.59881      2.1664736e+08  2.1607658     -18206849      -18206849       1281.423      -18205568      -1104.8317     -1170.9076     -1148.5917     -14.108744     -48.147675     -14.601736      11710.297    
     12600   429.27878      0.0063         0.11259218     0.11931453     0.1170148     -1147.8625      600.62865      600.62865      600.62865      2.1667965e+08  2.1604437     -18206367      -18206367       1278.3189     -18205089      -1111.1984     -1177.5429     -1154.8463     -13.989022     -48.206492     -14.338884      11716.718    
     12700   428.25592      0.00635        0.11324224     0.11998347     0.11764788    -1154.2844      600.65849      600.65849      600.65849      2.1671195e+08  2.1601217     -18205882      -18205882       1275.273      -18204607      -1117.614      -1184.1448     -1161.0943     -13.891334     -48.274295     -14.089768      11702.261    
     12800   427.25202      0.0064         0.11389692     0.1206488      0.11828043    -1160.7078      600.68834      600.68834      600.68834      2.1674426e+08  2.1597997     -18205393      -18205393       1272.2836     -18204121      -1124.0752     -1190.7111     -1167.3371     -13.815509     -48.350195     -13.859861      11731.671    
     12900   426.26647      0.00645        0.1145557      0.12131027     0.11891257    -1167.1307      600.71818      600.71818      600.71818      2.1677656e+08  2.1594779     -18204901      -18204901       1269.3488     -18203632      -1130.5768     -1197.2393     -1173.5758     -13.760302     -48.432931     -13.655214      11691.026    
     13000   425.29868      0.0065         0.11521785     0.12196768     0.11954435    -1173.55        600.74802      600.74802      600.74802      2.1680887e+08  2.159156      -18204406      -18204406       1266.4668     -18203139      -1137.1118     -1203.7274     -1179.811      -13.723986     -48.520294     -13.480705      11710.987    
     13100   424.34806      0.00655        0.11588271     0.12262101     0.12017574    -1179.9637      600.77787      600.77787      600.77787      2.1684119e+08  2.1588343     -18203907      -18203907       1263.6361     -18202643      -1143.6734     -1210.1753     -1186.0424     -13.704597     -48.61007      -13.339039      11728.534    
     13200   423.41398      0.0066         0.11654975     0.12327044     0.12080669    -1186.3702      600.80771      600.80771      600.80771      2.168735e+08   2.1585126     -18203405      -18203405       1260.8545     -18202144      -1150.2566     -1216.5847     -1192.2694     -13.70038      -48.699521     -13.232363      11692.375    
     13300   422.49572      0.00665        0.11721844     0.12391614     0.12143718    -1192.7684      600.83755      600.83755      600.83755      2.1690582e+08  2.158191      -18202900      -18202900       1258.1201     -18201642      -1156.8561     -1222.9573     -1198.4918     -13.709612     -48.784076     -13.162648      11723.103    
     13400   421.59252      0.0067         0.11788845     0.1245584      0.12206741    -1199.1587      600.8674       600.8674       600.8674       2.1693814e+08  2.1578694     -18202391      -18202391       1255.4305     -18201135      -1163.4685     -1229.2958     -1204.7117     -13.730958     -48.858706     -13.130394      11689.187    
     13500   420.70352      0.00675        0.1185596      0.12519768     0.1226978     -1205.5434      600.89724      600.89724      600.89724      2.1697047e+08  2.1575479     -18201879      -18201879       1252.7833     -18200626      -1170.0922     -1235.605      -1210.9331     -13.763084     -48.919281     -13.134537      11712.509    
     13600   419.82778      0.0068         0.11923152     0.12583444     0.12332866    -1211.9241      600.92708      600.92708      600.92708      2.170028e+08   2.1572265     -18201364      -18201364       1250.1754     -18200113      -1176.7237     -1241.8894     -1217.1593     -13.804953     -48.962428     -13.172017      11707.377    
     13700   418.96428      0.00685        0.11990368     0.12646918     0.12396027    -1218.3013      600.95693      600.95693      600.95693      2.1703513e+08  2.1569051     -18200845      -18200845       1247.6041     -18199597      -1183.3573     -1248.1537     -1223.3928     -13.855452     -48.984408     -13.238037      11714.79     
     13800   418.11202      0.0069         0.12057561     0.12710237     0.12459301    -1224.6763      600.98677      600.98677      600.98677      2.1706747e+08  2.1565838     -18200323      -18200323       1245.0662     -18199078      -1189.9887     -1254.4029     -1229.6374     -13.913775     -48.980387     -13.326001      11742.246    
     13900   417.26993      0.00695        0.12124705     0.12773451     0.12522708    -1231.0507      601.01661      601.01661      601.01661      2.170998e+08   2.1562626     -18199798      -18199798       1242.5586     -18198555      -1196.6153     -1260.6416     -1235.8952     -13.979519     -48.945524     -13.429318      11710.857    
     14000   416.43701      0.007          0.12191788     0.12836602     0.12586257    -1237.4257      601.04646      601.04646      601.04646      2.1713215e+08  2.1559414     -18199269      -18199269       1240.0783     -18198029      -1203.2359     -1266.8741     -1242.1669     -14.053016     -48.87736      -13.542067      11717.445    
     14100   415.61231      0.00705        0.1225881      0.12899726     0.12649953    -1243.8026      601.0763       601.0763       601.0763       2.1716449e+08  2.1556203     -18198737      -18198737       1237.6225     -18197499      -1209.8505     -1273.104      -1248.4533     -14.134923     -48.774959     -13.65849       11698.435    
     14200   414.79492      0.0071         0.12325788     0.12962856     0.12713787    -1250.1828      601.10614      601.10614      601.10614      2.1719684e+08  2.1552993     -18198202      -18198202       1235.1884     -18196967      -1216.4607     -1279.3345     -1254.7532     -14.226115     -48.638352     -13.773776      11713.759    
     14300   413.98406      0.00715        0.12392754     0.13026032     0.12777737    -1256.5679      601.13599      601.13599      601.13599      2.1722919e+08  2.1549783     -18197663      -18197663       1232.7738     -18196431      -1223.0698     -1285.5694     -1261.0646     -14.327609     -48.468403     -13.884492      11725.84     
     14400   413.17902      0.0072         0.12459741     0.13089291     0.12841776    -1262.9594      601.16583      601.16583      601.16583      2.1726155e+08  2.1546574     -18197122      -18197122       1230.3766     -18195891      -1229.6808     -1291.8125     -1267.3848     -14.440643     -48.266852     -13.98871       11743.304    
     14500   412.37926      0.00725        0.12526774     0.13152658     0.12905878    -1269.358       601.19567      601.19567      601.19567      2.172939e+08   2.1543365     -18196576      -18196576       1227.995      -18195348      -1236.2965     -1298.0664     -1273.7111     -14.566674     -48.036336     -14.084981      11706.028    
     14600   411.58443      0.0073         0.12593863     0.13216142     0.12970016    -1275.7635      601.22552      601.22552      601.22552      2.1732626e+08  2.1540157     -18196028      -18196028       1225.6282     -18194802      -1242.9176     -1304.3318     -1280.0411     -14.707124     -47.780532     -14.172348      11723.853    
     14700   410.79438      0.00735        0.12660997     0.13279739     0.13034154    -1282.1742      601.25536      601.25536      601.25536      2.1735863e+08  2.153695      -18195476      -18195476       1223.2755     -18194253      -1249.5432     -1310.6083     -1286.371      -14.863022     -47.503915     -14.251856      11710.881    
     14800   410.0092       0.0074         0.12728138     0.13343427     0.13098239    -1288.5864      601.2852       601.2852       601.2852       2.17391e+08    2.1533743     -18194921      -18194921       1220.9374     -18193700      -1256.1696     -1316.8938     -1292.6957     -15.034601     -47.211864     -14.325783      11655.419    
     14900   409.22925      0.00745        0.12795249     0.1340716      0.13162215    -1294.9954      601.31505      601.31505      601.31505      2.1742337e+08  2.1530537     -18194362      -18194362       1218.6148     -18193144      -1262.7929     -1323.1838     -1299.0096     -15.221517     -46.910201     -14.395938      11694.725    
     15000   408.45514      0.0075         0.12862285     0.13470879     0.13225997    -1301.3952      601.34489      601.34489      601.34489      2.1745574e+08  2.1527332     -18193801      -18193801       1216.3097     -18192584      -1269.4088     -1329.4724     -1305.3044     -15.423569     -46.604493     -14.463205      11704.891    
     15100   407.68774      0.00755        0.12929183     0.13534527     0.13289507    -1307.7792      601.37473      601.37473      601.37473      2.1748812e+08  2.1524127     -18193236      -18193236       1214.0245     -18192022      -1276.0111     -1335.754      -1311.5724     -15.640067     -46.29946      -14.52804       11719.974    
     15200   406.9281       0.0076         0.12995885     0.13598063     0.13352679    -1314.1419      601.40458      601.40458      601.40458      2.175205e+08   2.1520923     -18192667      -18192667       1211.7624     -18191456      -1282.5941     -1342.0245     -1317.807      -15.869763     -45.998128     -14.589818      11732.008    
     15300   406.17739      0.00765        0.1306234      0.13661455     0.13415467    -1320.4791      601.43442      601.43442      601.43442      2.1755288e+08  2.1517719     -18192096      -18192096       1209.5269     -18190886      -1289.1527     -1348.2808     -1324.0037     -16.110154     -45.703403     -14.647014      11720.693    
     15400   405.43693      0.0077         0.13128491     0.13724656     0.13477827    -1326.7859      601.46426      601.46426      601.46426      2.1758527e+08  2.1514517     -18191521      -18191521       1207.3219     -18190314      -1295.6813     -1354.5183     -1330.1581     -16.357472     -45.418441     -14.698187      11677.905    
     15500   404.70809      0.00775        0.1319427      0.13787612     0.1353973     -1333.0574      601.49411      601.49411      601.49411      2.1761766e+08  2.1511314     -18190944      -18190944       1205.1516     -18189738      -1302.1733     -1360.7315     -1336.2675     -16.606997     -45.146413     -14.741656      11730.23     
     15600   403.99231      0.0078         0.13259603     0.13850259     0.13601148    -1339.2881      601.52395      601.52395      601.52395      2.1765005e+08  2.1508113     -18190363      -18190363       1203.0201     -18189160      -1308.6211     -1366.9143     -1342.3289     -16.852495     -44.890548     -14.775898      11726.494    
     15700   403.29105      0.00785        0.13324414     0.13912528     0.13662035    -1345.4717      601.5538       601.5538       601.5538       2.1768245e+08  2.1504912     -18189779      -18189779       1200.9319     -18188578      -1315.0174     -1373.0597     -1348.338      -17.086365     -44.654246     -14.800378      11729.724    
     15800   402.60576      0.0079         0.13388646     0.13974366     0.13722351    -1351.6033      601.58364      601.58364      601.58364      2.1771485e+08  2.1501712     -18189192      -18189192       1198.8912     -18187993      -1321.3566     -1379.1627     -1354.2907     -17.301627     -44.439672     -14.815571      11709.192    
     15900   401.93785      0.00795        0.13452275     0.14035754     0.13782092    -1357.6814      601.61348      601.61348      601.61348      2.1774725e+08  2.1498512     -18188602      -18188602       1196.9023     -18187405      -1327.6363     -1385.2212     -1360.1867     -17.493705     -44.246694     -14.821754      11721.48     
     16000   401.28851      0.008          0.13515315     0.14096686     0.1384129     -1363.7072      601.64333      601.64333      601.64333      2.1777966e+08  2.1495313     -18188009      -18188009       1194.9687     -18186814      -1333.8579     -1391.2347     -1366.0291     -17.659381     -44.074565     -14.819379      11689.14     
     16100   400.65877      0.00805        0.135778       0.14157154     0.13899989    -1369.6831      601.67317      601.67317      601.67317      2.1781207e+08  2.1492115     -18187413      -18187413       1193.0934     -18186220      -1340.0247     -1397.2025     -1371.8223     -17.796431     -43.923359     -14.808891      11675.489    
     16200   400.04933      0.0081         0.13639795     0.14217169     0.13958254    -1375.6137      601.70301      601.70301      601.70301      2.1784448e+08  2.1488917     -18186814      -18186814       1191.2786     -18185623      -1346.1431     -1403.1255     -1377.5725     -17.903831     -43.793686     -14.790362      11654.974    
     16300   399.46058      0.00815        0.13701375     0.1427673      0.14016159    -1381.5038      601.73286      601.73286      601.73286      2.1787689e+08  2.148572      -18186212      -18186212       1189.5254     -18185023      -1352.2205     -1409.0037     -1383.2873     -17.981304     -43.685267     -14.764227      11688.057    
     16400   398.89258      0.0082         0.137626       0.14335816     0.14073781    -1387.3574      601.7627       601.7627       601.7627       2.1790931e+08  2.1482523     -18185608      -18185608       1187.834      -18184420      -1358.263      -1414.835      -1388.9742     -18.029398     -43.596933     -14.731769      11679.176    
     16500   398.34514      0.00825        0.1382352      0.14394424     0.14131185    -1393.178       601.79254      601.79254      601.79254      2.1794174e+08  2.1479327     -18185001      -18185001       1186.2038     -18183814      -1364.2754     -1420.6192     -1394.6396     -18.049532     -43.527014     -14.694179      11671.173    
     16600   397.81779      0.0083         0.13884191     0.14452594     0.14188435    -1398.971       601.82239      601.82239      601.82239      2.1797416e+08  2.1476132     -18184390      -18184390       1184.6334     -18183206      -1370.2631     -1426.3601     -1400.2897     -18.043325     -43.473164     -14.652364      11639.673    
     16700   397.30984      0.00835        0.13944674     0.14510381     0.14245582    -1404.7417      601.85223      601.85223      601.85223      2.1800659e+08  2.1472938     -18183777      -18183777       1183.1209     -18182594      -1376.2323     -1432.0632     -1405.9297     -18.011804     -43.432522     -14.607401      11664.214    
     16800   396.82041      0.0084         0.14005016     0.14567827     0.14302666    -1410.4946      601.88207      601.88207      601.88207      2.1803902e+08  2.1469744     -18183162      -18183162       1181.6634     -18181980      -1382.1876     -1437.7327     -1411.5634     -17.956896     -43.402383     -14.560791      11707.411    
     16900   396.3485       0.00845        0.14065248     0.14624964     0.14359726    -1416.2328      601.91192      601.91192      601.91192      2.1807146e+08  2.146655      -18182543      -18182543       1180.2581     -18181363      -1388.1321     -1443.3717     -1417.1948     -17.880221     -43.380452     -14.51303       11702.771    
     17000   395.89301      0.0085         0.14125392     0.14681822     0.14416797    -1421.9594      601.94176      601.94176      601.94176      2.1810389e+08  2.1463358     -18181922      -18181922       1178.9018     -18180743      -1394.0679     -1448.9832     -1422.8272     -17.782899     -43.365799     -14.463728      11686.735    
     17100   395.45285      0.00855        0.14185461     0.14738437     0.14473915    -1427.6771      601.9716       601.9716       601.9716       2.1813634e+08  2.1460166     -18181297      -18181297       1177.591      -18180120      -1399.9961     -1454.5707     -1428.4644     -17.666419     -43.357468     -14.410852      11648.963    
     17200   395.02694      0.0086         0.14245449     0.14794845     0.14531107    -1433.3877      602.00145      602.00145      602.00145      2.1816878e+08  2.1456974     -18180670      -18180670       1176.3228     -18179494      -1405.9165     -1460.1377     -1434.1088     -17.532121     -43.355135     -14.352124      11698.733    
     17300   394.6143       0.00865        0.14305341     0.14851089     0.14588378    -1439.0923      602.03129      602.03129      602.03129      2.1820123e+08  2.1453783     -18180041      -18180041       1175.094      -18178865      -1411.8274     -1465.6886     -1439.7609     -17.381127     -43.358145     -14.286113      11691.193    
     17400   394.21403      0.0087         0.14365131     0.14907206     0.1464572     -1444.7918      602.06113      602.06113      602.06113      2.1823368e+08  2.1450593     -18179408      -18179408       1173.9021     -18178234      -1417.7282     -1471.2269     -1445.4202     -17.215681     -43.366488     -14.211281      11670.32     
     17500   393.82532      0.00875        0.14424804     0.14963228     0.14703133    -1450.4866      602.09098      602.09098      602.09098      2.1826613e+08  2.1447404     -18178772      -18178772       1172.7446     -18177599      -1423.6174     -1476.7558     -1451.0864     -17.03827      -43.381385     -14.126217      11724.356    
     17600   393.44754      0.0088         0.14484342     0.1501918      0.1476061     -1456.1767      602.12082      602.12082      602.12082      2.1829859e+08  2.1444215     -18178134      -18178134       1171.6196     -18176962      -1429.4934     -1482.2778     -1456.759      -16.850964     -43.40357      -14.029655      11704.913    
     17700   393.08012      0.00885        0.14543737     0.15075082     0.14818143    -1461.8624      602.15066      602.15066      602.15066      2.1833105e+08  2.1441026     -18177493      -18177493       1170.5255     -18176322      -1435.3552     -1487.7949     -1462.437      -16.654515     -43.433581     -13.920237      11716.062    
     17800   392.72265      0.0089         0.14602979     0.15130929     0.14875725    -1467.5428      602.18051      602.18051      602.18051      2.1836352e+08  2.1437839     -18176848      -18176848       1169.461      -18175679      -1441.202      -1493.3066     -1468.1199     -16.449307     -43.472072     -13.795905      11652.04     
     17900   392.37482      0.00895        0.14662062     0.15186708     0.14933347    -1473.2171      602.21035      602.21035      602.21035      2.1839598e+08  2.1434652     -18176201      -18176201       1168.4252     -18175033      -1447.033      -1498.8116     -1473.8067     -16.236292     -43.520186     -13.654828      11683.551    
     18000   392.03642      0.009          0.14720994     0.15242404     0.14990988    -1478.8843      602.24019      602.24019      602.24019      2.1842845e+08  2.1431466     -18175552      -18175552       1167.4175     -18174384      -1452.8492     -1504.3083     -1479.4955     -16.017515     -43.579519     -13.495707      11660.04     
     18100   391.70725      0.00905        0.14779779     0.15298019     0.15048621    -1484.5438      602.27004      602.27004      602.27004      2.1846093e+08  2.142828      -18174899      -18174899       1166.4373     -18173733      -1458.6508     -1509.7971     -1485.1835     -15.795394     -43.651359     -13.317941      11684        
     18200   391.38716      0.0091         0.14838432     0.15353589     0.15106242    -1490.197       602.29988      602.29988      602.29988      2.184934e+08   2.1425095     -18174244      -18174244       1165.4841     -18173078      -1464.4393     -1515.2814     -1490.8702     -15.573402     -43.736389     -13.122784      11701.37     
     18300   391.07594      0.00915        0.14896973     0.15409164     0.1516387     -1495.8469      602.32972      602.32972      602.32972      2.1852588e+08  2.142191      -18173586      -18173586       1164.5574     -18172421      -1470.2169     -1520.7662     -1496.5576     -15.355275     -43.834373     -12.911571      11719.353    
     18400   390.77335      0.0092         0.14955407     0.15464783     0.15221499    -1501.4948      602.35957      602.35957      602.35957      2.1855837e+08  2.1418726     -18172925      -18172925       1163.6563     -18171761      -1475.9839     -1526.2554     -1502.2451     -15.143687     -43.943939     -12.685306      11713.787    
     18500   390.4791       0.00925        0.15013725     0.15520463     0.15279101    -1507.14        602.38941      602.38941      602.38941      2.1859085e+08  2.1415543     -18172261      -18172261       1162.7801     -18171098      -1481.7395     -1531.7506     -1507.93       -14.941398     -44.062833     -12.445511      11712.172    
     18600   390.19287      0.0093         0.15071917     0.15576217     0.15336634    -1512.7813      602.41925      602.41925      602.41925      2.1862334e+08  2.1412361     -18171595      -18171595       1161.9277     -18170433      -1487.4825     -1537.2531     -1513.6081     -14.751065     -44.188613     -12.193827      11700.325    
     18700   389.91424      0.00935        0.15129969     0.15632057     0.15394064    -1518.4173      602.4491       602.4491       602.4491       2.1865584e+08  2.1409179     -18170926      -18170926       1161.098      -18169765      -1493.2118     -1542.7641     -1519.276      -14.573994     -44.319061     -11.932214      11676.964    
     18800   389.64276      0.0094         0.15187869     0.15687987     0.15451361    -1524.0469      602.47894      602.47894      602.47894      2.1868833e+08  2.1405997     -18170254      -18170254       1160.2896     -18169094      -1498.9261     -1548.2839     -1524.9307     -14.411236     -44.453068     -11.66319       11672.748    
     18900   389.37797      0.00945        0.15245618     0.15744002     0.15508494    -1529.669       602.50878      602.50878      602.50878      2.1872083e+08  2.1402817     -18169579      -18169579       1159.5011     -18168420      -1504.6255     -1553.8122     -1530.5694     -14.264819     -44.590563     -11.391165      11629.261    
     19000   389.11938      0.0095         0.15303212     0.15800107     0.15565454    -1535.2832      602.53863      602.53863      602.53863      2.1875334e+08  2.1399637     -18168902      -18168902       1158.7311     -18167743      -1510.3096     -1559.3493     -1536.1908     -14.136822     -44.730873     -11.122009      11672.035    
     19100   388.86652      0.00955        0.15360668     0.1585632      0.15622237    -1540.8907      602.56847      602.56847      602.56847      2.1878584e+08  2.1396457     -18168222      -18168222       1157.9781     -18167064      -1515.98       -1564.8972     -1541.7949     -14.028003     -44.872568     -10.862037      11701.195    
     19200   388.61898      0.0096         0.15418023     0.15912669     0.15678834    -1546.4932      602.59831      602.59831      602.59831      2.1881835e+08  2.1393278     -18167539      -18167539       1157.241      -18166381      -1521.6406     -1570.4583     -1547.3806     -13.938203     -45.01354      -10.61757       11714.229    
     19300   388.3764       0.00965        0.15475302     0.15969175     0.15735223    -1552.0914      602.62816      602.62816      602.62816      2.1885086e+08  2.13901       -18166853      -18166853       1156.5186     -18165696      -1527.2936     -1576.035      -1552.9458     -13.866834     -45.152487     -10.394165      11720.944    
     19400   388.13846      0.0097         0.15532502     0.16025838     0.15791364    -1557.6842      602.658        602.658        602.658        2.1888338e+08  2.1386923     -18166164      -18166164       1155.8101     -18165008      -1532.9388     -1581.6273     -1558.4864     -13.813512     -45.288206     -10.196045      11699.231    
     19500   387.90501      0.00975        0.15589595     0.16082635     0.15847194    -1563.2675      602.68785      602.68785      602.68785      2.189159e+08   2.1383746     -18165472      -18165472       1155.1149     -18164317      -1538.5734     -1587.2326     -1563.9965     -13.777727     -45.418404     -10.026846      11743.616    
     19600   387.67603      0.0098         0.15646551     0.16139536     0.15902642    -1568.8372      602.71769      602.71769      602.71769      2.1894842e+08  2.138057      -18164778      -18164778       1154.433      -18163623      -1544.1945     -1592.8484     -1569.4687     -13.758497     -45.54075      -9.8898495      11699.946    
     19700   387.45168      0.00985        0.15703338     0.16196505     0.15957644    -1574.3889      602.74753      602.74753      602.74753      2.1898094e+08  2.1377394     -18164080      -18164080       1153.7649     -18162927      -1549.7989     -1598.4708     -1574.897      -13.75449      -45.653875     -9.7885773      11705.439    
     19800   387.23224      0.0099         0.15759911     0.16253494     0.16012144    -1579.9177      602.77738      602.77738      602.77738      2.1901347e+08  2.1374219     -18163380      -18163380       1153.1115     -18162227      -1555.3823     -1604.0952     -1580.2758     -13.764344     -45.755949     -9.7258991      11733.595    
     19900   387.01807      0.00995        0.15816228     0.16310464     0.16066081    -1585.419       602.80722      602.80722      602.80722      2.19046e+08    2.1371044     -18162677      -18162677       1152.4737     -18161525      -1560.9403     -1609.7177     -1585.5989     -13.78742      -45.844222     -9.704616       11680.468    
     20000   386.80965      0.01           0.15872258     0.16367383     0.16119418    -1590.8894      602.83706      602.83706      602.83706      2.1907854e+08  2.1367871     -18161972      -18161972       1151.8531     -18160820      -1566.4701     -1615.3351     -1590.8629     -13.823436     -45.916065     -9.7257822      1468.0744    
     20100   386.60751      0.01005        0.15927979     0.16424231     0.16172149    -1596.3273      602.86691      602.86691      602.86691      2.1911108e+08  2.1364698     -18161263      -18161263       1151.2512     -18160112      -1571.9693     -1620.9456     -1596.067      -13.871257     -45.969221     -9.7878518      8003.8079    
     20200   386.41211      0.0101         0.15983375     0.16480985     0.16224288    -1601.732       602.89675      602.89675      602.89675      2.1914362e+08  2.1361525     -18160552      -18160552       1150.6693     -18159401      -1577.4364     -1626.5468     -1601.2127     -13.928994     -46.001872     -9.8874418      8606.0253    
     20300   386.22382      0.01015        0.16038435     0.16537614     0.16275864    -1607.103       602.92659      602.92659      602.92659      2.1917616e+08  2.1358353     -18159838      -18159838       1150.1086     -18158688      -1582.8705     -1632.1356     -1606.3029     -13.993814     -46.013165     -10.021005      9115.9947    
     20400   386.04284      0.0102         0.16093164     0.16594099     0.16326926    -1612.4415      602.95644      602.95644      602.95644      2.1920871e+08  2.1355182     -18159121      -18159121       1149.5697     -18157972      -1588.2718     -1637.7103     -1611.3423     -14.063858     -46.003958     -10.186018      9751.7754    
     20500   385.86922      0.01025        0.16147568     0.16650419     0.16377531    -1617.7488      602.98628      602.98628      602.98628      2.1924126e+08  2.1352011     -18158402      -18158402       1149.0526     -18157253      -1593.641      -1643.2686     -1616.3366     -14.138712     -45.975749     -10.379915      10263.967    
     20600   385.70282      0.0103         0.16201652     0.16706548     0.16427734    -1623.026       603.01612      603.01612      603.01612      2.1927381e+08  2.1348841     -18157680      -18157680       1148.5571     -18156532      -1598.9788     -1648.8081     -1621.2912     -14.218136     -45.928679     -10.599574      10714.939    
     20700   385.54332      0.01035        0.16255407     0.16762454     0.16477597    -1628.274       603.04597      603.04597      603.04597      2.1930637e+08  2.1345672     -18156956      -18156956       1148.0822     -18155808      -1604.2839     -1654.3256     -1626.2124     -14.301589     -45.861547     -10.841836      11096.932    
     20800   385.39023      0.0104         0.16308814     0.1681809      0.16527204    -1633.4931      603.07581      603.07581      603.07581      2.1933893e+08  2.1342503     -18156229      -18156229       1147.6263     -18155081      -1609.5548     -1659.8164     -1631.1082     -14.388487     -45.772795     -11.103438      11480.37     
     20900   385.24289      0.01045        0.16361874     0.16873415     0.1657666     -1638.6857      603.10565      603.10565      603.10565      2.193715e+08   2.1339335     -18155499      -18155499       1147.1875     -18154352      -1614.7914     -1665.2766     -1635.9891     -14.477864     -45.661797     -11.38105       11704.771    
     21000   385.10055      0.0105         0.16414597     0.16928397     0.16626078    -1643.8546      603.1355       603.1355       603.1355       2.1940406e+08  2.1336168     -18154767      -18154767       1146.7637     -18153620      -1619.9947     -1670.7029     -1640.8663     -14.568659     -45.528769     -11.670571      11646.963    
     21100   384.96239      0.01055        0.16467004     0.16983018     0.1667556     -1649.0035      603.16534      603.16534      603.16534      2.1943663e+08  2.1333001     -18154033      -18154033       1146.3523     -18152886      -1625.167      -1676.0936     -1645.7499     -14.65923      -45.374047     -11.967747      11695.023    
     21200   384.82755      0.0106         0.16519131     0.17037284     0.16725207    -1654.1367      603.19518      603.19518      603.19518      2.1946921e+08  2.1329835     -18153296      -18153296       1145.9507     -18152150      -1630.3115     -1681.4492     -1650.6496     -14.747586     -45.197837     -12.268868      11677.756    
     21300   384.69522      0.01065        0.16571019     0.1709121      0.16775089    -1659.2588      603.22503      603.22503      603.22503      2.1950178e+08  2.1326669     -18152556      -18152556       1145.5567     -18151410      -1635.4324     -1686.7713     -1655.5725     -14.83311      -45.000036     -12.570487      11659.629    
     21400   384.5646       0.0107         0.1662271      0.17144812     0.1682523     -1664.3721      603.25487      603.25487      603.25487      2.1953436e+08  2.1323504     -18151814      -18151814       1145.1677     -18150669      -1640.5339     -1692.0613     -1660.5211     -14.915935     -44.780021     -12.868761      11733.441    
     21500   384.43502      0.01075        0.16674259     0.17198106     0.16875629    -1669.4792      603.28471      603.28471      603.28471      2.1956695e+08  2.132034      -18151069      -18151069       1144.7818     -18149924      -1645.6214     -1697.3211     -1665.495      -14.995406     -44.537409     -13.160574      11728.188    
     21600   384.30589      0.0108         0.16725714     0.17251124     0.16926278    -1674.5823      603.31456      603.31456      603.31456      2.1959953e+08  2.1317176     -18150322      -18150322       1144.3973     -18149178      -1650.6996     -1702.5535     -1670.4938     -15.069894     -44.274308     -13.443247      11609.634    
     21700   384.17678      0.01085        0.16777119     0.1730391      0.16977173    -1679.6843      603.3444       603.3444       603.3444       2.1963212e+08  2.1314013     -18149572      -18149572       1144.0129     -18148428      -1655.7729     -1707.7632     -1675.5167     -15.137926     -43.993965     -13.713583      11691.432    
     21800   384.04736      0.0109         0.1682851      0.17356506     0.17028296    -1684.787       603.37424      603.37424      603.37424      2.1966472e+08  2.131085      -18148820      -18148820       1143.6275     -18147677      -1660.8448     -1712.9539     -1680.5621     -15.199075     -43.699974     -13.966669      11659.888    
[...]
    871900   334.72179      0.43595        0.053770818    0.054220757    0.05271899    -528.69665      857.07315      857.07315      857.07315      6.2958398e+08  0.74354527    -12051100      -12051100       996.74433     -12050103      -530.67671     -535.11727     -520.29598      3.4962139     -0.94572334     5.640101       11112.373    
    872000   334.68179      0.436          0.053762377    0.054212352    0.052713904   -528.6245       857.10299      857.10299      857.10299      6.2964975e+08  0.7434676     -12050616      -12050616       996.62521     -12049620      -530.5934      -535.03432     -520.24579      3.4385539     -1.0091093      5.6248883      11126.763    
    872100   334.64131      0.43605        0.053753498    0.05420361     0.052707341   -528.54494      857.13283      857.13283      857.13283      6.2971552e+08  0.74338995    -12050132      -12050132       996.50469     -12049136      -530.50578     -534.94803     -520.18101      3.3825801     -1.0766981      5.6113208      11124.125    
    872200   334.60094      0.4361         0.053744127    0.054194596    0.052699279   -528.45794      857.16268      857.16268      857.16268      6.297813e+08   0.7433123     -12049648      -12049648       996.38446     -12048652      -530.41329     -534.85907     -520.10145      3.3293549     -1.1480443      5.5990323      11131.065    
    872300   334.56123      0.43615        0.053734258    0.05418538     0.0526897     -528.36364      857.19252      857.19252      857.19252      6.2984708e+08  0.74323467    -12049164      -12049164       996.26622     -12048168      -530.31589     -534.76812     -520.00691      3.2799528     -1.2225806      5.5877201      11138.097    
    872400   334.52273      0.4362         0.053723898    0.05417603     0.052678636   -528.2624       857.22237      857.22237      857.22237      6.2991287e+08  0.74315705    -12048680      -12048680       996.15158     -12047684      -530.21364     -534.67584     -519.89771      3.2353398     -1.2997638      5.5769756      11125.515    
    872500   334.48594      0.43625        0.053713062    0.054166595    0.052666182   -528.15474      857.25221      857.25221      857.25221      6.2997866e+08  0.74307944    -12048197      -12048197       996.042       -12047201      -530.10671     -534.58273     -519.7748       3.1962322     -1.3790297      5.5664857      11122.17     
    872600   334.45124      0.4363         0.053701794    0.054157135    0.052652502   -528.04156      857.28205      857.28205      857.28205      6.3004446e+08  0.74300184    -12047713      -12047713       995.93869     -12046717      -529.9955      -534.48937     -519.6398       3.1631029     -1.4596573      5.5559735      11151.231    
    872700   334.41896      0.43635        0.053690153    0.054147709    0.052637794   -527.92386      857.3119       857.3119       857.3119       6.3011026e+08  0.74292425    -12047229      -12047229       995.84255     -12046233      -529.88061     -534.39633     -519.49464      3.1363782     -1.5407001      5.5450988      11157.403    
    872800   334.38931      0.4364         0.053678195    0.054138369    0.052622284   -527.80278      857.34174      857.34174      857.34174      6.3017606e+08  0.74284667    -12046745      -12046745       995.75427     -12045750      -529.7626      -534.30416     -519.34157      3.1163402     -1.6212721      5.5334997      11122.152    
    872900   334.36246      0.43645        0.053665953    0.054129151    0.052606204   -527.67927      857.37158      857.37158      857.37158      6.3024187e+08  0.7427691     -12046262      -12046262       995.6743      -12045266      -529.64177     -534.21319     -519.18286      3.1030431     -1.7007427      5.5206316      11140.008    
    873000   334.33846      0.4365         0.053653442    0.054120078    0.052589814   -527.55435      857.40143      857.40143      857.40143      6.3030769e+08  0.74269154    -12045778      -12045778       995.60285     -12044783      -529.5183      -534.12364     -519.02111      3.0963857     -1.7786673      5.5061384      11114.135    
    873100   334.31731      0.43655        0.053640661    0.054111118    0.052573398   -527.42882      857.43127      857.43127      857.43127      6.3037351e+08  0.74261399    -12045295      -12045295       995.53987     -12044299      -529.39216     -534.03521     -518.8591       3.0960475     -1.8546076      5.4899539      11089.346    
    873200   334.2989       0.4366         0.053627625    0.054102195    0.052557226   -527.30338      857.46111      857.46111      857.46111      6.3043933e+08  0.74253646    -12044811      -12044811       995.48505     -12043816      -529.26351     -533.94715     -518.69949      3.1015807     -1.9281145      5.4721449      11154.11     
    873300   334.28307      0.43665        0.053614366    0.054093205    0.052541518   -527.17852      857.49096      857.49096      857.49096      6.3050516e+08  0.74245893    -12044328      -12044328       995.43789     -12043333      -529.13265     -533.85842     -518.54447      3.1124059     -1.9984229      5.4528215      11120.773    
    873400   334.26958      0.4367         0.053600901    0.05408402     0.052526434   -527.05438      857.5208       857.5208       857.5208       6.3057099e+08  0.74238142    -12043845      -12043845       995.39772     -12042849      -528.99976     -533.76778     -518.39559      3.127979      -2.0647065      5.4321453      11140.211    
    873500   334.25819      0.43675        0.053587228    0.054074493    0.052512046   -526.93073      857.55064      857.55064      857.55064      6.3063683e+08  0.74230392    -12043362      -12043362       995.36383     -12042366      -528.86482     -533.67375     -518.2536       3.1475265     -2.1261017      5.4101809      11131.453    
    873600   334.2487       0.4368         0.053573345    0.054064469    0.05249836    -526.80705      857.58049      857.58049      857.58049      6.3070267e+08  0.74222642    -12042879      -12042879       995.33554     -12041883      -528.72781     -533.57482     -518.11853      3.170266      -2.1817747      5.38694        11144.563    
    873700   334.24088      0.43685        0.053559223    0.054053812    0.052485361   -526.68277      857.61033      857.61033      857.61033      6.3076852e+08  0.74214894    -12042396      -12042396       995.31227     -12041400      -528.58843     -533.46964     -517.99024      3.1956176     -2.2311508      5.3626635      11138.482    
    873800   334.23457      0.4369         0.053544826    0.054042445    0.052473031   -526.55745      857.64017      857.64017      857.64017      6.3083437e+08  0.74207147    -12041913      -12041913       995.29346     -12040917      -528.44634     -533.35746     -517.86855      3.2231813     -2.2737879      5.3379169      11128.364    
    873900   334.22958      0.43695        0.053530115    0.054030352    0.05246133    -526.43078      857.67002      857.67002      857.67002      6.3090023e+08  0.74199401    -12041430      -12041430       995.27863     -12040435      -528.30116     -533.23811     -517.75307      3.252674      -2.3094824      5.3133535      11126.791    
    874000   334.2258       0.437          0.053515005    0.054017532    0.052450212   -526.30232      857.69986      857.69986      857.69986      6.3096609e+08  0.74191656    -12040947      -12040947       995.26737     -12039952      -528.15204     -533.11159     -517.64334      3.2839692     -2.3381717      5.2897239      11132.169    
    874100   334.22314      0.43705        0.053499401    0.054003981    0.052439601   -526.17151      857.7297       857.7297       857.7297       6.3103195e+08  0.74183912    -12040465      -12040465       995.25944     -12039470      -527.99804     -532.97786     -517.53863      3.3169409     -2.3599619      5.2678407      11103.678    
    874200   334.22158      0.4371         0.053483274    0.053989769    0.052429416   -526.03819      857.75955      857.75955      857.75955      6.3109782e+08  0.74176169    -12039982      -12039982       995.25479     -12038987      -527.83888     -532.8376      -517.4381       3.3513774     -2.3750007      5.2486569      11124.916    
    874300   334.22114      0.43715        0.053466674    0.053975       0.052419595   -525.90269      857.78939      857.78939      857.78939      6.311637e+08   0.74168427    -12039500      -12039500       995.25349     -12038505      -527.67505     -532.69183     -517.34118      3.3868377     -2.383474       5.2331801      11129.801    
    874400   334.22189      0.4372         0.053449694    0.053959823    0.052410095   -525.76564      857.81923      857.81923      857.81923      6.3122957e+08  0.74160687    -12039018      -12039018       995.25572     -12038023      -527.50746     -532.54205     -517.24742      3.4227487     -2.3856403      5.222291       11112.642    
    874500   334.22389      0.43725        0.053432468    0.053944428    0.052400902   -525.62809      857.84908      857.84908      857.84908      6.3129546e+08  0.74152947    -12038536      -12038536       995.26167     -12037541      -527.33746     -532.39012     -517.15669      3.4583718     -2.3819055      5.2168134      11114.956    
    874600   334.22719      0.4373         0.053415118    0.053928968    0.052392026   -525.49095      857.87892      857.87892      857.87892      6.3136135e+08  0.74145209    -12038054      -12038054       995.27149     -12037059      -527.16623     -532.23753     -517.0691       3.4930272     -2.3726319      5.2174459      11161.107    
    874700   334.23183      0.43735        0.053397725    0.053913529    0.052383494   -525.35487      857.90876      857.90876      857.90876      6.3142724e+08  0.74137471    -12037572      -12037572       995.28531     -12036577      -526.99457     -532.08516     -516.98489      3.5263046     -2.3582158      5.2246615      11152.074    
    874800   334.23783      0.4374         0.053380369    0.053898177    0.052375298   -525.22031      857.93861      857.93861      857.93861      6.3149314e+08  0.74129735    -12037090      -12037090       995.30318     -12036095      -526.82328     -531.93365     -516.904        3.557841      -2.3392032      5.238643       11111.716    
    874900   334.24519      0.43745        0.053363149    0.053882967    0.052367408   -525.08767      857.96845      857.96845      857.96845      6.3155904e+08  0.74122       -12036609      -12036609       995.3251      -12035614      -526.65333     -531.78354     -516.82613      3.5870463     -2.3162673      5.2592374      11157.953    
    875000   334.25389      0.4375         0.053346157    0.053867969    0.052359779   -524.95733      857.99829      857.99829      857.99829      6.3162494e+08  0.74114265    -12036127      -12036127       995.35102     -12035132      -526.48563     -531.63552     -516.75084      3.6131626     -2.290063       5.2859308      11149.222    
    875100   334.26389      0.43755        0.05332951     0.053853258    0.05235239    -524.82987      858.02814      858.02814      858.02814      6.3169086e+08  0.74106532    -12035646      -12035646       995.38077     -12034651      -526.32134     -531.49034     -516.67792      3.6354108     -2.2610698      5.3180581      11135.68     
    875200   334.27508      0.4376         0.053313331    0.053838887    0.052345241   -524.70584      858.05798      858.05798      858.05798      6.3175677e+08  0.740988      -12035165      -12035165       995.41411     -12034169      -526.16167     -531.3485      -516.60737      3.6531528     -2.2297771      5.3547532      11162.563    
    875300   334.28738      0.43765        0.053297751    0.053824873    0.052338343   -524.5858       858.08782      858.08782      858.08782      6.3182269e+08  0.74091069    -12034684      -12034684       995.45072     -12033688      -526.00791     -531.2102      -516.53928      3.6657646     -2.196747       5.3950742      11126.329    
    875400   334.30063      0.4377         0.053282914    0.05381123     0.052331745   -524.4704       858.11767      858.11767      858.11767      6.3188862e+08  0.74083339    -12034203      -12034203       995.4902      -12033207      -525.86147     -531.07555     -516.47417      3.6728656     -2.1625211      5.4381677      11108.768    
    875500   334.31468      0.43775        0.053268958    0.053797944    0.052325511   -524.36027      858.14751      858.14751      858.14751      6.3195455e+08  0.74075611    -12033722      -12033722       995.53204     -12032726      -525.72374     -530.94443     -516.41264      3.6745327     -2.1274378      5.4830219      11123.712    
    875600   334.32934      0.4378         0.053255999    0.053784991    0.052319679   -524.25584      858.17735      858.17735      858.17735      6.3202048e+08  0.74067883    -12033241      -12033241       995.57569     -12032245      -525.59585     -530.81659     -516.35508      3.6711348     -2.0915224      5.5284864      11132.089    
    875700   334.34441      0.43785        0.053244105    0.053772353    0.052314262   -524.15732      858.2072       858.2072       858.2072       6.3208642e+08  0.74060156    -12032760      -12032760       995.62057     -12031764      -525.47846     -530.69186     -516.30163      3.6630352     -2.0546961      5.573387       11114.613    
    875800   334.35972      0.4379         0.053233271    0.053759999    0.052309229   -524.06447      858.23704      858.23704      858.23704      6.3215236e+08  0.74052431    -12032279      -12032279       995.66616     -12031283      -525.37154     -530.56993     -516.25195      3.6505072     -2.0168645      5.6168595      11145.229    
    875900   334.37513      0.43795        0.05322345     0.053747921    0.052304516   -523.97693      858.26688      858.26688      858.26688      6.3221831e+08  0.74044706    -12031798      -12031798       995.71205     -12030803      -525.27461     -530.45074     -516.20544      3.6339796     -1.9779586      5.6582315      11138.939    
    876000   334.39053      0.438          0.053214564    0.053736129    0.052300064   -523.89426      858.29673      858.29673      858.29673      6.3228426e+08  0.74036983    -12031318      -12031318       995.75791     -12030322      -525.18692     -530.33436     -516.1615       3.6139971     -1.9379743      5.6970413      11138.566    
    876100   334.40585      0.43805        0.053206533    0.053724626    0.052295813   -523.81601      858.32657      858.32657      858.32657      6.3235022e+08  0.7402926     -12030837      -12030837       995.8035      -12029841      -525.10766     -530.22084     -516.11954      3.5912029     -1.8968067      5.7330872      11123.477    
    876200   334.42102      0.4381         0.053199292    0.053713413    0.052291671   -523.74168      858.35642      858.35642      858.35642      6.3241618e+08  0.74021539    -12030356      -12030356       995.84871     -12029360      -525.03619     -530.11017     -516.07866      3.5663631     -1.8542115      5.7660676      11136.047    
    876300   334.43606      0.43815        0.053192776    0.053702493    0.052287543   -523.67073      858.38626      858.38626      858.38626      6.3248214e+08  0.74013819    -12029876      -12029876       995.89347     -12028880      -524.97188     -530.0024      -516.03793      3.5402253     -1.8100922      5.795751       11142.37     
    876400   334.45095      0.4382         0.053186941    0.053691869    0.052283361   -523.60283      858.4161       858.4161       858.4161       6.3254812e+08  0.740061      -12029395      -12029395       995.93782     -12028399      -524.91429     -529.89754     -515.99666      3.5135086     -1.7645005      5.8220422      11148.404    
    876500   334.46572      0.43825        0.053181778    0.053681579    0.052279092   -523.53795      858.44595      858.44595      858.44595      6.3261409e+08  0.73998381    -12028915      -12028915       995.98181     -12027919      -524.86334     -529.79599     -515.95453      3.4869602     -1.7174803      5.8449491      11176.791    
    876600   334.48038      0.4383         0.053177286    0.053671682    0.052274732   -523.47627      858.47579      858.47579      858.47579      6.3268007e+08  0.73990664    -12028434      -12028434       996.02546     -12027438      -524.819       -529.69832     -515.91149      3.4612744     -1.6693053      5.8646656      11139.347    
    876700   334.49494      0.43835        0.053173458    0.053662222    0.052270315   -523.41803      858.50563      858.50563      858.50563      6.3274605e+08  0.73982948    -12027954      -12027954       996.0688      -12026958      -524.78122     -529.60496     -515.8679       3.4368222     -1.6205954      5.8814146      11136.437    
    876800   334.50937      0.4384         0.053170279    0.05365322     0.052265887   -523.36339      858.53548      858.53548      858.53548      6.3281204e+08  0.73975234    -12027473      -12027473       996.11179     -12026477      -524.74985     -529.51611     -515.8242       3.4137572     -1.5724005      5.8953688      11136.829    
    876900   334.52365      0.43845        0.053167722    0.053644684    0.052261519   -523.31253      858.56532      858.56532      858.56532      6.3287804e+08  0.7396752     -12026993      -12026993       996.15431     -12025997      -524.72462     -529.43187     -515.78109      3.3921161     -1.5258293      5.906425       11147.419    
    877000   334.5377       0.4385         0.053165748    0.053636646    0.05225731    -523.26574      858.59516      858.59516      858.59516      6.3294404e+08  0.73959807    -12026513      -12026513       996.19616     -12025516      -524.70514     -529.35254     -515.73955      3.371897      -1.4818974      5.9145541      11123.915    
    877100   334.55143      0.43855        0.05316431     0.053629146    0.052253322   -523.22322      858.62501      858.62501      858.62501      6.3301004e+08  0.73952095    -12026032      -12026032       996.23703     -12025036      -524.69094     -529.27852     -515.70019      3.3532138     -1.4414916      5.9199266      11144.911    
    877200   334.56471      0.4386         0.053163374    0.053622247    0.052249644   -523.18534      858.65485      858.65485      858.65485      6.3307605e+08  0.73944385    -12025552      -12025552       996.27656     -12024556      -524.68171     -529.21043     -515.66389      3.3361623     -1.4053475      5.9226898      11094.73     
    877300   334.5774       0.43865        0.053162903    0.053616018    0.052246342   -523.15244      858.68469      858.68469      858.68469      6.3314206e+08  0.73936675    -12025072      -12025072       996.31435     -12024075      -524.67706     -529.14896     -515.6313       3.3208916     -1.3739857      5.923119       11138.27     
    877400   334.58936      0.4387         0.053162854    0.053610512    0.052243459   -523.12468      858.71454      858.71454      858.71454      6.3320807e+08  0.73928967    -12024591      -12024591       996.34998     -12023595      -524.67658     -529.09462     -515.60285      3.307701      -1.3479036      5.9216307      11140.7      
    877500   334.60045      0.43875        0.053163188    0.053605781    0.052241054   -523.10231      858.74438      858.74438      858.74438      6.3327409e+08  0.7392126     -12024111      -12024111       996.38301     -12023114      -524.67987     -529.04792     -515.57912      3.2969796     -1.3276555      5.9186565      11125.81     
    877600   334.61052      0.4388         0.053163834    0.053601854    0.052239168   -523.08531      858.77422      858.77422      858.77422      6.3334012e+08  0.73913553    -12023631      -120