LAMMPS (23 Jun 2022 - Update 1)
OMP_NUM_THREADS environment is not set. Defaulting to 1 thread. (src/comm.cpp:98)
  using 1 OpenMP thread(s) per MPI task
###

# Read restart info
read_restart ${read_res}
read_restart ./800200/equpmf71.res
Reading restart file ...
  restart file = 23 Jun 2022, LAMMPS = 23 Jun 2022
  restoring atom style atomic from restart
  orthogonal box = (2217.0249 2217.0249 2217.0249) to (2782.9751 2782.9751 2782.9751)
  2 by 1 by 2 MPI processor grid
  restoring pair style table from restart
  1000 atoms
  read_restart CPU = 0.449 seconds

# Settings
pair_style table/pgn spline 9941
pair_coeff 1 1 N20.txt DE_GNP 147.89 72.9   # 1.35 * r
pair_coeff 2 2 N100.txt DE_GNP 473.9 111.78
WARNING: 3 of 9941 force values in table DE_GNP are inconsistent with -dE/dr.
WARNING:  Should only be flagged at inflection points (src/pair_table_pgn.cpp:478)
pair_coeff 1 2 mixed_potential.txt DE_GNP 391.2 92.95
WARNING: 1562 of 9941 force values in table DE_GNP are inconsistent with -dE/dr.
WARNING:  Should only be flagged at inflection points (src/pair_table_pgn.cpp:478)

# Neighbor list
neighbor 2.0 bin
neigh_modify delay 0 every 1 check no once yes

# Temperature
variable T equal ${Temp}
variable T equal 300

# Deformation
reset_timestep 0
variable tmp equal "lx"
variable L0 equal ${tmp}
variable L0 equal 565.950272299433
variable strain equal "(lx - v_L0)/v_L0"
variable stp equal "step"
variable tmpe equal "temp"
variable p1 equal "v_strain"
variable p2 equal "-pxx*1.01325/10000"
variable p3 equal "-pyy*1.01325/10000"
variable p4 equal "-pzz*1.01325/10000"
variable p5 equal "lx"
variable p6 equal "ly"
variable p7 equal "lz"
variable p8 equal "press"
variable p9 equal "epair"
variable p10 equal "etotal"

# Thermo
thermo_style custom step temp v_p1 v_p2 v_p3 v_p4 press lx ly lz vol density epair pe ke etotal pxx pyy pzz pxy pxz pyz spcpu
thermo ${ts_save}
thermo 100

# Dump
# dump 1 all custom 2000 ./${N20}${N100}/tensile/trajectory/trajectory_${usic}_${trial}_*.tensile.custom id type x y z ix iy iz
# dump_modify 1 sort id
dump 2 all cfg 20000 ./${N20}${N100}/tensile/trajectory/dumpten.tens_${usic}_${trial}_*.cfg mass type xs ys zs fx fy fz
dump 2 all cfg 20000 ./800${N100}/tensile/trajectory/dumpten.tens_${usic}_${trial}_*.cfg mass type xs ys zs fx fy fz
dump 2 all cfg 20000 ./800200/tensile/trajectory/dumpten.tens_${usic}_${trial}_*.cfg mass type xs ys zs fx fy fz
dump 2 all cfg 20000 ./800200/tensile/trajectory/dumpten.tens_2_${trial}_*.cfg mass type xs ys zs fx fy fz
dump 2 all cfg 20000 ./800200/tensile/trajectory/dumpten.tens_2_5_*.cfg mass type xs ys zs fx fy fz
dump_modify 2 element N20 N100

fix 1 all nvt temp ${T} ${T} 100
fix 1 all nvt temp 300 ${T} 100
fix 1 all nvt temp 300 300 100
fix 2 all deform 1 x erate ${strain_rate} y erate ${strain_rate} z erate ${strain_rate} units box
fix 2 all deform 1 x erate 5e-6 y erate ${strain_rate} z erate ${strain_rate} units box
fix 2 all deform 1 x erate 5e-6 y erate 5e-6 z erate ${strain_rate} units box
fix 2 all deform 1 x erate 5e-6 y erate 5e-6 z erate 5e-6 units box
fix             def1 all print ${ts_save} "${p1} ${p2} ${p3} ${p4}" file ./tensile/tensile${N20}${N100}_${usic}_${trial}.txt screen no
fix             def1 all print 100 "${p1} ${p2} ${p3} ${p4}" file ./tensile/tensile${N20}${N100}_${usic}_${trial}.txt screen no
fix             def1 all print 100 "${p1} ${p2} ${p3} ${p4}" file ./tensile/tensile800${N100}_${usic}_${trial}.txt screen no
fix             def1 all print 100 "${p1} ${p2} ${p3} ${p4}" file ./tensile/tensile800200_${usic}_${trial}.txt screen no
fix             def1 all print 100 "${p1} ${p2} ${p3} ${p4}" file ./tensile/tensile800200_2_${trial}.txt screen no
fix             def1 all print 100 "${p1} ${p2} ${p3} ${p4}" file ./tensile/tensile800200_2_5.txt screen no

timestep       		${ts}
timestep       		0.1
run				${steps_tensile}
run				6000000
Generated 0 of 1 mixed pair_coeff terms from geometric mixing rule
Unused restart file global fix info:
  fix style: npt, fix ID: 5
Neighbor list info ...
  update every 1 steps, delay 0 steps, check no
  max neighbors/atom: 2000, page size: 100000
  master list distance cutoff = 113.78
  ghost atom cutoff = 113.78
  binsize = 56.89, bins = 10 10 10
  1 neighbor lists, perpetual/occasional/extra = 1 0 0
  (1) pair table/pgn, perpetual
      attributes: half, newton on
      pair build: half/bin/atomonly/newton
      stencil: half/bin/3d
      bin: standard
Per MPI rank memory allocation (min/avg/max) = 3.858 | 3.858 | 3.859 Mbytes
   Step          Temp           v_p1           v_p2           v_p3           v_p4          Press            Lx             Ly             Lz           Volume        Density         E_pair         PotEng         KinEng         TotEng          Pxx            Pyy            Pzz            Pxy            Pxz            Pyz           S/CPU     
         0   304.93081      0              0.021265954    0.0107695      0.028849603   -200.29627      565.95027      565.95027      565.95027      1.8127371e+08  2.3990252     -13061093      -13061093       908.03189     -13060185      -209.87865     -106.28671     -284.72345     -55.234334      13.72751      -73.71766       0            
       100   305.83313      5e-05          0.022424825    0.012024441    0.030030186   -212.1209       565.97857      565.97857      565.97857      1.813009e+08   2.3986654     -13061013      -13061013       910.71882     -13060103      -221.31581     -118.67201     -296.37489     -55.092172      13.784884     -73.675421      6780.4085    
       200   307.3776       0.0001         0.023588033    0.013279897    0.031215681   -223.97767      566.00687      566.00687      566.00687      1.813281e+08   2.3983057     -13060930      -13060930       915.31799     -13060015      -232.79579     -131.0624      -308.07482     -54.967708      13.811327     -73.681968      7334.2927    
       300   309.52172      0.00015        0.024740614    0.0145186      0.032390695   -235.70987      566.03516      566.03516      566.03516      1.8135529e+08  2.397946      -13060845      -13060845       921.70284     -13059923      -244.17087     -143.28744     -319.6713      -54.85966       13.806456     -73.731696      7882.2872    
       400   312.20463      0.0002         0.025879555    0.015736419    0.033552207   -247.28409      566.06346      566.06346      566.06346      1.8138249e+08  2.3975864     -13060757      -13060757       929.69209     -13059827      -255.41135     -155.30638     -331.13453     -54.764351      13.771317     -73.818703      8385.0748    
       500   315.34597      0.00025        0.027001855    0.016929482    0.034697156   -258.66763      566.09176      566.09176      566.09176      1.814097e+08   2.3972269     -13060666      -13060666       939.04644     -13059727      -266.48759     -167.08099     -342.4343      -54.677653      13.7085       -73.93714       8830.217     
       600   318.84642      0.0003         0.028104695    0.018094107    0.035822322   -269.82852      566.12006      566.12006      566.12006      1.814369e+08   2.3968674     -13060573      -13060573       949.47019     -13059624      -277.37178     -178.57495     -353.53883     -54.596482      13.62114      -74.081221      9279.0089    
       700   322.5936       0.00035        0.029185586    0.019227122    0.036924674   -280.73816      566.14835      566.14835      566.14835      1.8146411e+08  2.396508      -13060478      -13060478       960.62864     -13059517      -288.03934     -189.75694     -364.4182      -54.518824      13.513609     -74.245283      9794.186     
       800   326.48015      0.0004         0.030242364    0.020326148    0.038001584   -291.37296      566.17665      566.17665      566.17665      1.8149132e+08  2.3961487     -13060380      -13060380       972.20215     -13059408      -298.46893     -200.60348     -375.04648     -54.442094      13.389652     -74.424642      10329.759    
       900   330.44328      0.00045        0.031273152    0.021389426    0.039050953   -301.71406      566.20495      566.20495      566.20495      1.8151854e+08  2.3957894     -13060280      -13060280       984.00365     -13059296      -308.64201     -211.09722     -385.40294     -54.363359      13.25273      -74.613806      10734.758    
      1000   334.52393      0.0005         0.032276454    0.02241575     0.040071184   -311.74731      566.23325      566.23325      566.23325      1.8154576e+08  2.3954303     -13060179      -13060179       996.15515     -13059182      -318.54384     -221.22625     -395.47184     -54.280096      13.105514     -74.806109      10845.126    
      1100   338.90896      0.00055        0.033251134    0.023404356    0.041061148   -321.46275      566.26154      566.26154      566.26154      1.8157297e+08  2.3950712     -13060075      -13060075       1009.213      -13059066      -328.16318     -230.98303     -405.24202     -54.189669      12.949019     -74.994681      11298.092    
      1200   343.88207      0.0006         0.034196298    0.024354909    0.042020222   -330.85428      566.28984      566.28984      566.28984      1.816002e+08   2.3947122     -13059969      -13059969       1024.0221     -13058945      -337.49122     -240.36427     -414.70735     -54.089695      12.785052     -75.174194      11297.8      
      1300   349.66185      0.00065        0.03511159     0.025267871    0.042948406   -339.92225      566.31814      566.31814      566.31814      1.8162742e+08  2.3943532     -13059862      -13059862       1041.2333     -13058821      -346.52445     -249.37449     -423.86781     -53.978474      12.617761     -75.340474      11326.85     
      1400   356.25151      0.0007         0.035997247    0.026144508    0.043846228   -348.67335      566.34644      566.34644      566.34644      1.8165465e+08  2.3939943     -13059753      -13059753       1060.8562     -13058692      -355.26521     -258.02623     -432.72862     -53.854615      12.452689     -75.489409      11338.304    
      1500   363.44211      0.00075        0.036853856    0.02698644     0.044714638   -357.11797      566.37474      566.37474      566.37474      1.8168188e+08  2.3936355     -13059643      -13059643       1082.2685     -13058560      -363.71928     -266.33546     -441.29916     -53.716838      12.296121     -75.618062      11303.822    
      1600   370.93043      0.0008         0.037682188    0.027795515    0.045554893   -365.26884      566.40303      566.40303      566.40303      1.8170911e+08  2.3932768     -13059531      -13059531       1104.5675     -13058426      -371.89428     -274.32041     -449.59184     -53.564384      12.154057     -75.723738      11345.471    
      1700   378.4326       0.00085        0.038483377    0.028573766    0.04636845    -373.14119      566.43133      566.43133      566.43133      1.8173635e+08  2.3929181     -13059418      -13059418       1126.9077     -13058291      -379.8014      -282.00114     -457.62103     -53.397906      12.031275     -75.804461      11340.41     
      1800   385.75864      0.0009         0.039259016    0.029323537    0.047157072   -380.75376      566.45963      566.45963      566.45963      1.8176359e+08  2.3925595     -13059304      -13059304       1148.7234     -13058155      -387.45636     -289.40081     -465.40412     -53.218821      11.931742     -75.857639      11313.634    
      1900   392.85175      0.00095        0.040010904    0.030047554    0.047922917   -388.12854      566.48793      566.48793      566.48793      1.8179083e+08  2.392201      -13059189      -13059189       1169.8454     -13058019      -394.87692     -296.5463      -472.96242     -53.029996      11.858483     -75.880196      11322.295    
      2000   399.77041      0.001          0.040741022    0.030748741    0.048668352   -395.28947      566.51622      566.51622      566.51622      1.8181807e+08  2.3918425     -13059072      -13059072       1190.448      -13057882      -402.08263     -303.46648     -480.31929     -52.835352      11.81318      -75.870709      11339.823    
      2100   406.6083       0.00105        0.041451424    0.031430039    0.049395787   -402.26088      566.54452      566.54452      566.54452      1.8184532e+08  2.3914841     -13058955      -13058955       1210.8101     -13057744      -409.09375     -310.19037     -487.49851     -52.639331      11.795955     -75.829573      11325.225    
      2200   413.41055      0.0011         0.042144114    0.032094298    0.050107422   -409.06599      566.57282      566.57282      566.57282      1.8187257e+08  2.3911258     -13058836      -13058836       1231.066      -13057605      -415.93007     -316.74609     -494.5218      -52.445204      11.807224     -75.757302      11312.407    
      2300   420.15243      0.00115        0.042821136    0.032744265    0.050805335   -415.7274       566.60112      566.60112      566.60112      1.8189982e+08  2.3907676     -13058716      -13058716       1251.1422     -13057465      -422.61175     -323.16077     -501.40968     -52.256267      11.846912     -75.654864      11335.04     
      2400   426.77479      0.0012         0.043484774    0.033382715    0.051491616   -422.26862      566.62941      566.62941      566.62941      1.8192708e+08  2.3904094     -13058596      -13058596       1270.8625     -13057325      -429.16135     -329.46178     -508.18274     -52.076332      11.912559     -75.524828      11311.032    
      2500   433.22469      0.00125        0.044137591    0.034012535    0.052168333   -428.7144       566.65771      566.65771      566.65771      1.8195433e+08  2.3900513     -13058474      -13058474       1290.0691     -13057184      -435.60416     -335.67762     -514.86142     -51.909682      12.000226     -75.370291      11352.654    
      2600   439.46987      0.0013         0.044782509    0.034636764    0.052837589   -435.09125      566.68601      566.68601      566.68601      1.819816e+08   2.3896933     -13058351      -13058351       1308.6662     -13057042      -441.96901     -341.83828     -521.46646     -51.761472      12.105234     -75.19356       11368.986    
      2700   445.49201      0.00135        0.045422454    0.03525836     0.053501274   -441.42475      566.71431      566.71431      566.71431      1.8200886e+08  2.3893353     -13058226      -13058226       1326.5991     -13056900      -448.28476     -347.97295     -528.01652     -51.636506      12.221263     -74.997861      11326.107    
      2800   451.27675      0.0014         0.046060031    0.035880036    0.054160966   -447.73759      566.7426       566.7426       566.7426       1.8203612e+08  2.3889775     -13058101      -13058101       1343.8251     -13056757      -454.57717     -354.10842     -534.52718     -51.538047      12.342003     -74.787589      11341.012    
      2900   456.80975      0.00145        0.04669775     0.036504415    0.054817937   -454.05083      566.7709       566.7709       566.7709       1.8206339e+08  2.3886197     -13057974      -13057974       1360.3014     -13056614      -460.87096     -360.27056     -541.01097     -51.467907      12.461285     -74.567528      11336.858    
      3000   462.07752      0.0015         0.047338281    0.037133918    0.055473218   -460.38463      566.7992       566.7992       566.7992       1.8209066e+08  2.3882619     -13057846      -13057846       1375.9879     -13056470      -467.19251     -366.48328     -547.47809     -51.426047      12.573535     -74.342882      11359.152    
      3100   467.06867      0.00155        0.047984235    0.037770551    0.056127637   -466.75688      566.8275       566.8275       566.8275       1.8211794e+08  2.3879042     -13057717      -13057717       1390.8507     -13056326      -473.56758     -372.76636     -553.93671     -51.411207      12.673174     -74.118633      11338.705    
      3200   471.77435      0.0016         0.048638031    0.038415983    0.056781999   -473.18369      566.85579      566.85579      566.85579      1.8214522e+08  2.3875467     -13057585      -13057585       1404.8635     -13056180      -480.02004     -379.13628     -560.39476     -51.421202      12.755193     -73.898875      11349.939    
      3300   476.18807      0.00165        0.049301575    0.039071453    0.057437223   -479.67843      566.88409      566.88409      566.88409      1.8217249e+08  2.3871891     -13057453      -13057453       1418.0067     -13056035      -486.56872     -385.60526     -566.86132     -51.452592      12.81666      -73.686862      11341.129    
      3400   480.30545      0.0017         0.049976068    0.039737974    0.058094245   -486.25146      566.91239      566.91239      566.91239      1.8219978e+08  2.3868317     -13057318      -13057318       1430.2676     -13055888      -493.22544     -392.18331     -573.34562     -51.501029      12.855226     -73.485089      11333.999    
      3500   484.12419      0.00175        0.050662316    0.040416333    0.05875404    -492.91123      566.94069      566.94069      566.94069      1.8222706e+08  2.3864743     -13057181      -13057181       1441.6392     -13055740      -499.99819     -398.8782      -579.8573      -51.562352      12.867525     -73.296059      11332.333    
      3600   487.64392      0.0018         0.051360901    0.041106982    0.059417476   -499.66398      566.96898      566.96898      566.96898      1.8225435e+08  2.386117      -13057043      -13057043       1452.1203     -13055591      -506.89268     -405.69437     -586.40489     -51.63271       12.851951     -73.122094      11349.273    
      3700   490.86613      0.00185        0.052071877    0.041810148    0.060085224   -506.51287      566.99728      566.99728      566.99728      1.8228164e+08  2.3857597     -13056902      -13056902       1461.7155     -13055441      -513.90947     -412.63408     -592.99506     -51.707695      12.809328     -72.965605      11330.775    
      3800   493.79398      0.0019         0.052794659    0.042525867    0.060758025   -513.45851      567.02558      567.02558      567.02558      1.8230893e+08  2.3854026     -13056759      -13056759       1470.4341     -13055289      -521.04277     -419.69768     -599.63509     -51.782038      12.74163      -72.828394      11320.36     
      3900   496.43216      0.00195        0.053528333    0.043253913    0.061436565   -520.49942      567.05388      567.05388      567.05388      1.8233623e+08  2.3850455     -13056614      -13056614       1478.2902     -13055136      -528.28357     -426.88293     -606.33175     -51.850487      12.652237     -72.711537      11344.167    
      4000   498.78667      0.002          0.05427172     0.043993908    0.062121309   -527.632        567.08217      567.08217      567.08217      1.8236353e+08  2.3846885     -13056467      -13056467       1485.3015     -13054981      -535.62023     -434.18612     -613.08965     -51.907691      12.544736     -72.615424      11313.686    
      4100   500.8647       0.00205        0.055023408    0.044745395    0.062812491   -534.85087      567.11047      567.11047      567.11047      1.8239083e+08  2.3843315     -13056317      -13056317       1491.4895     -13054825      -543.03881     -441.60272     -619.91109     -51.950265      12.422126     -72.540109      11322.651    
      4200   502.67451      0.0021         0.055782132    0.045507809    0.063509958   -542.14952      567.13877      567.13877      567.13877      1.8241813e+08  2.3839746     -13056164      -13056164       1496.8789     -13054667      -550.52684     -449.12716     -626.79456     -51.97683       12.286641     -72.48548       11329.053    
      4300   504.2253       0.00215        0.05654669     0.04628045     0.064213517   -549.52104      567.16707      567.16707      567.16707      1.8244544e+08  2.3836178     -13056008      -13056008       1501.4969     -13054507      -558.07244     -456.75253     -633.73814     -51.986101      12.139627     -72.452404      11312.303    
      4400   505.52709      0.0022         0.057315924    0.047062664    0.064923206   -556.9596       567.19536      567.19536      567.19536      1.8247275e+08  2.3832611     -13055850      -13055850       1505.3733     -13054345      -565.66419     -464.47238     -640.74223     -51.977298      11.984303     -72.440863      11313.465    
      4500   506.59052      0.00225        0.058088703    0.047853709    0.065638954   -564.45881      567.22366      567.22366      567.22366      1.8250006e+08  2.3829044     -13055689      -13055689       1508.5401     -13054181      -573.29093     -472.27939     -647.80611     -51.949858      11.825885     -72.448879      11315.203    
      4600   507.42684      0.0023         0.058864031    0.048652679    0.066360556   -572.01173      567.25196      567.25196      567.25196      1.8252738e+08  2.3825478     -13055526      -13055526       1511.0305     -13054015      -580.94282     -480.16461     -654.92777     -51.901654      11.670091     -72.474056      11300.55     
      4700   508.04768      0.00235        0.059641194    0.049458655    0.067087865   -579.61252      567.28026      567.28026      567.28026      1.8255469e+08  2.3821913     -13055359      -13055359       1512.8792     -13053846      -588.61282     -488.11897     -662.10575     -51.829641      11.522005     -72.513541      11347.393    
      4800   508.46495      0.0024         0.0604195      0.050270699    0.067820668   -587.2551       567.30855      567.30855      567.30855      1.8258201e+08  2.3818348     -13055189      -13055189       1514.1218     -13053675      -596.29411     -496.13322     -669.33795     -51.732118      11.386125     -72.563347      11297.57     
      4900   508.69072      0.00245        0.061198211    0.051087941    0.068558574   -594.93289      567.33685      567.33685      567.33685      1.8260934e+08  2.3814784     -13055017      -13055017       1514.7941     -13053502      -603.97938     -504.19878     -676.62052     -51.609248      11.266455     -72.620374      11322.86     
      5000   508.73705      0.0025         0.061976817    0.051909798    0.069301138   -602.64085      567.36515      567.36515      567.36515      1.8263666e+08  2.3811221     -13054841      -13054841       1514.9321     -13053326      -611.66363     -512.30988     -683.94906     -51.46207       11.16549      -72.683053      11332.021    
      5100   508.61579      0.00255        0.062754996    0.052735861    0.07004814    -610.37584      567.39345      567.39345      567.39345      1.8266399e+08  2.3807659     -13054662      -13054662       1514.571      -13053147      -619.34366     -520.46248     -691.32139     -51.291664      11.085653     -72.749388      9133.6237    
      5200   508.33854      0.0026         0.06353267     0.053565744    0.070799506   -618.1361       567.42174      567.42174      567.42174      1.8269132e+08  2.3804097     -13054480      -13054480       1513.7454     -13052966      -627.0187      -528.65279     -698.7368      -51.099293      11.029602     -72.816011      11336.005    
      5300   507.91652      0.00265        0.064309896    0.054399169    0.071555115   -625.92049      567.45004      567.45004      567.45004      1.8271866e+08  2.3800536     -13054295      -13054295       1512.4887     -13052782      -634.68933     -536.87806     -706.19408     -50.885749      10.998834     -72.880918      11323.892    
      5400   507.36053      0.0027         0.065086556    0.055235755    0.072314737   -633.72662      567.47834      567.47834      567.47834      1.8274599e+08  2.3796976     -13054107      -13054107       1510.833      -13052596      -642.35436     -545.13452     -713.69097     -50.65152       10.993306     -72.942573      11340.205    
      5500   506.68098      0.00275        0.065862526    0.056074952    0.073078125   -641.55146      567.50664      567.50664      567.50664      1.8277333e+08  2.3793416     -13053915      -13053915       1508.8094     -13052406      -650.0126      -553.41674     -721.22502     -50.397889      11.011551     -72.998679      11347.252    
      5600   505.88789      0.0028         0.066638001    0.056916091    0.073844984   -649.39247      567.53493      567.53493      567.53493      1.8280068e+08  2.3789857     -13053720      -13053720       1506.4478     -13052214      -657.66594     -561.71814     -728.79333     -50.126699      11.051128     -73.046901      11309.977    
      5700   504.99083      0.00285        0.067413139    0.057758412    0.074614787   -657.24595      567.56323      567.56323      567.56323      1.8282802e+08  2.3786299     -13053522      -13053522       1503.7765     -13052018      -665.31595     -570.0312      -736.39069     -49.840032      11.109841     -73.086777      11041.888    
      5800   503.99894      0.0029         0.068188098    0.058601081    0.075386859   -665.10745      567.59153      567.59153      567.59153      1.8285537e+08  2.3782742     -13053321      -13053321       1500.8228     -13051820      -672.96421     -578.3477      -744.01045     -49.53908       11.185581     -73.11916       11334.196    
      5900   502.92089      0.00295        0.0689631      0.059443293    0.076160442   -672.97256      567.61983      567.61983      567.61983      1.8288272e+08  2.3779185     -13053116      -13053116       1497.6125     -13051618      -680.61288     -586.65969     -751.64512     -49.225193      11.276521     -73.14544       11323.024    
      6000   501.7649       0.003          0.069738342    0.060284407    0.076934889   -680.83769      567.64812      567.64812      567.64812      1.8291007e+08  2.3775629     -13052908      -13052908       1494.1702     -13051414      -688.26392     -594.96084     -759.28832     -48.900384      11.381264     -73.16701       11308.81     
      6100   500.53877      0.00305        0.070513873    0.061123784    0.077709588   -688.69889      567.67642      567.67642      567.67642      1.8293743e+08  2.3772074     -13052697      -13052697       1490.519      -13051206      -695.91781     -603.24485     -766.934       -48.567048      11.497591     -73.183509      11337.476    
      6200   499.24985      0.0031         0.071289858    0.061960739    0.078483974   -696.55258      567.70472      567.70472      567.70472      1.8296479e+08  2.3768519     -13052482      -13052482       1486.6808     -13050995      -703.5762      -611.50495     -774.5766      -48.228074      11.622333     -73.193137      11334.922    
      6300   497.90507      0.00315        0.072066362    0.06279447     0.079257398   -704.39421      567.73302      567.73302      567.73302      1.8299215e+08  2.3764965     -13052264      -13052264       1482.6763     -13050781      -711.23969     -619.73323     -782.2097      -47.885584      11.752278     -73.194345      11347.408    
      6400   496.51094      0.0032         0.072843417    0.063624242    0.08002933    -712.21972      567.76131      567.76131      567.76131      1.8301951e+08  2.3761412     -13052042      -13052042       1478.5248     -13050564      -718.90863     -627.92245     -789.82807     -47.541013      11.88514      -73.186052      11351.851    
      6500   495.07351      0.00325        0.073621131    0.064449603    0.080799461   -720.02696      567.78961      567.78961      567.78961      1.8304688e+08  2.3757859     -13051817      -13051817       1474.2444     -13050343      -726.58408     -636.06813     -797.42868     -47.195797      12.019417     -73.168072      11311.182    
      6600   493.59835      0.0033         0.074399841    0.06527047     0.081567665   -727.81635      567.81791      567.81791      567.81791      1.8307425e+08  2.3754308     -13051589      -13051589       1469.8516     -13050119      -734.26934     -644.16946     -805.01026     -46.852251      12.152861     -73.140448      11053.655    
      6700   492.0905       0.00335        0.075179928    0.066087107    0.082333896   -735.58987      567.84621      567.84621      567.84621      1.8310162e+08  2.3750757     -13051357      -13051357       1465.3615     -13049892      -741.9682      -652.22903     -812.57238     -46.51308       12.283742     -73.102952      11320.829    
      6800   490.55449      0.0034         0.075961569    0.06689985     0.083098118   -743.34908      567.8745       567.8745       567.8745       1.8312899e+08  2.3747206     -13051122      -13051122       1460.7875     -13049661      -749.6824      -660.25019     -820.11466     -46.180817      12.411294     -73.056027      11344.768    
      6900   488.99439      0.00345        0.076744661    0.06770896     0.083860319   -751.09446      567.9028       567.9028       567.9028       1.8315637e+08  2.3743657     -13050884      -13050884       1456.1418     -13049428      -757.41092     -668.23548     -827.637       -45.858659      12.5351       -73.000527      11301.902    
      7000   487.41387      0.0035         0.0775291      0.068514731    0.084620588   -758.82694      567.9311       567.9311       567.9311       1.8318375e+08  2.3740108     -13050642      -13050642       1451.4353     -13049191      -765.15273     -676.18782     -835.14027     -45.550844      12.653785     -72.935782      11105.338    
      7100   485.81622      0.00355        0.078315001    0.069317523    0.085379185   -766.54893      567.9594       567.9594       567.9594       1.8321114e+08  2.3736559     -13050397      -13050397       1446.6778     -13048950      -772.90897     -684.11076     -842.62705     -45.261438      12.764807     -72.859257      11053.614    
      7200   484.20441      0.0036         0.079102461    0.070117774    0.086136564   -774.26367      567.98769      567.98769      567.98769      1.8323852e+08  2.3733012     -13050149      -13050149       1441.8781     -13048707      -780.68059     -692.00863     -850.10179     -44.994279      12.864617     -72.767651      11306.555    
      7300   482.58106      0.00365        0.079891508    0.070915917    0.086893445   -781.97507      568.01599      568.01599      568.01599      1.8326591e+08  2.3729465     -13049897      -13049897       1437.044      -13048460      -788.46788     -699.88569     -857.57162     -44.752259      12.950767     -72.657797      11325.799    
      7400   480.94849      0.0037         0.080681944    0.071712376    0.087650801   -789.68705      568.04429      568.04429      568.04429      1.832933e+08   2.3725919     -13049641      -13049641       1432.1825     -13048209      -796.26888     -707.74612     -865.04615     -44.53742       13.021896     -72.52812       11333.483    
      7500   479.30876      0.00375        0.08147349     0.072507584    0.088409716   -797.4037       568.07259      568.07259      568.07259      1.8332069e+08  2.3722373     -13049383      -13049383       1427.2996     -13047956      -804.08083     -715.59421     -872.53606     -44.351722      13.076374     -72.379174      11296.985    
      7600   477.66369      0.0038         0.08226558     0.073301839    0.089171047   -805.12696      568.10088      568.10088      568.10088      1.8334809e+08  2.3718829     -13049121      -13049121       1422.4009     -13047698      -811.89815     -723.4329      -880.04981     -44.195718      13.112037     -72.212382      11292.782    
      7700   476.01497      0.00385        0.083057354    0.074095089    0.089935187   -812.8551       568.12918      568.12918      568.12918      1.8337549e+08  2.3715285     -13048855      -13048855       1417.4913     -13047438      -819.71235     -731.26168     -887.59129     -44.067425      13.127899     -72.029451      11329.429    
      7800   474.36427      0.0039         0.083848162    0.074887101    0.090702248   -820.58561      568.15748      568.15748      568.15748      1.8340289e+08  2.3711741     -13048587      -13048587       1412.5758     -13047174      -827.51702     -739.07822     -895.16159     -43.962903      13.123268     -71.832772      11324.172    
      7900   472.71317      0.00395        0.084637715    0.075677793    0.091472296   -828.31747      568.18578      568.18578      568.18578      1.834303e+08   2.3708199     -13048315      -13048315       1407.6591     -13046907      -835.3093      -746.88174     -902.76138     -43.876864      13.097624     -71.625418      11330.577    
      8000   471.06313      0.004          0.085425649    0.076467234    0.092245234   -836.0494       568.21407      568.21407      568.21407      1.8345771e+08  2.3704657     -13048039      -13048039       1402.7456     -13046636      -843.08561     -754.67292     -910.38968     -43.802947      13.050892     -71.410602      11332.995    
      8100   469.41552      0.00405        0.086211482    0.077255783    0.093020982   -843.78073      568.24237      568.24237      568.24237      1.8348512e+08  2.3701116     -13047760      -13047760       1397.8393     -13046362      -850.84117     -762.45529     -918.04572     -43.735689      12.983869     -71.191698      11297.426    
      8200   467.77165      0.0041         0.086994968    0.078044113    0.093799694   -851.51336      568.27067      568.27067      568.27067      1.8351253e+08  2.3697575     -13047478      -13047478       1392.9441     -13046085      -858.57358     -770.23551     -925.73101     -43.672005      12.896683     -70.972641      11279.407    
      8300   466.13271      0.00415        0.087776296    0.078833002    0.094581721   -859.25165      568.29897      568.29897      568.29897      1.8353995e+08  2.3694036     -13047192      -13047192       1388.0636     -13045804      -866.28469     -778.02124     -933.44901     -43.609823      12.788878     -70.756403      11300.343    
      8400   464.49979      0.0042         0.088555801    0.079623043    0.095367053   -866.99859      568.32726      568.32726      568.32726      1.8356736e+08  2.3690496     -13046903      -13046903       1383.2011     -13045520      -873.9778      -785.81834     -941.19963     -43.546679      12.660903     -70.545728      11289.633    
      8500   462.87382      0.00425        0.089333839    0.080414625    0.096155535   -874.75615      568.35556      568.35556      568.35556      1.8359478e+08  2.3686958     -13046611      -13046611       1378.3592     -13045232      -881.65645     -793.63064     -948.98135     -43.480019      12.514407     -70.343902      11310.962    
      8600   461.25567      0.0043         0.090110761    0.081207996    0.09694688    -882.52533      568.38386      568.38386      568.38386      1.8362221e+08  2.368342      -13046315      -13046315       1373.5406     -13044941      -889.32407     -801.4606      -956.79131     -43.408053      12.351666     -70.153011      11314.529    
      8700   459.64615      0.00435        0.090886717    0.082003327    0.09774059    -890.30556      568.41216      568.41216      568.41216      1.8364964e+08  2.3679884     -13046016      -13046016       1368.7478     -13044647      -896.98216     -809.30991     -964.62462     -43.328735      12.17469      -69.974224      11315.785    
      8800   458.04606      0.0044         0.091661663    0.082800699    0.098535869   -898.09435      568.44045      568.44045      568.44045      1.8367707e+08  2.3676347     -13045713      -13045713       1363.9829     -13044349      -904.63028     -817.17936     -972.47342     -43.239769      11.986254     -69.807061      11311.64     
      8900   456.45618      0.00445        0.092435478    0.08359995     0.099331785   -905.8877       568.46875      568.46875      568.46875      1.837045e+08   2.3672812     -13045407      -13045407       1359.2486     -13044048      -912.26724     -825.06736     -980.3285      -43.138621      11.789599     -69.650037      11291.157    
      9000   454.87734      0.0045         0.093208319    0.084400781    0.10012742    -913.6821       568.49705      568.49705      568.49705      1.8373193e+08  2.3669277     -13045098      -13045098       1354.547      -13043743      -919.89459     -832.97095     -988.18077     -43.023756      11.588603     -69.500346      11326.895    
      9100   453.31036      0.00455        0.093980554    0.08520279     0.10092191    -921.47463      568.52535      568.52535      568.52535      1.8375937e+08  2.3665743     -13044785      -13044785       1349.8808     -13043436      -927.51596     -840.88616     -996.02179     -42.896612      11.387469     -69.35633       11384.353    
      9200   451.75599      0.0046         0.094752535    0.08600551     0.10171445    -929.26225      568.55364      568.55364      568.55364      1.8378681e+08  2.3662209     -13044469      -13044469       1345.2522     -13043124      -935.13481     -848.80839     -1003.8435     -42.760231      11.189948     -69.216944      11378.14     
      9300   450.21493      0.00465        0.095524594    0.086808433    0.10250442    -937.04235      568.58194      568.58194      568.58194      1.8381425e+08  2.3658677     -13044150      -13044150       1340.6632     -13042809      -942.75445     -856.73262     -1011.64       -42.617602      10.999849     -69.081589      11356.655    
      9400   448.68781      0.0047         0.096296989    0.08761083     0.10329112    -944.81106      568.61024      568.61024      568.61024      1.838417e+08   2.3655145     -13043827      -13043827       1336.1157     -13042491      -950.37739     -864.65167     -1019.4041     -42.471566      10.821264     -68.949394      11361.376    
      9500   447.17525      0.00475        0.097069768    0.088411774    0.10407369    -952.56266      568.63854      568.63854      568.63854      1.8386915e+08  2.3651613     -13043501      -13043501       1331.6115     -13042170      -958.00412     -872.55637     -1027.1275     -42.323918      10.657879     -68.819953      11290.905    
      9600   445.67791      0.0048         0.097842769    0.089210598    0.10485116    -960.29123      568.66683      568.66683      568.66683      1.838966e+08   2.3648083     -13043172      -13043172       1327.1527     -13041845      -965.63306     -880.44015     -1034.8005     -42.175348      10.513379     -68.69241       11294.867    
      9700   444.19649      0.00485        0.098615867    0.090006764    0.1056226     -967.99154      568.69513      568.69513      568.69513      1.8392405e+08  2.3644553     -13042839      -13042839       1322.7413     -13041516      -973.26294     -888.2977      -1042.414      -42.025797      10.390397     -68.56629       11300.432    
      9800   442.7317       0.0049         0.099388968    0.090799763    0.10638723    -975.65907      568.72343      568.72343      568.72343      1.8395151e+08  2.3641024     -13042503      -13042503       1318.3794     -13041184      -980.89285     -896.12399     -1049.9604     -41.875628      10.291661     -68.442599      11321.788    
      9900   441.28422      0.00495        0.10016185     0.091589316    0.10714432    -983.2897       568.75173      568.75173      568.75173      1.8397897e+08  2.3637495     -13042163      -13042163       1314.0691     -13040849      -988.52059     -903.91627     -1057.4322     -41.726272      10.220358     -68.323467      11303.038    
     10000   439.85468      0.005          0.10093391     0.092375252    0.10789317    -990.87864      568.78002      568.78002      568.78002      1.8400643e+08  2.3633967     -13041820      -13041820       1309.8121     -13040511      -996.14023     -911.67286     -1064.8228     -41.579525      10.180976     -68.21045       11337.528    
     10100   438.4437       0.00505        0.10170448     0.093157534    0.10863341    -998.42231      568.80832      568.80832      568.80832      1.840339e+08   2.363044      -13041474      -13041474       1305.6105     -13040169      -1003.7452     -919.39338     -1072.1284     -41.436873      10.178036     -68.103547      11386.576    
     10200   437.05189      0.0051         0.10247308     0.093936138    0.10936505    -1005.9191      568.83662      568.83662      568.83662      1.8406137e+08  2.3626914     -13041125      -13041125       1301.4659     -13039823      -1011.3307     -927.0776      -1079.3491     -41.299073      10.214706     -68.002571      11363.999    
     10300   435.6797       0.00515        0.10323916     0.094710965    0.11008824    -1013.3674      568.86492      568.86492      568.86492      1.8408884e+08  2.3623388     -13040772      -13040772       1297.3797     -13039475      -1018.8913     -934.72455     -1086.4864     -41.167136      10.291359     -67.907111      11315.992    
     10400   434.3275       0.0052         0.10400187     0.095481858    0.11080325    -1020.7648      568.89321      568.89321      568.89321      1.8411631e+08  2.3619863     -13040417      -13040417       1293.3531     -13039123      -1026.4187     -942.33267     -1093.543      -41.043488      10.405991     -67.815628      11324.919    
     10500   432.99559      0.00525        0.10476032     0.096248687    0.11151044    -1028.109       568.92151      568.92151      568.92151      1.8414378e+08  2.3616339     -13040058      -13040058       1289.3869     -13038768      -1033.9039     -949.90068     -1100.5225     -40.930234      10.556217     -67.726541      11308.94     
     10600   431.68418      0.0053         0.10551369     0.097011391    0.1122102     -1035.3986      568.94981      568.94981      568.94981      1.8417126e+08  2.3612815     -13039696      -13039696       1285.4818     -13038410      -1041.3391     -957.42799     -1107.4286     -40.829378      10.740083     -67.638513      11281.632    
     10700   430.39344      0.00535        0.10626133     0.097770062    0.11290286    -1042.6326      568.97811      568.97811      568.97811      1.8419874e+08  2.3609292     -13039330      -13039330       1281.6382     -13038049      -1048.7178     -964.91548     -1114.2645     -40.741747      10.954382     -67.550097      11282.401    
     10800   429.12351      0.0054         0.10700274     0.098524831    0.11358864    -1049.8107      569.0064       569.0064       569.0064       1.8422623e+08  2.360577      -13038962      -13038962       1277.8565     -13037684      -1056.0349     -972.36448     -1121.0327     -40.667887      11.194966     -67.458947      11330.251    
     10900   427.87451      0.00545        0.1077375      0.099275745    0.11426776    -1056.9323      569.0347       569.0347       569.0347       1.8425372e+08  2.3602248     -13038591      -13038591       1274.1372     -13037317      -1063.2864     -979.77543     -1127.7351     -40.609337      11.45728      -67.362701      11346.722    
     11000   426.64654      0.0055         0.1084653      0.10002275     0.11494053    -1063.9973      569.063        569.063        569.063        1.8428121e+08  2.3598728     -13038217      -13038217       1270.4805     -13036946      -1070.4692     -987.14778     -1134.3748     -40.568436      11.736861     -67.259342      11322.551    
     11100   425.43966      0.00555        0.10918587     0.10076564     0.11560732    -1071.0053      569.0913       569.0913       569.0913       1.843087e+08   2.3595208     -13037839      -13037839       1266.8867     -13036572      -1077.5808     -994.47952     -1140.9555     -40.547343      12.028864     -67.147759      11332.288    
     11200   424.25396      0.0056         0.10989887     0.10150415     0.11626861    -1077.9559      569.11959      569.11959      569.11959      1.8433619e+08  2.3591688     -13037459      -13037459       1263.3559     -13036195      -1084.6176     -1001.7681     -1147.482      -40.547953      12.328846     -67.02857       11317.599    
     11300   423.08954      0.00565        0.11060422     0.10223786     0.11692487    -1084.8489      569.14789      569.14789      569.14789      1.8436369e+08  2.358817      -13037076      -13037076       1259.8884     -13035816      -1091.5788     -1009.0092     -1153.9587     -40.570904      12.632403     -66.90421       11324.318    
     11400   421.9465       0.0057         0.11130199     0.10296617     0.11757635    -1091.6836      569.17619      569.17619      569.17619      1.8439119e+08  2.3584652     -13036689      -13036689       1256.4846     -13035433      -1098.4652     -1016.197      -1160.3884     -40.616197      12.935268     -66.776502      11345.409    
     11500   420.82492      0.00575        0.11199249     0.10368871     0.11822345    -1098.4609      569.20449      569.20449      569.20449      1.8441869e+08  2.3581134     -13036300      -13036300       1253.1447     -13035047      -1105.2799     -1023.328      -1166.7747     -40.682789      13.23389      -66.645677      11323.524    
     11600   419.72484      0.0058         0.11267621     0.10440525     0.11886663    -1105.1833      569.23278      569.23278      569.23278      1.844462e+08   2.3577618     -13035908      -13035908       1249.8689     -13034658      -1112.0278     -1030.3997     -1173.1224     -40.768969      13.52452      -66.511458      11313.839    
     11700   418.64625      0.00585        0.11335364     0.10511534     0.11950625    -1111.852       569.26108      569.26108      569.26108      1.8447371e+08  2.3574102     -13035513      -13035513       1246.657      -13034267      -1118.7134     -1037.4077     -1179.435      -40.872715      13.803698     -66.374137      11305.315    
     11800   417.58908      0.0059         0.11402504     0.10581844     0.12014246    -1118.4668      569.28938      569.28938      569.28938      1.8450122e+08  2.3570587     -13035116      -13035116       1243.509      -13033872      -1125.3397     -1044.3468     -1185.7138     -40.992084      14.067842     -66.23581       11318.441    
     11900   416.55317      0.00595        0.11469062     0.10651406     0.12077545    -1125.0271      569.31768      569.31768      569.31768      1.8452874e+08  2.3567072     -13034715      -13034715       1240.4242     -13033475      -1131.9084     -1051.212      -1191.961      -41.123964      14.313575     -66.099523      11309.635    
     12000   415.53825      0.006          0.11535031     0.10720161     0.12140552    -1131.532       569.34597      569.34597      569.34597      1.8455625e+08  2.3563558     -13034312      -13034312       1237.402      -13033074      -1138.419      -1057.9976     -1198.1793     -41.264345      14.537501     -65.966772      11318.212    
     12100   414.5439       0.00605        0.1160039      0.10788053     0.12203305    -1137.98        569.37427      569.37427      569.37427      1.8458377e+08  2.3560045     -13033906      -13033906       1234.441      -13032671      -1144.8695     -1064.698      -1204.3726     -41.408438      14.73484      -65.838806      11319.306    
     12200   413.56958      0.0061         0.11665135     0.10855028     0.12265867    -1144.3714      569.40257      569.40257      569.40257      1.8461129e+08  2.3556533     -13033497      -13033497       1231.5396     -13032265      -1151.2593     -1071.3079     -1210.5469     -41.55003       14.90053      -65.71595       11310.828    
     12300   412.61463      0.00615        0.11729274     0.10921059     0.12328293    -1150.7073      569.43087      569.43087      569.43087      1.8463882e+08  2.3553021     -13033085      -13033085       1228.6959     -13031857      -1157.5894     -1077.8247     -1216.7079     -41.683811      15.031447     -65.597398      11295.823    
     12400   411.67836      0.0062         0.11792815     0.10986156     0.12390625    -1156.9897      569.45916      569.45916      569.45916      1.8466635e+08  2.354951      -13032671      -13032671       1225.9079     -13031445      -1163.8604     -1084.2493     -1222.8596     -41.805849      15.126777     -65.481696      11285.23     
     12500   410.76002      0.00625        0.11855759     0.11050342     0.12452885    -1163.2202      569.48746      569.48746      569.48746      1.8469388e+08  2.3546        -13032254      -13032254       1223.1732     -13031031      -1170.0724     -1090.584      -1229.0042     -41.912676      15.187127     -65.36941       11302.423    
     12600   409.85889      0.0063         0.11918122     0.11113665     0.12515087    -1169.4013      569.51576      569.51576      569.51576      1.8472141e+08  2.354249      -13031834      -13031834       1220.4898     -13030614      -1176.2272     -1096.8335     -1235.143      -42.002265      15.214112     -65.262638      11249.066    
     12700   408.97431      0.00635        0.11979941     0.11176187     0.12577257    -1175.537       569.54406      569.54406      569.54406      1.8474895e+08  2.3538981     -13031412      -13031412       1217.8557     -13030194      -1182.3282     -1103.0039     -1241.2787     -42.072698      15.209898     -65.162902      11300.988    
     12800   408.10569      0.0064         0.12041253     0.11237984     0.12639441    -1181.6326      569.57235      569.57235      569.57235      1.8477649e+08  2.3535473     -13030987      -13030987       1215.2691     -13029772      -1188.3793     -1109.1028     -1247.4158     -42.121737      15.176705     -65.071028      11315.16     
     12900   407.25244      0.00645        0.12102092     0.11299148     0.12701694    -1187.6942      569.60065      569.60065      569.60065      1.8480403e+08  2.3531965     -13030560      -13030560       1212.7282     -13029347      -1194.3836     -1115.1392     -1253.5597     -42.146287      15.117527     -64.98685       11304.239    
     13000   406.41409      0.0065         0.12162501     0.11359797     0.12764068    -1193.7287      569.62895      569.62895      569.62895      1.8483157e+08  2.3528459     -13030130      -13030130       1210.2318     -13028920      -1200.3456     -1121.1248     -1259.7156     -42.143418      15.035887     -64.909416      1284.2115    
     13100   405.59027      0.00655        0.12222528     0.11420049     0.12826589    -1199.7423      569.65725      569.65725      569.65725      1.8485912e+08  2.3524952     -13029697      -13029697       1207.7786     -13028489      -1206.2697     -1127.0712     -1265.8859     -42.111         14.935444     -64.837758      7458.2561    
     13200   404.78073      0.0066         0.12282225     0.11479994     0.12889238    -1205.7392      569.68554      569.68554      569.68554      1.8488667e+08  2.3521447     -13029262      -13029262       1205.3679     -13028057      -1212.1613     -1132.9873     -1272.0689     -42.048575      14.819764     -64.771744      7709.1546    
     13300   403.98535      0.00665        0.12341665     0.11539713     0.12951979    -1211.7232      569.71384      569.71384      569.71384      1.8491422e+08  2.3517942     -13028824      -13028824       1202.9994     -13027621      -1218.0276     -1138.8811     -1278.261      -41.956926      14.691786     -64.710919      8184.3991    
     13400   403.20407      0.0067         0.12400932     0.11599296     0.13014786    -1217.6993      569.74214      569.74214      569.74214      1.8494178e+08  2.3514438     -13028384      -13028384       1200.6729     -13027183      -1223.8768     -1144.7615     -1284.4595     -41.83782       14.554716     -64.655306      8688.6476    
     13500   402.43686      0.00675        0.12460101     0.1165883      0.13077613    -1223.6711      569.77044      569.77044      569.77044      1.8496933e+08  2.3510935     -13027941      -13027941       1198.3882     -13026743      -1229.7163     -1150.6371     -1290.66       -41.694319      14.412225     -64.603918      9105.0219    
     13600   401.68366      0.0068         0.12519228     0.11718406     0.13140403    -1229.6419      569.79873      569.79873      569.79873      1.849969e+08   2.3507432     -13027496      -13027496       1196.1454     -13026300      -1235.5518     -1156.5168     -1296.857      -41.530316      14.266999     -64.555431      9524.6187    
     13700   400.94449      0.00685        0.12578361     0.11778136     0.13203094    -1235.6145      569.82703      569.82703      569.82703      1.8502446e+08  2.350393      -13027048      -13027048       1193.9442     -13025854      -1241.3877     -1162.4116     -1303.044      -41.34889       14.121333     -64.508378      10154.246    
     13800   400.21933      0.0069         0.12637548     0.11838121     0.13265639    -1241.5925      569.85533      569.85533      569.85533      1.8505203e+08  2.3500429     -13026598      -13026598       1191.7848     -13025406      -1247.229      -1168.3317     -1309.2168     -41.151639      13.977726     -64.461781      10638.453    
     13900   399.50821      0.00695        0.12696841     0.11898467     0.13328018    -1247.5804      569.88363      569.88363      569.88363      1.8507959e+08  2.3496928     -13026145      -13026145       1189.6672     -13024955      -1253.0808     -1174.2874     -1315.3731     -40.937605      13.83802      -64.415876      10981.27     
     14000   398.81112      0.007          0.12756293     0.11959268     0.1339022     -1253.5827      569.91192      569.91192      569.91192      1.8510717e+08  2.3493429     -13025689      -13025689       1187.5914     -13024501      -1258.9482     -1180.288      -1321.512      -40.704667      13.703546     -64.370557      11251.888    
     14100   398.1281       0.00705        0.12815941     0.12020585     0.13452211    -1259.6015      569.94022      569.94022      569.94022      1.8513474e+08  2.3489929     -13025231      -13025231       1185.5575     -13024045      -1264.835      -1186.3395     -1327.63       -40.451263      13.575163     -64.324728      11319.551    
     14200   397.45922      0.0071         0.12875806     0.12082457     0.13513931    -1265.6368      569.96852      569.96852      569.96852      1.8516232e+08  2.3486431     -13024770      -13024770       1183.5657     -13023587      -1270.7432     -1192.4458     -1333.7213     -40.177389      13.453641     -64.276753      11321.027    
     14300   396.80469      0.00715        0.12935902     0.1214491      0.13575304    -1271.6873      569.99682      569.99682      569.99682      1.851899e+08   2.3482933     -13024307      -13024307       1181.6166     -13023125      -1276.6743     -1198.6094     -1339.7783     -39.884421      13.340051     -64.224799      11311.746    
     14400   396.16475      0.0072         0.12996251     0.12207947     0.13636259    -1277.7517      570.02511      570.02511      570.02511      1.8521748e+08  2.3479436     -13023841      -13023841       1179.711      -13022661      -1282.6303     -1204.8307     -1345.7941     -39.572978      13.234405     -64.167861      11327.916    
     14500   395.53964      0.00725        0.1305687      0.12271574     0.13696735    -1283.8286      570.05341      570.05341      570.05341      1.8524507e+08  2.347594      -13023372      -13023372       1177.8495     -13022194      -1288.6128     -1211.1102     -1351.7627     -39.242527      13.136039     -64.106626      11283.42     
     14600   394.92962      0.0073         0.13117739     0.12335797     0.13756701    -1289.9165      570.08171      570.08171      570.08171      1.8527265e+08  2.3472444     -13022901      -13022901       1176.033      -13021725      -1294.6202     -1217.4485     -1357.6809     -38.892973      13.043198     -64.042352      11282.174    
     14700   394.33485      0.00735        0.13178808     0.12400603     0.13816167    -1296.0137      570.11001      570.11001      570.11001      1.8530024e+08  2.3468949     -13022427      -13022427       1174.2618     -13021253      -1300.6472     -1223.8444     -1363.5496     -38.524301      12.952302     -63.975169      11343.18     
     14800   393.75547      0.0074         0.13240035     0.12465976     0.1387516     -1302.1193      570.1383       570.1383       570.1383       1.8532784e+08  2.3465455     -13021950      -13021950       1172.5365     -13020778      -1306.6899     -1230.2962     -1369.3718     -38.136996      12.859964     -63.905739      11324.692    
     14900   393.19153      0.00745        0.13301384     0.12531885     0.13933715    -1308.2321      570.1666       570.1666       570.1666       1.8535543e+08  2.3461961     -13021471      -13021471       1170.8572     -13020300      -1312.7445     -1236.8009     -1375.1508     -37.732521      12.765473     -63.835508      11317.589    
     15000   392.64302      0.0075         0.13362841     0.12598312     0.13991913    -1314.3537      570.1949       570.1949       570.1949       1.8538303e+08  2.3458468     -13020989      -13020989       1169.2239     -13019820      -1318.8098     -1243.3568     -1380.8944     -37.312684      12.670903     -63.765579      11323.428    
     15100   392.10972      0.00755        0.13424416     0.12665274     0.14049847    -1320.4881      570.2232       570.2232       570.2232       1.8541064e+08  2.3454976     -13020504      -13020504       1167.6358     -13019337      -1324.8868     -1249.9654     -1386.6121     -36.880364      12.579453     -63.696697      11332.263    
     15200   391.59118      0.0076         0.13486139     0.127328       0.1410764     -1326.6413      570.25149      570.25149      570.25149      1.8543824e+08  2.3451484     -13020017      -13020017       1166.0917     -13018851      -1330.9784     -1256.6296     -1392.3158     -36.439998      12.494556     -63.629268      11312.528    
     15300   391.08669      0.00765        0.13548026     0.12800888     0.14165423    -1332.8181      570.27979      570.27979      570.27979      1.8546585e+08  2.3447994     -13019527      -13019527       1164.5894     -13018363      -1337.0862     -1263.3494     -1398.0186     -35.997095      12.419759     -63.562723      11340.994    
     15400   390.59538      0.0077         0.1361008      0.12869519     0.14223319    -1339.0219      570.30809      570.30809      570.30809      1.8549346e+08  2.3444503     -13019035      -13019035       1163.1263     -13017871      -1343.2104     -1270.1228     -1403.7324     -35.557761      12.358125     -63.496848      11311.714    
     15500   390.1162       0.00775        0.13672309     0.12938666     0.14281424    -1345.2553      570.33639      570.33639      570.33639      1.8552107e+08  2.3441014     -13018539      -13018539       1161.6994     -13017377      -1349.352      -1276.947      -1409.4669     -35.128049      12.310799     -63.431659      11329.875    
     15600   389.64799      0.0078         0.1373474      0.13008281     0.14339828    -1351.5206      570.36468      570.36468      570.36468      1.8554869e+08  2.3437525     -13018041      -13018041       1160.3052     -13016881      -1355.5135     -1283.8175     -1415.231      -34.712518      12.278142     -63.367332      11316.127    
     15700   389.18946      0.00785        0.13797377     0.13078278     0.14398613    -1357.8178      570.39298      570.39298      570.39298      1.855763e+08   2.3434037     -13017540      -13017540       1158.9398     -13016381      -1361.6952     -1290.7256     -1421.0326     -34.314174      12.260466     -63.304021      11303.408    
     15800   388.73927      0.0079         0.13860193     0.13148548     0.1445785     -1364.1448      570.42128      570.42128      570.42128      1.8560392e+08  2.343055      -13017037      -13017037       1157.5992     -13015879      -1367.8947     -1297.6608     -1426.8788     -33.937555      12.258503     -63.242296      11320.485    
     15900   388.29613      0.00795        0.13923158     0.13218971     0.14517583    -1370.498       570.44958      570.44958      570.44958      1.8563155e+08  2.3427063     -13016530      -13016530       1156.2796     -13015374      -1374.1089     -1304.611      -1432.774      -33.587841      12.272901     -63.18197       11340.837    
     16000   387.85881      0.008          0.1398625      0.13289444     0.14577831    -1376.874       570.47787      570.47787      570.47787      1.8565917e+08  2.3423577     -13016021      -13016021       1154.9773     -13014866      -1380.3356     -1311.5662     -1438.7201     -33.269194      12.303549     -63.12312       11330.188    
     16100   387.42619      0.00805        0.14049445     0.1335988      0.14638605    -1383.2693      570.50617      570.50617      570.50617      1.856868e+08   2.3420092     -13015509      -13015509       1153.689      -13014356      -1386.5725     -1318.5176     -1444.7179     -32.984231      12.349605     -63.065777      11275.137    
     16200   386.99728      0.0081         0.14112725     0.13430192     0.14699889    -1389.6803      570.53447      570.53447      570.53447      1.8571444e+08  2.3416607     -13014995      -13014995       1152.4118     -13013842      -1392.8176     -1325.4569     -1450.7663     -32.735751      12.41056      -63.00973       11308.461    
     16300   386.57118      0.00815        0.14176082     0.13500303     0.14761647    -1396.1027      570.56277      570.56277      570.56277      1.8574207e+08  2.3413123     -13014477      -13014477       1151.143      -13013326      -1399.0705     -1332.3763     -1456.8613     -32.525982      12.486143     -62.955031      11308.835    
     16400   386.14717      0.0082         0.14239515     0.13570125     0.1482383     -1402.5321      570.59106      570.59106      570.59106      1.8576971e+08  2.340964      -13013957      -13013957       1149.8803     -13012807      -1405.3308     -1339.2672     -1462.9983     -32.354822      12.575742     -62.901867      11315.799    
     16500   385.72472      0.00825        0.14303005     0.13639557     0.14886372    -1408.9624      570.61936      570.61936      570.61936      1.8579735e+08  2.3406157     -13013434      -13013434       1148.6224     -13012286      -1411.5969     -1346.1197     -1469.1707     -32.221754      12.677337     -62.8505        11302.851    
     16600   385.30349      0.0083         0.14366539     0.13708493     0.14949222    -1415.3879      570.64766      570.64766      570.64766      1.8582499e+08  2.3402676     -13012909      -13012909       1147.368      -13011761      -1417.8672     -1352.9231     -1475.3735     -32.125744      12.787224     -62.799035      11291.982    
     16700   384.88337      0.00835        0.14430095     0.13776812     0.1501231     -1421.8017      570.67596      570.67596      570.67596      1.8585264e+08  2.3399194     -13012380      -13012380       1146.117      -13011234      -1424.1396     -1359.6657     -1481.5998     -32.06403       12.90246      -62.745151      11285.919    
     16800   384.46451      0.0084         0.1449364      0.13844423     0.15075519    -1428.1958      570.70425      570.70425      570.70425      1.8588029e+08  2.3395714     -13011849      -13011849       1144.8697     -13010704      -1430.4111     -1366.3383     -1487.8381     -32.032378      13.0212       -62.686802      11318.637    
     16900   384.04728      0.00845        0.14557131     0.13911256     0.15138742    -1434.563       570.73255      570.73255      570.73255      1.8590794e+08  2.3392234     -13011315      -13011315       1143.6272     -13010172      -1436.6771     -1372.9342     -1494.0777     -32.027049      13.142932     -62.622766      11309.472    
     17000   383.63217      0.0085         0.14620503     0.13977258     0.15201893    -1440.8966      570.76085      570.76085      570.76085      1.8593559e+08  2.3388755     -13010779      -13010779       1142.3911     -13009636      -1442.9314     -1379.4481     -1500.3102     -32.044817      13.267055     -62.551869      11306.203    
     17100   383.21978      0.00855        0.14683691     0.14042385     0.15264902    -1447.1906      570.78915      570.78915      570.78915      1.8596325e+08  2.3385277     -13010239      -13010239       1141.1631     -13009098      -1449.1676     -1385.8756     -1506.5287     -32.081815      13.392566     -62.472409      11333.961    
     17200   382.81078      0.0086         0.14746632     0.14106605     0.15327688    -1453.4394      570.81744      570.81744      570.81744      1.8599091e+08  2.3381799     -13009697      -13009697       1139.9451     -13008557      -1455.3794     -1392.2137     -1512.7252     -32.134186      13.518762     -62.38427       11296.531    
     17300   382.40588      0.00865        0.14809272     0.14169896     0.15390154    -1459.6372      570.84574      570.84574      570.84574      1.8601857e+08  2.3378322     -13009152      -13009152       1138.7394     -13008014      -1461.5615     -1398.46       -1518.8901     -32.199208      13.64505      -62.28739       11321.511    
     17400   382.00594      0.0087         0.14871567     0.14232228     0.15452201    -1465.7783      570.87404      570.87404      570.87404      1.8604623e+08  2.3374846     -13008605      -13008605       1137.5485     -13007467      -1467.7095     -1404.6117     -1525.0137     -32.27409       13.77055      -62.181966      11333.596    
     17500   381.61188      0.00875        0.14933478     0.1429358      0.15513737    -1471.8577      570.90234      570.90234      570.90234      1.860739e+08   2.337137      -13008055      -13008055       1136.375      -13006918      -1473.8197     -1410.6666     -1531.0868     -32.355198      13.893585     -62.068721      11325.213    
     17600   381.22467      0.0088         0.14994985     0.1435395      0.15574679    -1477.872       570.93063      570.93063      570.93063      1.8610157e+08  2.3367895     -13007502      -13007502       1135.222      -13006367      -1479.8899     -1416.6248     -1537.1013     -32.438796      14.012915     -61.948966      11097.486    
     17700   380.8453       0.00885        0.15056087     0.14413365     0.15634967    -1483.82        570.95893      570.95893      570.95893      1.8612924e+08  2.3364421     -13006947      -13006947       1134.0923     -13005813      -1485.9203     -1422.4885     -1543.0512     -32.522701      14.128211     -61.823995      11338.72     
     17800   380.47465      0.0089         0.15116797     0.1447187      0.15694557    -1489.7023      570.98723      570.98723      570.98723      1.8615692e+08  2.3360947     -13006389      -13006389       1132.9886     -13005256      -1491.9119     -1428.2625     -1548.9324     -32.604153      14.240631     -61.695903      11330.42     
     17900   380.11352      0.00895        0.15177133     0.14529497     0.15753408    -1495.519       571.01553      571.01553      571.01553      1.861846e+08   2.3357474     -13005829      -13005829       1131.9131     -13004697      -1497.8666     -1433.9498     -1554.7405     -32.679079      14.35159      -61.566732      11310.634    
     18000   379.76258      0.009          0.15237146     0.14586273     0.15811484    -1501.2716      571.04382      571.04382      571.04382      1.8621228e+08  2.3354002     -13005266      -13005266       1130.8681     -13004135      -1503.7894     -1439.5532     -1560.4721     -32.743683      14.461028     -61.437307      11317.829    
     18100   379.42236      0.00905        0.15296916     0.1464225      0.15868764    -1506.9638      571.07212      571.07212      571.07212      1.8623996e+08  2.3350531     -13004701      -13004701       1129.855      -13003571      -1509.6883     -1445.0778     -1566.1253     -32.795198      14.567381     -61.307403      11328.41     
     18200   379.09325      0.0091         0.1535652      0.14697505     0.15925263    -1512.601       571.10042      571.10042      571.10042      1.8626765e+08  2.334706      -13004133      -13004133       1128.875      -13003005      -1515.5706     -1450.531      -1571.7013     -32.831553      14.668926     -61.175109      11318.437    
     18300   378.77546      0.00915        0.15416024     0.1475215      0.15981029    -1518.1907      571.12872      571.12872      571.12872      1.8629534e+08  2.334359      -13003564      -13003564       1127.9286     -13002436      -1521.4433     -1455.924      -1577.2049     -32.850398      14.763576     -61.037677      11305.783    
     18400   378.46901      0.0092         0.15475479     0.14806324     0.16036163    -1523.7426      571.15701      571.15701      571.15701      1.8632303e+08  2.334012      -13002992      -13002992       1127.0161     -13001865      -1527.3111     -1461.2706     -1582.6463     -32.849078      14.850584     -60.893132      11319.89     
     18500   378.1737       0.00925        0.15534904     0.14860165     0.16090798    -1529.2661      571.18531      571.18531      571.18531      1.8635073e+08  2.3336651     -13002417      -13002417       1126.1367     -13001291      -1533.1758     -1466.5842     -1588.0383     -32.825314      14.929891     -60.739853      11343.655    
     18600   377.88907      0.0093         0.15594298     0.14913811     0.1614508     -1534.7706      571.21361      571.21361      571.21361      1.8637843e+08  2.3333183     -13001840      -13001840       1125.2891     -13000715      -1539.0376     -1471.8787     -1593.3955     -32.777846      15.000882     -60.576644      11272.454    
     18700   377.61446      0.00935        0.15653639     0.14967391     0.16199132    -1540.2636      571.24191      571.24191      571.24191      1.8640613e+08  2.3329716     -13001261      -13001261       1124.4714     -13000137      -1544.8941     -1477.1667     -1598.73       -32.706015      15.063067     -60.401156      11286.654    
     18800   377.34915      0.0094         0.15712876     0.15021004     0.1625303     -1545.7491      571.2702       571.2702       571.2702       1.8643383e+08  2.3326249     -13000680      -13000680       1123.6813     -12999556      -1550.7403     -1482.4578     -1604.0494     -32.609099      15.115645     -60.210854      11320.108    
     18900   377.09242      0.00945        0.15771943     0.15074734     0.16306838    -1551.23        571.2985       571.2985       571.2985       1.8646154e+08  2.3322783     -13000096      -13000096       1122.9168     -12998973      -1556.5698     -1487.7606     -1609.3598     -32.486807      15.158814     -60.004253      11311.74     
     19000   376.84371      0.0095         0.15830736     0.15128643     0.16360606    -1556.7065      571.3268       571.3268       571.3268       1.8648924e+08  2.3319318     -12999510      -12999510       1122.1762     -12998388      -1562.3722     -1493.081      -1614.6663     -32.338457      15.193999     -59.781085      11297.991    
     19100   376.60265      0.00955        0.15889133     0.15182759     0.16414366    -1562.1764      571.3551       571.3551       571.3551       1.8651696e+08  2.3315853     -12998922      -12998922       1121.4584     -12997801      -1568.1355     -1498.4219     -1619.972      -32.165225      15.222648     -59.542393      11323.333    
     19200   376.36917      0.0096         0.15947021     0.15237103     0.16468134    -1567.6374      571.38339      571.38339      571.38339      1.8654467e+08  2.3312389     -12998332      -12998332       1120.7631     -12997211      -1573.8487     -1503.7851     -1625.2784     -31.970708      15.245997     -59.290037      11312.297    
     19300   376.14343      0.00965        0.16004321     0.15291668     0.16521922    -1573.087       571.41169      571.41169      571.41169      1.8657239e+08  2.3308926     -12997739      -12997739       1120.0909     -12996619      -1579.5037     -1509.1703     -1630.587      -31.758542      15.265241     -59.024674      11289.159    
     19400   375.92586      0.0097         0.16060987     0.15346446     0.16575761    -1578.5243      571.43999      571.43999      571.43999      1.8660011e+08  2.3305464     -12997143      -12997143       1119.443      -12996024      -1585.0962     -1514.5764     -1635.9004     -31.5324        15.281594     -58.745618      11315.141    
     19500   375.71705      0.00975        0.16116995     0.1540141      0.1662968     -1583.9488      571.46829      571.46829      571.46829      1.8662783e+08  2.3302002     -12996546      -12996546       1118.8212     -12995427      -1590.6237     -1520.001      -1641.2218     -31.297114      15.296282     -58.45156       11298.832    
     19600   375.51775      0.0098         0.16172348     0.15456526     0.16683701    -1589.3601      571.49658      571.49658      571.49658      1.8665555e+08  2.329854      -12995946      -12995946       1118.2277     -12994828      -1596.0866     -1525.4405     -1646.5532     -31.057485      15.310529     -58.141877      11328.41     
     19700   375.32875      0.00985        0.16227073     0.1551177      0.16737844    -1594.759       571.52488      571.52488      571.52488      1.8668328e+08  2.329508      -12995344      -12995344       1117.6649     -12994226      -1601.4876     -1530.8927     -1651.8967     -30.818103      15.325561     -57.817474      11300.122    
     19800   375.15086      0.0099         0.16281215     0.15567108     0.16792127    -1600.1464      571.55318      571.55318      571.55318      1.8671101e+08  2.329162      -12994739      -12994739       1117.1352     -12993622      -1606.831      -1536.3541     -1657.2541     -30.583295      15.341957     -57.479256      11295.458    
     19900   374.98488      0.00995        0.16334828     0.15622521     0.16846573    -1605.5242      571.58148      571.58148      571.58148      1.8673875e+08  2.3288161     -12994132      -12994132       1116.6409     -12993016      -1612.1222     -1541.8229     -1662.6274     -30.357928      15.359066     -57.129463      11312.329    
     20000   374.83147      0.01           0.16387984     0.15678003     0.16901189    -1610.8948      571.60978      571.60978      571.60978      1.8676648e+08  2.3284702     -12993523      -12993523       1116.1841     -12992407      -1617.3682     -1547.2986     -1668.0176     -30.147214      15.374541     -56.771715      3542.3266    
     20100   374.69109      0.01005        0.16440778     0.15733558     0.1695597     -1616.2614      571.63807      571.63807      571.63807      1.8679422e+08  2.3281245     -12992912      -12992912       1115.7661     -12991796      -1622.5787     -1552.7815     -1673.4241     -29.954965      15.385713     -56.408795      11283.737    
     20200   374.56398      0.0101         0.16493298     0.15789178     0.1701089     -1621.6257      571.66637      571.66637      571.66637      1.8682196e+08  2.3277788     -12992299      -12992299       1115.3876     -12991183      -1627.762      -1558.2707     -1678.8443     -29.783846      15.389929     -56.042878      11289.23     
     20300   374.45013      0.01015        0.16545628     0.15844839     0.17065896    -1626.9879      571.69467      571.69467      571.69467      1.8684971e+08  2.3274331     -12991683      -12991683       1115.0485     -12990568      -1632.9266     -1563.7641     -1684.273      -29.636419      15.384172     -55.67684       11303.241    
     20400   374.34937      0.0102         0.16597872     0.15900543     0.17120905    -1632.3487      571.72297      571.72297      571.72297      1.8687746e+08  2.3270875     -12991065      -12991065       1114.7485     -12989950      -1638.0826     -1569.2615     -1689.702      -29.513797      15.36564      -55.314659      11312.561    
     20500   374.26128      0.01025        0.1665015      0.15956306     0.17175829    -1637.7098      571.75126      571.75126      571.75126      1.8690521e+08  2.326742      -12990445      -12990445       1114.4862     -12989330      -1643.242      -1574.765      -1695.1225     -29.416078      15.332676     -54.960572      11311.185    
     20600   374.18522      0.0103         0.16702572     0.16012144     0.17230592    -1643.0729      571.77956      571.77956      571.77956      1.8693296e+08  2.3263966     -12989822      -12989822       1114.2597     -12988708      -1648.4157     -1580.2758     -1700.5272     -29.342328      15.284998     -54.618906      11305.33     
     20700   374.1204       0.01035        0.16755222     0.16068059     0.17285116    -1648.4381      571.80786      571.80786      571.80786      1.8696071e+08  2.3260512     -12989197      -12989197       1114.0667     -12988083      -1653.6118     -1585.7941     -1705.9083     -29.291409      15.222661     -54.293625      11314.355    
     20800   374.06594      0.0104         0.16808142     0.16124045     0.17339341    -1653.8047      571.83616      571.83616      571.83616      1.8698847e+08  2.3257059     -12988570      -12988570       1113.9045     -12987456      -1658.8347     -1591.3196     -1711.2599     -29.26227       15.146506     -53.988786      11310.004    
     20900   374.0209       0.01045        0.16861352     0.16180103     0.17393222    -1659.1719      571.86445      571.86445      571.86445      1.8701623e+08  2.3253607     -12987941      -12987941       1113.7704     -12986827      -1664.0861     -1596.852      -1716.5775     -29.254467      15.057634     -53.708754      11319.825    
     21000   373.98433      0.0105         0.1691487      0.16236232     0.17446721    -1664.539       571.89275      571.89275      571.89275      1.87044e+08    2.3250155     -12987309      -12987309       1113.6615     -12986196      -1669.3679     -1602.3915     -1721.8575     -29.267142      14.957195     -53.45827       11296.996    
     21100   373.95528      0.01055        0.16968705     0.1629241      0.17499771    -1669.9033      571.92105      571.92105      571.92105      1.8707176e+08  2.3246704     -12986675      -12986675       1113.575      -12985562      -1674.681      -1607.9359     -1727.0931     -29.299324      14.847024     -53.242199      11306.914    
     21200   373.93295      0.0106         0.1702283      0.163486       0.17552294    -1675.2603      571.94935      571.94935      571.94935      1.8709953e+08  2.3243254     -12986039      -12986039       1113.5085     -12984926      -1680.0227     -1613.4813     -1732.2767     -29.349855      14.729213     -53.063764      11312.418    
     21300   373.91667      0.01065        0.17077194     0.1640476      0.17604255    -1680.6056      571.97764      571.97764      571.97764      1.871273e+08   2.3239805     -12985401      -12985401       1113.46       -12984287      -1685.388      -1619.0239     -1737.4049     -29.41691       14.605265     -52.923653      11332.648    
     21400   373.90593      0.0107         0.17131719     0.16460828     0.17655636    -1685.9341      572.00594      572.00594      572.00594      1.8715508e+08  2.3236356     -12984760      -12984760       1113.428      -12983647      -1690.7692     -1624.5574     -1742.4758     -29.497609      14.477398     -52.820774      11285.678    
     21500   373.90041      0.01075        0.17186327     0.16516748     0.1770642     -1691.2409      572.03424      572.03424      572.03424      1.8718286e+08  2.3232908     -12984117      -12984117       1113.4116     -12983004      -1696.1586     -1630.0763     -1747.4878     -29.588498      14.348651     -52.752939      11336.939    
     21600   373.89987      0.0108         0.17240978     0.16572489     0.17756621    -1696.524       572.06254      572.06254      572.06254      1.8721064e+08  2.322946      -12983472      -12983472       1113.41       -12982359      -1701.5523     -1635.5775     -1752.4422     -29.685757      14.222611     -52.716399      11330.976    
     21700   373.90404      0.01085        0.17295647     0.16628017     0.17806289    -1701.7831      572.09083      572.09083      572.09083      1.8723842e+08  2.3226013     -12982825      -12982825       1113.4224     -12981712      -1706.9476     -1641.0577     -1757.3441     -29.784894      14.10219      -52.707457      11321.217    
     21800   373.91267      0.0109         0.17350317     0.16683302     0.17855486    -1707.0189      572.11913      572.11913      572.11913      1.872662e+08   2.3222567     -12982176      -12982176       1113.4481     -12981062      -1712.3432     -1646.5139     -1762.1995     -29.882451      13.989372     -52.722517      11296.247    
[...]
    862900   333.11197      0.43145        0.049494253    0.049177569    0.048828224   -485.23742      810.12952      810.12952      810.12952      5.3169597e+08  0.81791141    -8019468.3     -8019468.3      991.95056     -8018476.4     -488.47029     -485.34487     -481.8971       4.2012947      8.5580679      7.6780633      10730.955    
    863000   333.11238      0.4315         0.049493124    0.049157099    0.048824518   -485.15418      810.15781      810.15781      810.15781      5.3175169e+08  0.8178257     -8019095.9     -8019095.9      991.95178     -8018104       -488.45916     -485.14285     -481.86053      4.1922678      8.5585589      7.640964       10734.346    
    863100   333.11118      0.43155        0.049491836    0.049136351    0.048821757   -485.0726       810.18611      810.18611      810.18611      5.3180741e+08  0.81774001    -8018723.6     -8018723.6      991.94821     -8017731.6     -488.44644     -484.93808     -481.83328      4.1825204      8.5513223      7.6084837      10748.705    
    863200   333.10835      0.4316         0.049490388    0.049115395    0.048819708   -484.99216      810.21441      810.21441      810.21441      5.3186313e+08  0.81765434    -8018351.3     -8018351.3      991.93978     -8017359.3     -488.43216     -484.73127     -481.81306      4.1719492      8.5366936      7.5808131      10740.123    
    863300   333.10394      0.43165        0.049488732    0.04909431     0.04881814    -484.91219      810.24271      810.24271      810.24271      5.3191886e+08  0.81756867    -8017979       -8017979        991.92667     -8016987.1     -488.41581     -484.52317     -481.79758      4.1605023      8.5152692      7.557978       10721.417    
    863400   333.09813      0.4317         0.049486735    0.049073157    0.048816792   -484.83159      810.271        810.271        810.271        5.319746e+08   0.81748302    -8017606.7     -8017606.7      991.90937     -8016614.8     -488.3961      -484.3144      -481.78427      4.1481458      8.4876284      7.5399175      10726.689    
    863500   333.09117      0.43175        0.049484271    0.049052029    0.048815372   -484.74931      810.2993       810.2993       810.2993       5.3203033e+08  0.81739737    -8017234.5     -8017234.5      991.88862     -8016242.6     -488.37179     -484.10589     -481.77026      4.1347016      8.4545889      7.5264606      10719.652    
    863600   333.08337      0.4318         0.04948125     0.049030992    0.04881354    -484.66414      810.3276       810.3276       810.3276       5.3208608e+08  0.81731174    -8016862.3     -8016862.3      991.86539     -8015870.5     -488.34197     -483.89827     -481.75219      4.1199968      8.4172432      7.517442       10721.982    
    863700   333.07515      0.43185        0.04947757     0.049010085    0.048810948   -484.57473      810.3559       810.3559       810.3559       5.3214182e+08  0.81722613    -8016490.2     -8016490.2      991.84091     -8015498.3     -488.30565     -483.69193     -481.7266       4.1040687      8.3766063      7.5124068      10708.336    
    863800   333.06699      0.4319         0.049473137    0.048989362    0.048807283   -484.47991      810.38419      810.38419      810.38419      5.3219757e+08  0.81714052    -8016118.1     -8016118.1      991.81662     -8015126.3     -488.2619      -483.48741     -481.69043      4.0870826      8.3337485      7.5108207      10714.616    
    863900   333.05941      0.43195        0.0494679      0.0489689      0.048802273   -484.37889      810.41249      810.41249      810.41249      5.3225332e+08  0.81705493    -8015746       -8015746        991.79406     -8014754.2     -488.21021     -483.28546     -481.64098      4.0693812      8.289609       7.5119878      10717.738    
    864000   333.05294      0.432          0.049461872    0.048948837    0.0487957     -484.27143      810.44079      810.44079      810.44079      5.3230908e+08  0.81696934    -8015374.1     -8015374.1      991.77478     -8014382.3     -488.15073     -483.08746     -481.57612      4.0514551      8.2447684      7.515008       10728.209    
    864100   333.04804      0.43205        0.049455143    0.048929366    0.048787447   -484.15809      810.46909      810.46909      810.46909      5.3236484e+08  0.81688377    -8015002.2     -8015002.2      991.76018     -8014010.4     -488.08432     -482.89529     -481.49467      4.0338697      8.1995256      7.5189338      10717.552    
    864200   333.04509      0.4321         0.049447821    0.048910652    0.048777478   -484.03964      810.49738      810.49738      810.49738      5.324206e+08   0.81679821    -8014630.4     -8014630.4      991.75141     -8013638.6     -488.01205     -482.7106      -481.39628      4.0169982      8.1540616      7.5227553      10727.972    
    864300   333.04438      0.43215        0.049439997    0.048892801    0.048765769   -483.91666      810.52568      810.52568      810.52568      5.3247637e+08  0.81671267    -8014258.7     -8014258.7      991.74931     -8013266.9     -487.93483     -482.53442     -481.28072      4.0010982      8.1085217      7.52585        10689.249    
    864400   333.04611      0.4322         0.049431769    0.048875927    0.048752375   -483.79002      810.55398      810.55398      810.55398      5.3253214e+08  0.81662713    -8013887.1     -8013887.1      991.75446     -8012895.3     -487.85363     -482.36789     -481.14853      3.986527       8.0632041      7.527936       10721.851    
    864500   333.05038      0.43225        0.049423246    0.048860106    0.048737435   -483.66079      810.58228      810.58228      810.58228      5.3258792e+08  0.81654161    -8013515.6     -8013515.6      991.76716     -8012523.8     -487.76952     -482.21176     -481.00109      3.9737536      8.0183317      7.5288212      10729.339    
    864600   333.05719      0.4323         0.049414481    0.048845334    0.048721092   -483.52959      810.61058      810.61058      810.61058      5.326437e+08   0.8164561     -8013144.2     -8013144.2      991.78744     -8012152.4     -487.68301     -482.06597     -480.8398       3.9632735      7.9739999      7.5284837      10727.771    
    864700   333.06649      0.43235        0.049405496    0.048831579    0.048703493   -483.39688      810.63887      810.63887      810.63887      5.3269948e+08  0.8163706     -8012772.9     -8012772.9      991.81513     -8011781.1     -487.59433     -481.93022     -480.6661       3.9553195      7.9300999      7.5271507      10709.559    
    864800   333.07816      0.4324         0.049396343    0.048818831    0.048684848   -483.2635       810.66717      810.66717      810.66717      5.3275527e+08  0.81628511    -8012401.7     -8012401.7      991.84987     -8011409.9     -487.50401     -481.80441     -480.48209      3.9500891      7.8864472      7.5251857      10738.849    
    864900   333.09199      0.43245        0.049387069    0.048807084    0.04866538    -483.1303       810.69547      810.69547      810.69547      5.3281106e+08  0.81619964    -8012030.6     -8012030.6      991.89108     -8011038.7     -487.41248     -481.68846     -480.28996      3.9480573      7.8428563      7.5229452      10739.822    
    865000   333.10775      0.4325         0.049377717    0.048796321    0.048645247   -482.99789      810.72377      810.72377      810.72377      5.3286686e+08  0.81611418    -8011659.6     -8011659.6      991.938       -8010667.7     -487.32018     -481.58225     -480.09126      3.9499356      7.7993233      7.5205185      10719.968    
    865100   333.12514      0.43255        0.049368337    0.048786542    0.048624573   -482.86686      810.75206      810.75206      810.75206      5.3292266e+08  0.81602873    -8011288.7     -8011288.7      991.98977     -8010296.8     -487.22761     -481.48573     -479.88723      3.9563714      7.755854       7.5176976      10710.29     
    865200   333.14383      0.4326         0.049358996    0.048777756    0.048603469   -482.7378       810.78036      810.78036      810.78036      5.3297846e+08  0.81594329    -8010917.9     -8010917.9      992.04545     -8009925.9     -487.13542     -481.39902     -479.67894      3.9677344      7.7121462      7.5143558      10736.832    
    865300   333.1635       0.43265        0.04934976     0.048769949    0.04858205    -482.61126      810.80866      810.80866      810.80866      5.3303427e+08  0.81585786    -8010547.2     -8010547.2      992.104       -8009555.1     -487.04426     -481.32197     -479.46756      3.9841569      7.6678924      7.510534       10691.711    
    865400   333.18376      0.4327         0.049340705    0.048763094    0.048560511   -482.48807      810.83696      810.83696      810.83696      5.3309008e+08  0.81577244    -8010176.6     -8010176.6      992.16436     -8009184.5     -486.9549      -481.25432     -479.25498      4.0055874      7.6227021      7.5062905      10715.595    
    865500   333.20428      0.43275        0.049331897    0.048757151    0.048539045   -482.36892      810.86525      810.86525      810.86525      5.331459e+08   0.81568704    -8009806.1     -8009806.1      992.22543     -8008813.8     -486.86797     -481.19566     -479.04313      4.0319222      7.576279       7.5017203      10733.578    
    865600   333.22467      0.4328         0.049323383    0.048752059    0.048517853   -482.25445      810.89355      810.89355      810.89355      5.3320172e+08  0.81560165    -8009435.6     -8009435.6      992.28616     -8008443.3     -486.78394     -481.14542     -478.83398      4.0627065      7.5285599      7.4969573      10743.569    
    865700   333.2446       0.43285        0.049315192    0.048747773    0.048497186   -482.14541      810.92185      810.92185      810.92185      5.3325754e+08  0.81551627    -8009065.2     -8009065.2      992.34551     -8008072.9     -486.7031      -481.10311     -478.63002      4.0972079      7.479642       7.4921172      10719.591    
    865800   333.26373      0.4329         0.049307367    0.048744295    0.048477276   -482.04273      810.95015      810.95015      810.95015      5.3331337e+08  0.8154309     -8008694.9     -8008694.9      992.40248     -8007702.5     -486.62588     -481.06879     -478.43351      4.1344203      7.4297218      7.4872107      10732.606    
    865900   333.28171      0.43295        0.049299951    0.048741631    0.04845834    -481.94727      810.97844      810.97844      810.97844      5.333692e+08   0.81534555    -8008324.6     -8008324.6      992.45602     -8007332.2     -486.55269     -481.04249     -478.24663      4.1730661      7.3787773      7.4821386      10710.892    
    866000   333.29817      0.433          0.049292993    0.048739741    0.048440577   -481.85973      811.00674      811.00674      811.00674      5.3342503e+08  0.8152602     -8007954.4     -8007954.4      992.50502     -8006961.9     -486.48402     -481.02384     -478.07132      4.2117391      7.3267311      7.4767384      10746.752    
    866100   333.31274      0.43305        0.049286508    0.048738545    0.048424187   -481.78054      811.03504      811.03504      811.03504      5.3348087e+08  0.81517487    -8007584.2     -8007584.2      992.54843     -8006591.7     -486.42002     -481.01204     -477.90957      4.2491537      7.2737042      7.4707447      10746.396    
    866200   333.3251       0.4331         0.049280515    0.048737997    0.048409376   -481.7103       811.06334      811.06334      811.06334      5.3353671e+08  0.81508955    -8007214.1     -8007214.1      992.58524     -8006221.5     -486.36087     -481.00664     -477.76339      4.2844816      7.220137       7.4639425      10734.995    
    866300   333.33497      0.43315        0.049274982    0.04873801     0.048396267   -481.64901      811.09163      811.09163      811.09163      5.3359256e+08  0.81500424    -8006844       -8006844        992.61463     -8005851.4     -486.30626     -481.00676     -477.63402      4.3172096      7.166679       7.4564884      10705.691    
    866400   333.34215      0.4332         0.049269841    0.048738481    0.048384894   -481.59624      811.11993      811.11993      811.11993      5.3364841e+08  0.81491895    -8006474       -8006474        992.636       -8005481.3     -486.25553     -481.0114      -477.52178      4.3469259      7.1141181      7.4486897      10750.688    
    866500   333.34649      0.43325        0.049265053    0.048739356    0.048375281   -481.55174      811.14823      811.14823      811.14823      5.3370426e+08  0.81483366    -8006103.9     -8006103.9      992.64892     -8005111.2     -486.20827     -481.02005     -477.4269       4.3732356      7.0631567      7.4406747      10714.679    
    866600   333.3479       0.4333         0.04926061     0.048740602    0.048367456   -481.51548      811.17653      811.17653      811.17653      5.3376012e+08  0.81474839    -8005733.8     -8005733.8      992.65311     -8004741.2     -486.16442     -481.03235     -477.34968      4.3959633      7.0144673      7.432561       10724.028    
    866700   333.34632      0.43335        0.049256456    0.048742139    0.048361405   -481.48697      811.20482      811.20482      811.20482      5.3381598e+08  0.81466313    -8005363.8     -8005363.8      992.64843     -8004371.1     -486.12342     -481.04751     -477.28996      4.4150565      6.9686743      7.4245828      10728.056    
    866800   333.3418       0.4334         0.049252509    0.048743836    0.048357059   -481.46526      811.23312      811.23312      811.23312      5.3387185e+08  0.81457788    -8004993.7     -8004993.7      992.63495     -8004001       -486.08447     -481.06426     -477.24706      4.4307626      6.9266835      7.4169474      10732.592    
    866900   333.33441      0.43345        0.049248725    0.048745594    0.048354339   -481.44965      811.26142      811.26142      811.26142      5.3392772e+08  0.81449264    -8004623.5     -8004623.5      992.61296     -8003630.9     -486.04712     -481.0816      -477.22022      4.4434729      6.8894912      7.4097046      10730.098    
    867000   333.32434      0.4335         0.049245044    0.048747364    0.04835316    -481.43949      811.28972      811.28972      811.28972      5.3398359e+08  0.81440742    -8004253.4     -8004253.4      992.58298     -8003260.8     -486.0108      -481.09908     -477.20858      4.4538541      6.8579479      7.4029156      10737.04     
    867100   333.31182      0.43355        0.049241419    0.048749145    0.048353424   -481.43429      811.31801      811.31801      811.31801      5.3403947e+08  0.81432221    -8003883.2     -8003883.2      992.5457      -8002890.6     -485.97502     -481.11666     -477.21119      4.4625617      6.8326888      7.3965711      10712.943    
    867200   333.29713      0.4336         0.049237778    0.048750963    0.048355025   -481.43356      811.34631      811.34631      811.34631      5.3409535e+08  0.81423701    -8003512.9     -8003512.9      992.50193     -8002520.4     -485.93909     -481.1346      -477.22699      4.4702531      6.8141929      7.3905032      10703.342    
    867300   333.28056      0.43365        0.049234045    0.048752882    0.048357844   -481.43686      811.37461      811.37461      811.37461      5.3415123e+08  0.81415182    -8003142.6     -8003142.6      992.4526      -8002150.1     -485.90225     -481.15353     -477.25481      4.4775663      6.8025573      7.3845231      10714.76     
    867400   333.26248      0.4337         0.049230147    0.048754944    0.048361746   -481.44366      811.40291      811.40291      811.40291      5.3420712e+08  0.81406664    -8002772.2     -8002772.2      992.39875     -8001779.8     -485.86378     -481.17388     -477.29332      4.4848191      6.7976758      7.3784968      10681.945    
    867500   333.24324      0.43375        0.04922604     0.0487572      0.048366623   -481.45362      811.4312       811.4312       811.4312       5.3426302e+08  0.81398147    -8002401.8     -8002401.8      992.34146     -8001409.5     -485.82324     -481.19615     -477.34145      4.4923814      6.7994887      7.3721261      10699.251    
    867600   333.22321      0.4338         0.049221676    0.048759731    0.048372409   -481.46662      811.4595       811.4595       811.4595       5.3431891e+08  0.81389632    -8002031.4     -8002031.4      992.28182     -8001039.1     -485.78017     -481.22113     -477.39856      4.500561       6.8079693      7.3652136      10706.787    
    867700   333.20274      0.43385        0.049216978    0.048762614    0.048379056   -481.48252      811.4878       811.4878       811.4878       5.3437481e+08  0.81381118    -8001660.9     -8001660.9      992.22087     -8000668.7     -485.73381     -481.24958     -477.46416      4.5094103      6.8231431      7.3576974      10716.576    
    867800   333.18215      0.4339         0.049211877    0.048765975    0.048386544   -481.50143      811.5161       811.5161       811.5161       5.3443072e+08  0.81372605    -8001290.3     -8001290.3      992.15954     -8000298.2     -485.68346     -481.28275     -477.53806      4.5187604      6.8449199      7.349789       10704.078    
    867900   333.16169      0.43395        0.049206301    0.048769959    0.048394821   -481.52342      811.54439      811.54439      811.54439      5.3448663e+08  0.81364093    -8000919.8     -8000919.8      992.09861     -7999927.7     -485.62844     -481.32207     -477.61975      4.5285333      6.872806       7.3418725      10723.004    
    868000   333.14157      0.434          0.049200188    0.048774664    0.048403807   -481.54835      811.57269      811.57269      811.57269      5.3454254e+08  0.81355583    -8000549.1     -8000549.1      992.03871     -7999557.1     -485.5681      -481.36851     -477.70843      4.5386996      6.9060678      7.3342057      10725.963    
    868100   333.12197      0.43405        0.04919352     0.048780167    0.048413409   -481.5761       811.60099      811.60099      811.60099      5.3459846e+08  0.81347073    -8000178.5     -8000178.5      991.98035     -7999186.5     -485.50229     -481.42281     -477.8032       4.5490315      6.9439806      7.3270913      10716.725    
    868200   333.10304      0.4341         0.049186342    0.048786524    0.048423582   -481.60687      811.62929      811.62929      811.62929      5.3465438e+08  0.81338565    -7999807.8     -7999807.8      991.92396     -7998815.9     -485.43146     -481.48555     -477.9036       4.5591999      6.9853605      7.3212981      10730.132    
    868300   333.08487      0.43415        0.049178763    0.04879376     0.048434291   -481.64097      811.65758      811.65758      811.65758      5.347103e+08   0.81330058    -7999437       -7999437        991.86988     -7998445.1     -485.35666     -481.55697     -478.00929      4.5690242      7.0288457      7.317879       10687.87     
    868400   333.06757      0.4342         0.049170906    0.048801874    0.048445527   -481.67878      811.68588      811.68588      811.68588      5.3476623e+08  0.81321552    -7999066.2     -7999066.2      991.81834     -7998074.4     -485.27912     -481.63705     -478.12018      4.5784742      7.0731495      7.3178854      10729.213    
    868500   333.05117      0.43425        0.04916286     0.048810823    0.048457313   -481.72053      811.71418      811.71418      811.71418      5.3482216e+08  0.81313047    -7998695.3     -7998695.3      991.76951     -7997703.6     -485.1997      -481.72537     -478.2365       4.5874582      7.1171021      7.3220891      10738.48     
    868600   333.0357       0.4343         0.049154708    0.048820485    0.048469686   -481.7662       811.74248      811.74248      811.74248      5.348781e+08   0.81304544    -7998324.4     -7998324.4      991.72343     -7997332.7     -485.11925     -481.82073     -478.35861      4.5959899      7.1595238      7.3312633      10736.357    
ERROR on proc 0: Pair distance > table outer cutoff: ijtype 2 1 dist 147.89002738878227 (src/pair_table_pgn.cpp:138)
Last command: run				${steps_tensile}
