LAMMPS (23 Jun 2022 - Update 1)
OMP_NUM_THREADS environment is not set. Defaulting to 1 thread. (src/comm.cpp:98)
  using 1 OpenMP thread(s) per MPI task
###

# Read restart info
read_restart ${read_res}
read_restart ./10000/equpmf71.res
Reading restart file ...
  restart file = 23 Jun 2022, LAMMPS = 23 Jun 2022
  restoring atom style atomic from restart
  orthogonal box = (2258.0531 2258.0531 2258.0531) to (2741.9469 2741.9469 2741.9469)
  1 by 2 by 2 MPI processor grid
  restoring pair style table from restart
  1000 atoms
  read_restart CPU = 0.004 seconds

# Settings
pair_style table/pgn spline 9941
pair_coeff 1 1 N20.txt DE_GNP 147.89 72.9   # 1.35 * r
pair_coeff 2 2 N100.txt DE_GNP 473.9 111.78
WARNING: 3 of 9941 force values in table DE_GNP are inconsistent with -dE/dr.
WARNING:  Should only be flagged at inflection points (src/pair_table_pgn.cpp:478)
pair_coeff 1 2 mixed_potential.txt DE_GNP 391.2 92.95
WARNING: 1562 of 9941 force values in table DE_GNP are inconsistent with -dE/dr.
WARNING:  Should only be flagged at inflection points (src/pair_table_pgn.cpp:478)

# Neighbor list
neighbor 2.0 bin
neigh_modify delay 0 every 1 check no once yes

# Temperature
variable T equal ${Temp}
variable T equal 300

# Deformation
reset_timestep 0
variable tmp equal "lx"
variable L0 equal ${tmp}
variable L0 equal 483.893836390007
variable strain equal "(lx - v_L0)/v_L0"
variable stp equal "step"
variable tmpe equal "temp"
variable p1 equal "v_strain"
variable p2 equal "-pxx*1.01325/10000"
variable p3 equal "-pyy*1.01325/10000"
variable p4 equal "-pzz*1.01325/10000"
variable p5 equal "lx"
variable p6 equal "ly"
variable p7 equal "lz"
variable p8 equal "press"
variable p9 equal "epair"
variable p10 equal "etotal"

# Thermo
thermo_style custom step temp v_p1 v_p2 v_p3 v_p4 press lx ly lz vol density epair pe ke etotal pxx pyy pzz pxy pxz pyz spcpu
thermo ${ts_save}
thermo 100

# Dump
# dump 1 all custom 2000 ./${N20}${N100}/tensile/trajectory/trajectory_${usic}_${trial}_*.tensile.custom id type x y z ix iy iz
# dump_modify 1 sort id
dump 2 all cfg 20000 ./${N20}${N100}/tensile/trajectory/dumpten.tens_${usic}_${trial}_*.cfg mass type xs ys zs fx fy fz
dump 2 all cfg 20000 ./1000${N100}/tensile/trajectory/dumpten.tens_${usic}_${trial}_*.cfg mass type xs ys zs fx fy fz
dump 2 all cfg 20000 ./10000/tensile/trajectory/dumpten.tens_${usic}_${trial}_*.cfg mass type xs ys zs fx fy fz
dump 2 all cfg 20000 ./10000/tensile/trajectory/dumpten.tens_2_${trial}_*.cfg mass type xs ys zs fx fy fz
dump 2 all cfg 20000 ./10000/tensile/trajectory/dumpten.tens_2_5_*.cfg mass type xs ys zs fx fy fz
dump_modify 2 element N20 N100

fix 1 all nvt temp ${T} ${T} 100
fix 1 all nvt temp 300 ${T} 100
fix 1 all nvt temp 300 300 100
fix 2 all deform 1 x erate ${strain_rate} y erate ${strain_rate} z erate ${strain_rate} units box
fix 2 all deform 1 x erate 5e-6 y erate ${strain_rate} z erate ${strain_rate} units box
fix 2 all deform 1 x erate 5e-6 y erate 5e-6 z erate ${strain_rate} units box
fix 2 all deform 1 x erate 5e-6 y erate 5e-6 z erate 5e-6 units box
fix             def1 all print ${ts_save} "${p1} ${p2} ${p3} ${p4}" file ./tensile/tensile${N20}${N100}_${usic}_${trial}.txt screen no
fix             def1 all print 100 "${p1} ${p2} ${p3} ${p4}" file ./tensile/tensile${N20}${N100}_${usic}_${trial}.txt screen no
fix             def1 all print 100 "${p1} ${p2} ${p3} ${p4}" file ./tensile/tensile1000${N100}_${usic}_${trial}.txt screen no
fix             def1 all print 100 "${p1} ${p2} ${p3} ${p4}" file ./tensile/tensile10000_${usic}_${trial}.txt screen no
fix             def1 all print 100 "${p1} ${p2} ${p3} ${p4}" file ./tensile/tensile10000_2_${trial}.txt screen no
fix             def1 all print 100 "${p1} ${p2} ${p3} ${p4}" file ./tensile/tensile10000_2_5.txt screen no

timestep       		${ts}
timestep       		0.1
run				${steps_tensile}
run				6000000
Generated 0 of 1 mixed pair_coeff terms from geometric mixing rule
Unused restart file global fix info:
  fix style: npt, fix ID: 5
Neighbor list info ...
  update every 1 steps, delay 0 steps, check no
  max neighbors/atom: 2000, page size: 100000
  master list distance cutoff = 113.78
  ghost atom cutoff = 113.78
  binsize = 56.89, bins = 9 9 9
  1 neighbor lists, perpetual/occasional/extra = 1 0 0
  (1) pair table/pgn, perpetual
      attributes: half, newton on
      pair build: half/bin/atomonly/newton
      stencil: half/bin/3d
      bin: standard
Per MPI rank memory allocation (min/avg/max) = 3.867 | 3.869 | 3.871 Mbytes
   Step          Temp           v_p1           v_p2           v_p3           v_p4          Press            Lx             Ly             Lz           Volume        Density         E_pair         PotEng         KinEng         TotEng          Pxx            Pyy            Pzz            Pxy            Pxz            Pyz           S/CPU     
         0   304.60471      0             -0.027140681    0.054301821   -0.032605812    17.911578      483.89384      483.89384      483.89384      1.1330531e+08  3.2513235     -5827523       -5827523        907.06082     -5826615.9      267.85769     -535.9173       321.79434      8.2592598      22.440408      341.59209      0            
       100   304.44976      5e-05         -0.025443928    0.056086595   -0.030800497    0.5192203      483.91803      483.91803      483.91803      1.1332231e+08  3.2508358     -5827524.4     -5827524.4      906.59939     -5826617.8      251.11204     -553.53166      303.97728      7.7305287      22.53839       341.87897      9576.5242    
       200   304.20868      0.0001        -0.023744044    0.057862796   -0.028986287   -16.884496      483.94223      483.94223      483.94223      1.1333931e+08  3.2503483     -5827521.3     -5827521.3      905.88151     -5826615.4      234.3355      -571.0614       286.07241      7.1760596      22.673909      342.10823      9616.6856    
       300   303.88568      0.00015       -0.022060982    0.059607246   -0.027185374   -34.08468       483.96642      483.96642      483.96642      1.1335631e+08  3.2498608     -5827513.7     -5827513.7      904.91966     -5826608.8      217.72497     -588.27778      268.29878      6.6148133      22.843469      342.27089      9631.7595    
       400   303.48498      0.0002        -0.020397422    0.061315405   -0.025401588   -51.044972      483.99062      483.99062      483.99062      1.1337331e+08  3.2493735     -5827501.7     -5827501.7      903.72645     -5826597.9      201.3069      -605.136        250.69418      6.0610974      23.045177      342.36143      9647.186     
       500   303.01077      0.00025       -0.018755448    0.06298341    -0.02363796    -67.735838      484.01481      484.01481      484.01481      1.1339031e+08  3.2488862     -5827485.3     -5827485.3      902.31433     -5826583        185.10188     -621.59792      233.28853      5.527682       23.276969      342.37586      9659.4307    
       600   302.46695      0.0003        -0.017136447    0.064608378   -0.021896638   -84.136173      484.039        484.039        484.039        1.1340732e+08  3.248399      -5827464.7     -5827464.7      900.69491     -5826564        169.12358     -637.63511      216.10302      5.0296003      23.536722      342.31323      9680.7623    
       700   301.85688      0.00035       -0.015541798    0.066188279   -0.020179384   -100.22896      484.0632       484.0632       484.0632       1.1342432e+08  3.247912      -5827440       -5827440        898.87823     -5826541.2      153.38562     -653.22753      199.15503      4.5799696      23.821719      342.17499      9674.3657    
       800   301.18321      0.0004        -0.013972704    0.067721259   -0.018488089   -115.99792      484.08739      484.08739      484.08739      1.1344133e+08  3.247425      -5827411.4     -5827411.4      896.87217     -5826514.5      137.89986     -668.35686      182.46325      4.1884594      24.127074      341.9627       9653.1563    
       900   300.44775      0.00045       -0.012430103    0.069205988   -0.016824623   -131.42943      484.11159      484.11159      484.11159      1.1345834e+08  3.2469381     -5827378.8     -5827378.8      894.68208     -5826484.1      122.67558     -683.01         166.04612      3.8606942      24.446874      341.67894      9629.1988    
      1000   299.65135      0.0005        -0.010914265    0.070642202   -0.01519056    -146.51658      484.13578      484.13578      484.13578      1.1347535e+08  3.2464514     -5827342.6     -5827342.6      892.31054     -5826450.3      107.71542     -697.18432      149.91917      3.6004407      24.77508       341.32715      9558.1022    
      1100   298.794        0.00055       -0.0094249411   0.072030678   -0.013587391   -161.25782      484.15998      484.15998      484.15998      1.1349237e+08  3.2459647     -5827302.7     -5827302.7      889.75752     -5826413        93.016937     -710.88752      134.09712      3.4117647      25.106349      340.90968      9675.8597    
      1200   297.87517      0.0006        -0.0079612979   0.073373339   -0.012016222   -175.65859      484.18417      484.18417      484.18417      1.1350938e+08  3.2454781     -5827259.3     -5827259.3      887.0214      -5826372.3      78.571901     -724.13855      118.59089      3.3021888      25.436407      340.42845      9669.0291    
      1300   296.89441      0.00065       -0.0065217944   0.074673174   -0.010477696   -189.73167      484.20837      484.20837      484.20837      1.135264e+08   3.2449916     -5827212.6     -5827212.6      884.10086     -5826328.5      64.365106     -736.96693      103.40682      3.278932       25.762862      339.88551      9632.4275    
      1400   295.85241      0.0007        -0.0051045614   0.075934198   -0.0089721667  -203.49525      484.23256      484.23256      484.23256      1.1354342e+08  3.2445052     -5827162.5     -5827162.5      880.99797     -5826281.5      50.378104     -749.41227      88.5484        3.3455265      26.083066      339.28456      9655.2226    
      1500   294.7524       0.00075       -0.0037075504   0.077160563   -0.0075000155  -216.96849      484.25676      484.25676      484.25676      1.1356044e+08  3.244019      -5827109.1     -5827109.1      877.72233     -5826231.4      36.590677     -761.51555      74.019398      3.5035369      26.393908      338.63166      9652.6755    
      1600   293.60171      0.0008        -0.002328549    0.078356257   -0.0060611794  -230.17198      484.28095      484.28095      484.28095      1.1357746e+08  3.2435328     -5827052.7     -5827052.7      874.29577     -5826178.4      22.980992     -773.31613      59.81919       3.7495838      26.69169       337.93332      9653.5887    
      1700   292.41321      0.00085       -0.00096525971  0.079525479   -0.0046550569  -243.12908      484.30515      484.30515      484.30515      1.1359449e+08  3.2430467     -5826993.1     -5826993.1      870.75661     -5826122.4      9.5263726     -784.85545      45.94184       4.0774532      26.971661      337.19858      9668.6786    
      1800   291.20612      0.0009         0.0003845359   0.080672264   -0.0032803586  -255.8646       484.32934      484.32934      484.32934      1.1361151e+08  3.2425607     -5826930.6     -5826930.6      867.1621      -5826063.5     -3.7950742     -796.17334      32.374622      4.4812649      27.227325      336.44094      9661.384     
      1900   290.00589      0.00095        0.0017229575   0.081800511   -0.0019347964  -268.40586      484.35354      484.35354      484.35354      1.1362854e+08  3.2420748     -5826865.1     -5826865.1      863.58803     -5826001.5     -17.004269     -807.30827      19.094956      4.952525       27.451464      335.67867      9684.5575    
      2000   288.84291      0.001          0.0030522663   0.082914027   -0.00061546763 -280.78238      484.37773      484.37773      484.37773      1.1364557e+08  3.241589      -5826796.7     -5826796.7      860.12487     -5825936.5     -30.123526     -818.29782      6.0741932      5.4815422      27.637821      334.93257      9661.1823    
      2100   287.75037      0.00105        0.0043749232   0.084016345    0.00068076044 -293.02419      484.40192      484.40192      484.40192      1.136626e+08   3.2411033     -5826725.2     -5826725.2      856.87146     -5825868.4     -43.177135     -829.17686     -6.7185832      6.0582588      27.781427      334.22212      9676.3325    
      2200   286.76191      0.0011         0.0056931904   0.08511097     0.0019573214  -305.16155      484.42612      484.42612      484.42612      1.1367963e+08  3.2406177     -5826650.9     -5826650.9      853.92801     -5825796.9     -56.187421     -839.97997     -19.31726       6.6709637      27.87838       333.56686      9696.0511    
      2300   285.90978      0.00115        0.0070091149   0.086201182    0.0032173245  -317.22221      484.45031      484.45031      484.45031      1.1369667e+08  3.2401322     -5826573.6     -5826573.6      851.39051     -5825722.2     -69.174586     -850.73952     -31.752524      7.3062033      27.926175      332.98422      9669.4031    
      2400   285.22388      0.0012         0.008324647    0.087289918    0.0044632502  -329.23041      484.47451      484.47451      484.47451      1.137137e+08   3.2396467     -5826493.4     -5826493.4      849.348       -5825644.1     -82.157878     -861.48451     -44.048855      7.9479954      27.922704      332.48684      9655.1434    
      2500   284.73202      0.00125        0.0096414027   0.088379623    0.0056972729  -341.20668      484.4987       484.4987       484.4987       1.1373074e+08  3.2391614     -5826410.4     -5826410.4      847.88334     -5825562.5     -95.153247     -872.23907     -56.227712      8.5825054      27.867351      332.08349      9670.8422    
      2600   284.46116      0.0013         0.010960375    0.089472125    0.0069212728  -353.16645      484.5229       484.5229       484.5229       1.1374778e+08  3.2386762     -5826324.4     -5826324.4      847.07675     -5825477.3     -108.17049     -883.02122     -68.307651      9.1975892      27.762022      331.77711      9676.7454    
      2700   284.43915      0.00135        0.012281797    0.090568938    0.0081370744  -365.1215       484.54709      484.54709      484.54709      1.1376482e+08  3.2381911     -5826235.6     -5826235.6      847.01122     -5825388.6     -121.21191     -893.84592     -80.306681      9.7818608      27.610615      331.56819      9672.8151    
      2800   284.69651      0.0014         0.013605844    0.09167205     0.0093470301  -377.08668      484.57129      484.57129      484.57129      1.1378186e+08  3.2377061     -5826143.8     -5826143.8      847.7776      -5825296       -134.27924     -904.73279     -92.248015      10.321591      27.418727      331.45565      9653.1656    
      2900   285.26716      0.00145        0.014933115    0.092783808    0.010553816   -389.08048      484.59548      484.59548      484.59548      1.1379891e+08  3.2372211     -5826049.2     -5826049.2      849.47689     -5825199.7     -147.37839     -915.70499     -104.15807      10.80543       27.193232      331.43687      9657.4195    
      3000   286.18689      0.0015         0.016263875    0.093906279    0.011760118   -401.11941      484.61968      484.61968      484.61968      1.1381595e+08  3.2367363     -5825951.6     -5825951.6      852.21568     -5825099.4     -160.51196     -926.78291     -116.06335      11.224294      26.939535      331.50819      9676.2435    
      3100   287.4878       0.00155        0.017597956    0.09504132     0.012968446   -413.21728      484.64387      484.64387      484.64387      1.13833e+08    3.2362516     -5825851       -5825851        856.08957     -5824994.9     -173.67832     -937.9849      -127.98861      11.569006      26.660185      331.66449      9574.6097    
      3200   289.18685      0.0016         0.018934803    0.09619079     0.014180609   -425.38433      484.66807      484.66807      484.66807      1.1385005e+08  3.2357669     -5825747.4     -5825747.4      861.14905     -5824886.3     -186.87198     -949.32928     -139.95173      11.833256      26.356676      331.89878      9565.9745    
      3300   291.26882      0.00165        0.020273448    0.097356151    0.01539795    -437.62661      484.69226      484.69226      484.69226      1.138671e+08   3.2352824     -5825640.8     -5825640.8      867.34882     -5824773.4     -200.08338     -960.8305      -151.96595      12.011753      26.033608      332.20142      9564.7951    
      3400   293.66885      0.0017         0.021612426    0.098538209    0.016621605   -449.94569      484.71646      484.71646      484.71646      1.1388415e+08  3.2347979     -5825531.1     -5825531.1      874.49569     -5824656.6     -213.29807     -972.49651     -164.04249      12.099719      25.69848       332.55868      9560.6472    
      3500   296.26576      0.00175        0.02295032     0.099737197    0.017852691   -462.34134      484.74065      484.74065      484.74065      1.1390121e+08  3.2343136     -5825418.2     -5825418.2      882.22884     -5824536       -226.50205     -984.3296      -176.19236      12.096197      25.361925      332.95561      9832.8842    
      3600   298.89768      0.0018         0.024286123    0.10095281     0.019092218   -474.81256      484.76485      484.76485      484.76485      1.1391826e+08  3.2338293     -5825302.2     -5825302.2      890.06624     -5824412.1     -239.6854      -996.32675     -188.42554      12.003605      25.03531       333.37646      9835.184     
      3700   301.39858      0.00185        0.025619375    0.10218412     0.020340843   -487.35697      484.78904      484.78904      484.78904      1.1393532e+08  3.2333452     -5825182.9     -5825182.9      897.51349     -5824285.4     -252.84358     -1008.4788     -200.74851      11.826158      24.72976       333.80317      9848.2425    
      3800   303.63736      0.0019         0.026950239    0.10343007     0.021598808   -499.97241      484.81323      484.81323      484.81323      1.1395238e+08  3.2328611     -5825060.4     -5825060.4      904.18022     -5824156.2     -265.97818     -1020.7754     -213.16366      11.571339      24.453828      334.21799      10878.593    
      3900   305.5386       0.00195        0.02827925     0.10468963     0.022866767   -512.65943      484.83743      484.83743      484.83743      1.1396944e+08  3.2323772     -5824934.7     -5824934.7      909.84177     -5824024.9     -279.0945      -1033.2064     -225.67745      11.250317      24.21416       334.60347      11115.166    
      4000   307.07931      0.002          0.029606873    0.10596124     0.024145827   -525.41802      484.86162      484.86162      484.86162      1.139865e+08   3.2318933     -5824805.8     -5824805.8      914.42974     -5823891.4     -292.19712     -1045.7562     -238.30078      10.875434      24.017575      334.94394      11123.935    
      4100   308.27192      0.00205        0.030933515    0.10724291     0.02543659    -538.24498      484.88582      484.88582      484.88582      1.1400357e+08  3.2314095     -5824673.6     -5824673.6      917.98113     -5823755.7     -305.29005     -1058.4052     -251.03962      10.45831       23.871659      335.2262       11078.557    
      4200   309.14586      0.0021         0.032259896    0.10853243     0.026739432   -551.13664      484.91001      484.91001      484.91001      1.1402064e+08  3.2309259     -5824538.3     -5824538.3      920.58357     -5823617.7     -318.38042     -1071.1318     -263.89767      10.010801      23.782677      335.43738      11092.989    
      4300   309.7346       0.00215        0.033587024    0.10982725     0.028054701   -564.08908      484.93421      484.93421      484.93421      1.140377e+08   3.2304423     -5824399.7     -5824399.7      922.33675     -5823477.3     -331.47815     -1083.9107     -276.87838      9.5448975      23.751894      335.56424      11093.066    
      4400   310.06904      0.0022         0.034915508    0.11112472     0.02938257    -577.09614      484.9584       484.9584       484.9584       1.1405477e+08  3.2299588     -5824257.8     -5824257.8      923.33264     -5823334.5     -344.58927     -1096.7157     -289.98342      9.0730164      23.77751       335.59931      11123.459    
      4500   310.17523      0.00225        0.036245213    0.11242279     0.030723123   -590.15091      484.9826       484.9826       484.9826       1.1407184e+08  3.2294754     -5824112.7     -5824112.7      923.64886     -5823189       -357.71244     -1109.5267     -303.21365      8.6058693      23.855677      335.54165      11083.045    
      4600   310.07458      0.0023         0.037575645    0.11371993     0.032076467   -603.2471       485.00679      485.00679      485.00679      1.1408892e+08  3.2289921     -5823964.3     -5823964.3      923.34914     -5823040.9     -370.84278     -1122.3284     -316.57012      8.1514329      23.983314      335.39491      11124.015    
      4700   309.78502      0.00235        0.038906324    0.11501448     0.033442535   -616.37745      485.03099      485.03099      485.03099      1.1410599e+08  3.228509      -5823812.6     -5823812.6      922.48689     -5822890.1     -383.97556     -1135.1046     -330.05216      7.71839        24.157181      335.16392      11105.359    
      4800   309.32247      0.0024         0.040237147    0.11630512     0.034820997   -629.53618      485.05518      485.05518      485.05518      1.1412307e+08  3.2280259     -5823657.6     -5823657.6      921.10948     -5822736.5     -397.10977     -1147.8422     -343.65652      7.3115351      24.371508      334.85528      11125.745    
      4900   308.70215      0.00245        0.041569198    0.11759091     0.036211332   -642.72205      485.07938      485.07938      485.07938      1.1414015e+08  3.2275429     -5823499.4     -5823499.4      919.2623      -5822580.1     -410.25609     -1160.532      -357.37806      6.934265       24.618795      334.47572      11089.769    
      5000   307.9399       0.0025         0.042903876    0.11887034     0.037612601   -655.93163      485.10357      485.10357      485.10357      1.1415723e+08  3.22706       -5823337.9     -5823337.9      916.99245     -5822420.9     -423.42833     -1173.1591     -371.20751      6.5895648      24.89058       334.03173      9016.1789    
      5100   307.05319      0.00255        0.044242668    0.1201418      0.039023239   -669.15931      485.12777      485.12777      485.12777      1.1417431e+08  3.2265772     -5823173.1     -5823173.1      914.35197     -5822258.7     -436.64118     -1185.7073     -385.12943      6.2775038      25.178032      333.53081      11010.885    
      5200   306.0619       0.0026         0.045587458    0.12140447     0.040441463   -682.4028       485.15196      485.15196      485.15196      1.1419139e+08  3.2260945     -5823005       -5823005        911.40008     -5822093.6     -449.91323     -1198.169      -399.12621      5.9956161      25.470352      332.97894      11084.568    
      5300   304.98864      0.00265        0.046940803    0.12265816     0.041866285   -695.66659      485.17616      485.17616      485.17616      1.1420848e+08  3.2256118     -5822833.6     -5822833.6      908.20409     -5821925.4     -463.26971     -1210.5419     -413.18811      5.7462448      25.755163      332.38216      11137.704    
      5400   303.85864      0.0027         0.048305268    0.12390361     0.043297811   -708.96188      485.20035      485.20035      485.20035      1.1422557e+08  3.2251293     -5822658.8     -5822658.8      904.83916     -5821754       -476.73592     -1222.8335     -427.31617      5.5354208      26.02129       331.74764      11114.382    
      5500   302.69919      0.00275        0.049682394    0.12514211     0.044736088   -722.29819      485.22454      485.22454      485.22454      1.1424265e+08  3.2246469     -5822480.8     -5822480.8      901.38651     -5821579.4     -490.3271      -1235.0566     -441.51086      5.3679819      26.257592      331.08024      11089.121    
      5600   301.53861      0.0028         0.051072543    0.12637491     0.046180525   -735.67883      485.24874      485.24874      485.24874      1.1425974e+08  3.2241646     -5822299.4     -5822299.4      897.9305      -5821401.4     -504.04681     -1247.2233     -455.76634      5.2465149      26.455372      330.38151      11085.543    
      5700   300.40494      0.00285        0.052475345    0.1276036      0.047630594   -749.10614      485.27293      485.27293      485.27293      1.1427684e+08  3.2236824     -5822114.7     -5822114.7      894.55462     -5821220.1     -517.89139     -1259.3496     -470.07742      5.1694582      26.611678      329.65044      11087.254    
      5800   299.32443      0.0029         0.053889991    0.1288303      0.049086213   -762.58409      485.29713      485.29713      485.29713      1.1429393e+08  3.2232002     -5821926.7     -5821926.7      891.33704     -5821035.4     -531.85286     -1271.4562     -484.44326      5.133422       26.728809      328.88463      11072.276    
      5900   298.32014      0.00295        0.055315702    0.13005725     0.050547381   -776.11755      485.32132      485.32132      485.32132      1.1431103e+08  3.2227182     -5821735.4     -5821735.4      888.34643     -5820847.1     -545.92353     -1283.5652     -498.86387      5.1335101      26.809129      328.08431      11049.964    
      6000   297.41094      0.003          0.056752107    0.1312867      0.052013707   -789.71137      485.34552      485.34552      485.34552      1.1432812e+08  3.2222363     -5821540.9     -5821540.9      885.63898     -5820655.2     -560.09975     -1295.699      -513.33538      5.1638217      26.854757      327.25184      11069.91     
      6100   296.61098      0.00305        0.058198597    0.13252047     0.053484333   -803.36673      485.36971      485.36971      485.36971      1.1434522e+08  3.2217544     -5821342.9     -5821342.9      883.25684     -5820459.7     -574.3755      -1307.8754     -527.84932      5.2187424      26.868296      326.39127      11111.967    
      6200   295.92979      0.0031         0.05965429     0.13375967     0.054958118   -817.08061      485.39391      485.39391      485.39391      1.1436232e+08  3.2212727     -5821141.6     -5821141.6      881.22837     -5820260.4     -588.74207     -1320.1053     -542.39446      5.2925657      26.853781      325.50943      11083.231    
      6300   295.37269      0.00315        0.061119015    0.13500467     0.056434106   -830.85055      485.4181       485.4181       485.4181       1.1437942e+08  3.220791      -5820936.9     -5820936.9      879.56942     -5820057.4     -603.19778     -1332.3925     -556.96132      5.379684       26.816573      324.61428      11105.091    
      6400   294.94144      0.0032         0.062592458    0.13625543     0.057910835   -844.67051      485.4423       485.4423       485.4423       1.1439653e+08  3.2203095     -5820728.8     -5820728.8      878.28524     -5819850.5     -617.73953     -1344.7365     -571.53551      5.4767498      26.760043      323.71502      11066.539    
      6500   294.63508      0.00325        0.064073385    0.13751156     0.059386079   -858.52792      485.46649      485.46649      485.46649      1.1441363e+08  3.219828      -5820517.1     -5820517.1      877.37295     -5819639.7     -632.35514     -1357.1336     -586.09503      5.5834077      26.685722      322.82203      11085.597    
      6600   294.4507       0.0033         0.065559892    0.13877223     0.060857629   -872.40645      485.49069      485.49069      485.49069      1.1443074e+08  3.2193466     -5820301.8     -5820301.8      876.8239      -5819425       -647.02582     -1369.5754     -600.6181       5.7024993      26.596916      321.94653      11074.331    
      6700   294.38409      0.00335        0.0670496      0.14003618     0.062323233   -886.28676      485.51488      485.51488      485.51488      1.1444785e+08  3.2188654     -5820083       -5820083        876.62555     -5819206.3     -661.72811     -1382.0497     -615.08249      5.8363201      26.499361      321.09888      11100.653    
      6800   294.43029      0.0034         0.068540249    0.14130238     0.063780809   -900.15113      485.53908      485.53908      485.53908      1.1446496e+08  3.2183842     -5819860.6     -5819860.6      876.76313     -5818983.8     -676.43966     -1394.5461     -629.46765      5.9852787      26.401622      320.29235      11100.864    
      6900   294.58405      0.00345        0.07002942     0.14256929     0.06522858    -913.98071      485.56327      485.56327      485.56327      1.1448207e+08  3.2179031     -5819634.6     -5819634.6      877.22101     -5818757.3     -691.13664     -1407.0494     -643.75603      6.1473617      26.309144      319.54059      11110.744    
      7000   294.84029      0.0035         0.071514686    0.14383433     0.066664947   -927.75382      485.58746      485.58746      485.58746      1.1449919e+08  3.2174222     -5819405       -5819405        877.98404     -5818527       -705.79508     -1419.5345     -657.93188      6.3179783      26.223136      318.85329      11105.708    
      7100   295.19448      0.00355        0.07299417     0.1450947      0.068088632   -941.4508       485.61166      485.61166      485.61166      1.145163e+08   3.2169413     -5819171.9     -5819171.9      879.03877     -5818292.9     -720.39645     -1431.9734     -671.98255      6.490086       26.1441        318.23559      11066.298    
      7200   295.64306      0.0036         0.074466258    0.14634776     0.069498483   -955.05388      485.63585      485.63585      485.63585      1.1453342e+08  3.2164605     -5818935.3     -5818935.3      880.37454     -5818054.9     -734.92482     -1444.3401     -685.8967       6.657691       26.070456      317.69137      11097.651    
      7300   296.18382      0.00365        0.075929566    0.14759089     0.070893435   -968.54641      485.66005      485.66005      485.66005      1.1455054e+08  3.2159798     -5818695.1     -5818695.1      881.98485     -5817813.1     -749.36655     -1456.6089     -699.6638       6.8173891      25.994596      317.22473      11112.735    
      7400   296.81657      0.0037         0.077383049    0.14882155     0.072272539   -981.91343      485.68424      485.68424      485.68424      1.1456766e+08  3.2154992     -5818451.4     -5818451.4      883.86907     -5817567.5     -763.71132     -1468.7545     -713.2745       6.9659143      25.908481      316.84027      11127.402    
      7500   297.54391      0.00375        0.078825732    0.15003756     0.073634927   -995.14178      485.70844      485.70844      485.70844      1.1458478e+08  3.2150187     -5818204.3     -5818204.3      886.03494     -5817318.3     -777.94949     -1480.7556     -726.72023      7.0985779      25.806088      316.53985      11113.596    
      7600   298.37237      0.0038         0.080256631    0.15123747     0.074979943   -1008.2212      485.73263      485.73263      485.73263      1.1460191e+08  3.2145383     -5817953.8     -5817953.8      888.50196     -5817065.3     -792.07137     -1492.5978     -739.9945       7.2096725      25.684198      316.3245       11120.949    
      7700   299.31401      0.00385        0.081675005    0.15241964     0.076307015   -1021.1421      485.75683      485.75683      485.75683      1.1461903e+08  3.214058      -5817700       -5817700        891.30602     -5816808.7     -806.06962     -1504.2649     -753.09169      7.2919603      25.541021      316.19457      11084.576    
      7800   300.38839      0.0039         0.083080236    0.15358266     0.077616259   -1033.898       485.78102      485.78102      485.78102      1.1463616e+08  3.2135778     -5817443       -5817443        894.50534     -5816548.5     -819.93818     -1515.743      -766.01292      7.3375049      25.372993      316.14639      11095.23     
      7900   301.62463      0.00395        0.084472275    0.15472596     0.078909342   -1046.4926      485.80522      485.80522      485.80522      1.1465329e+08  3.2130977     -5817182.9     -5817182.9      898.18666     -5816284.7     -833.67654     -1527.0265     -778.77465      7.3410743      25.173746      316.16742      11102.247    
      8000   303.06244      0.004          0.085852256    0.15585053     0.080188753   -1058.9408      485.82941      485.82941      485.82941      1.1467042e+08  3.2126176     -5816919.7     -5816919.7      902.46819     -5816017.2     -847.29589     -1538.1251     -791.40146      7.2991449      24.936268      316.24182      11111.628    
      8100   304.74955      0.00405        0.087221538    0.15695831     0.081457557   -1071.2638      485.85361      485.85361      485.85361      1.1468755e+08  3.2121377     -5816653.5     -5816653.5      907.49213     -5815746       -860.80965     -1549.0581     -803.92358      7.2080784      24.656527      316.35519      11059.702    
      8200   306.7316       0.0041         0.088580892    0.15805153     0.082719566   -1083.4838      485.8778       485.8778       485.8778       1.1470469e+08  3.2116579     -5816384.4     -5816384.4      913.39432     -5815471       -874.22543     -1559.8473     -816.37865      7.0653794      24.334078      316.49318      11108.451    
      8300   309.03159      0.00415        0.089931073    0.1591325      0.083978268   -1095.6225      485.902        485.902        485.902        1.1472183e+08  3.2111782     -5816112.4     -5816112.4      920.2433      -5815192.1     -887.55068     -1570.5157     -828.80106      6.8709808      23.970817      316.63885      10642.399    
      8400   311.6235       0.0042         0.091273072    0.16020366     0.085236823   -1107.7015      485.92619      485.92619      485.92619      1.1473896e+08  3.2106985     -5815837.5     -5815837.5      927.96156     -5814909.5     -900.79518     -1581.0872     -841.22204      6.628107       23.570876      316.77625      10755.357    
      8500   314.4146       0.00425        0.092608163    0.16126761     0.086498589   -1119.7446      485.95039      485.95039      485.95039      1.147561e+08   3.210219      -5815559.7     -5815559.7      936.27299     -5814623.4     -913.97151     -1591.5876     -853.6747       6.3420959      23.13942       316.88747      11081.651    
      8600   317.25289      0.0043         0.093937563    0.16232697     0.087766788   -1131.775       485.97458      485.97458      485.97458      1.1477324e+08  3.2097395     -5815279.1     -5815279.1      944.72494     -5814334.4     -927.09167     -1602.0426     -866.19085      6.0198608      22.682964      316.95621      11021.815    
      8700   319.96065      0.00435        0.095262544    0.16338382     0.089044568   -1143.8142      485.99877      485.99877      485.99877      1.1479039e+08  3.2092602     -5814995.6     -5814995.6      952.78817     -5814042.8     -940.16821     -1612.4729     -878.80156      5.6723236      22.21127       316.9685       10801.229    
      8800   322.37512      0.0044         0.096584025    0.16443994     0.090334791   -1155.8804      486.02297      486.02297      486.02297      1.1480753e+08  3.2087809     -5814709.2     -5814709.2      959.97805     -5813749.3     -953.21021     -1622.896      -891.53508      5.3123152      21.735344      316.91275      11083.593    
      8900   324.3739       0.00445        0.097902761    0.16549697     0.091639709   -1167.989       486.04716      486.04716      486.04716      1.1482468e+08  3.2083018     -5814420       -5814420        965.93008     -5813454       -966.22513     -1633.3281     -904.41361      4.9550511      21.266045      316.78045      11091.803    
      9000   325.87761      0.0045         0.099219674    0.16655653     0.09296046    -1180.1519      486.07136      486.07136      486.07136      1.1484183e+08  3.2078227     -5814127.7     -5814127.7      970.40786     -5813157.3     -979.22205     -1643.7851     -917.44841      4.6167349      20.814191      316.56941      11097.757    
      9100   326.83804      0.00455        0.10053571     0.16762022     0.09429763    -1192.3795      486.09555      486.09555      486.09555      1.1485898e+08  3.2073437     -5813832.5     -5813832.5      973.26787     -5812859.2     -992.21028     -1654.2829     -930.64525      4.310526       20.389943      316.28221      11068.481    
      9200   327.2236       0.0046         0.10185197     0.16868956     0.095650981   -1204.6797      486.11975      486.11975      486.11975      1.1487613e+08  3.2068649     -5813534.1     -5813534.1      974.416       -5812559.7     -1005.2008     -1664.8366     -944.00178      4.046148       20.001839      315.92256      11091.292    
      9300   327.00991      0.00465        0.10316972     0.16976554     0.097019421   -1217.0563      486.14394      486.14394      486.14394      1.1489328e+08  3.2063861     -5813232.7     -5813232.7      973.77969     -5812258.9     -1018.206      -1675.4556     -957.50724      3.8323284      19.658676      315.49283      11091.883    
      9400   326.17994      0.0047         0.10448932     0.17084842     0.098401096   -1229.5052      486.16814      486.16814      486.16814      1.1491044e+08  3.2059074     -5812928       -5812928        971.30816     -5811956.7     -1031.2294     -1686.1428     -971.14331      3.6764804      19.368217      314.9953       11110.124    
      9500   324.73615      0.00475        0.10581017     0.17193777     0.099793464   -1242.0147      486.19233      486.19233      486.19233      1.1492759e+08  3.2054288     -5812620.1     -5812620.1      967.00881     -5811653.1     -1044.2652     -1696.8939     -984.88492      3.5847418      19.134284      314.43042      11100.457    
      9600   322.72539      0.0048         0.10713169     0.17303254     0.10119406    -1254.5712      486.21653      486.21653      486.21653      1.1494475e+08  3.2049503     -5812309.1     -5812309.1      961.0211      -5811348       -1057.3076     -1707.6984     -998.70772      3.5609278      18.960658      313.79888      11099.256    
      9700   320.26806      0.00485        0.10845345     0.17413168     0.10260073    -1267.163       486.24072      486.24072      486.24072      1.1496191e+08  3.2044719     -5811994.7     -5811994.7      953.70359     -5811041       -1070.3524     -1718.5461     -1012.5904      3.6073379      18.852185      313.10752      11109.153    
      9800   317.5688       0.0049         0.10977545     0.1752338      0.10401067    -1279.776       486.26492      486.26492      486.26492      1.1497907e+08  3.2039936     -5811677.2     -5811677.2      945.66567     -5810731.5     -1083.3994     -1729.4231     -1026.5055      3.7239712      18.816311      312.3694       11079.323    
      9900   314.88137      0.00495        0.11109806     0.17633723     0.10542033    -1292.3945      486.28911      486.28911      486.28911      1.1499624e+08  3.2035154     -5811356.3     -5811356.3      937.66296     -5810418.7     -1096.4526     -1740.3132     -1040.4178      3.907578       18.858324      311.59819      11100.516    
     10000   312.43149      0.005          0.11242166     0.17744029     0.10682651    -1305.0036      486.31331      486.31331      486.31331      1.150134e+08   3.2030373     -5811032.3     -5811032.3      930.36761     -5810101.9     -1109.5155     -1751.1995     -1054.2957      4.1539741      18.980271      310.80412      11078.166    
     10100   310.34723      0.00505        0.11374672     0.17854131     0.108226      -1317.5887      486.3375       486.3375       486.3375       1.1503057e+08  3.2025593     -5810704.9     -5810704.9      924.16104     -5809780.7     -1122.5928     -1762.0658     -1068.1076      4.4562555      19.179239      309.99521      11084.774    
     10200   308.64544      0.0051         0.11507313     0.17963848     0.10961552    -1330.1329      486.36169      486.36169      486.36169      1.1504774e+08  3.2020813     -5810374.3     -5810374.3      919.09341     -5809455.2     -1135.6835     -1772.894      -1081.8211      4.8040606      19.449058      309.18081      11089.97     
     10300   307.27         0.00515        0.11640027     0.18073036     0.11099239    -1342.6204      486.38589      486.38589      486.38589      1.1506491e+08  3.2016035     -5810040.4     -5810040.4      914.99759     -5809125.4     -1148.7814     -1783.67       -1095.4098      5.1840305      19.779776      308.36979      11120.775    
     10400   306.14119      0.0052         0.11772694     0.18181566     0.1123541     -1355.0348      486.41008      486.41008      486.41008      1.1508208e+08  3.2011258     -5809703.3     -5809703.3      911.63617     -5808791.6     -1161.8745     -1794.3811     -1108.8487      5.5804249      20.158297      307.56918      11081.385    
     10500   305.18687      0.00525        0.11905164     0.1828933      0.11369819    -1367.3596      486.43428      486.43428      486.43428      1.1509926e+08  3.2006481     -5809363       -5809363        908.79439     -5808454.2     -1174.9483     -1805.0165     -1122.1139      5.9798981      20.569424      306.78522      11101.365    
     10600   304.35309      0.0053         0.12037268     0.18396273     0.11502212    -1379.579       486.45847      486.45847      486.45847      1.1511643e+08  3.2001706     -5809019.5     -5809019.5      906.31152     -5808113.2     -1187.986      -1815.571      -1135.18        6.3725388      21.000334      306.02597      11120.456    
     10700   303.6034       0.00535        0.12168864     0.18502391     0.11632378    -1391.6813      486.48267      486.48267      486.48267      1.1513361e+08  3.1996932     -5808673       -5808673        904.07908     -5807768.9     -1200.9735     -1826.044      -1148.0265      6.7494891      21.441952      305.29804      11129.47     
     10800   302.91498      0.0054         0.12299801     0.18607696     0.11760189    -1403.6577      486.50686      486.50686      486.50686      1.1515079e+08  3.1992158     -5808323.4     -5808323.4      902.0291      -5807421.4     -1213.896      -1836.4368     -1160.6404      7.1019704      21.885808      304.60405      11102.339    
     10900   302.27467      0.00545        0.12429925     0.18712201     0.11885589    -1415.5018      486.53106      486.53106      486.53106      1.1516797e+08  3.1987385     -5807970.9     -5807970.9      900.12234     -5807070.8     -1226.7382     -1846.7507     -1173.0164      7.4230185      22.326054      303.94549      11092.611    
     11000   301.67585      0.0055         0.12559122     0.18815888     0.12008598    -1427.2097      486.55525      486.55525      486.55525      1.1518515e+08  3.1982614     -5807615.4     -5807615.4      898.33917     -5806717.1     -1239.4889     -1856.9838     -1185.1565      7.7072336      22.755807      303.32248      11125.24     
     11100   301.11637      0.00555        0.12687279     0.18918775     0.12129318    -1438.7819      486.57945      486.57945      486.57945      1.1520234e+08  3.1977843     -5807257.1     -5807257.1      896.67312     -5806360.4     -1252.1371     -1867.1379     -1197.0706      7.95053        23.16961       302.73607      11112.049    
     11200   300.59692      0.0056         0.12814272     0.19020926     0.12247892    -1450.2209      486.60364      486.60364      486.60364      1.1521952e+08  3.1973073     -5806895.9     -5806895.9      895.12631     -5806000.8     -1264.6703     -1877.2195     -1208.7729      8.1517867      23.566071      302.18735      11122.024    
     11300   300.12001      0.00565        0.12940013     0.19122428     0.12364488    -1461.5323      486.62784      486.62784      486.62784      1.1523671e+08  3.1968305     -5806531.9     -5806531.9      893.70613     -5805638.2     -1277.08       -1887.2369     -1220.2801      8.309005       23.944019      301.67578      11110.978    
     11400   299.68894      0.0057         0.13064504     0.19223379     0.1247927     -1472.7248      486.65203      486.65203      486.65203      1.152539e+08   3.1963537     -5806165.1     -5806165.1      892.4225      -5805272.7     -1289.3663     -1897.2        -1231.6082      8.421787       24.302696      301.20043      11114.963    
     11500   299.30727      0.00575        0.13187766     0.19323851     0.12592403    -1483.8069      486.67623      486.67623      486.67623      1.1527109e+08  3.195877      -5805795.6     -5805795.6      891.28593     -5804904.3     -1301.5313     -1907.1158     -1242.7736      8.4917071      24.640566      300.76071      11108.703    
     11600   298.97829      0.0058         0.13309761     0.19423908     0.12704066    -1494.7853      486.70042      486.70042      486.70042      1.1528828e+08  3.1954004     -5805423.3     -5805423.3      890.30629     -5804533       -1313.5713     -1916.9907     -1253.7939      8.5217874      24.957268      300.35507      11126.955    
     11700   298.70471      0.00585        0.13430418     0.1952362      0.12814482    -1505.6672      486.72462      486.72462      486.72462      1.1530548e+08  3.1949239     -5805048.5     -5805048.5      889.4916      -5804159       -1325.4792     -1926.8315     -1264.6911      8.5162172      25.251913      299.97886      11095.811    
     11800   298.48834      0.0059         0.13549744     0.1962306      0.12923936    -1516.4649      486.74881      486.74881      486.74881      1.1532267e+08  3.1944475     -5804670.9     -5804670.9      888.8473      -5803782.1     -1337.2558     -1936.6455     -1275.4934      8.4805595      25.521223      299.62433      11108        
     11900   298.32993      0.00595        0.13667766     0.19722285     0.13032725    -1527.1906      486.773        486.773        486.773        1.1533987e+08  3.1939712     -5804290.8     -5804290.8      888.37559     -5803402.4     -1348.9036     -1946.4382     -1286.23        8.4207797      25.761619      299.28147      11101.091    
     12000   298.22905      0.006          0.13784531     0.1982131      0.13141084    -1537.8543      486.7972       486.7972       486.7972       1.1535707e+08  3.193495      -5803908       -5803908        888.07519     -5803019.9     -1360.4275     -1956.2112     -1296.9242      8.3420724      25.969171      298.94068      11114.949    
     12100   298.18407      0.00605        0.13900124     0.1992015      0.13249244    -1548.4667      486.82139      486.82139      486.82139      1.1537427e+08  3.1930189     -5803522.6     -5803522.6      887.94123     -5802634.7     -1371.8356     -1965.966      -1307.5987      8.2480638      26.14024       298.59318      11087.24     
     12200   298.19211      0.0061         0.1401469      0.20018815     0.13357453    -1559.0413      486.84559      486.84559      486.84559      1.1539147e+08  3.1925428     -5803134.7     -5803134.7      887.96519     -5802246.7     -1383.1423     -1975.7034     -1318.2782      8.1414064      26.270141      298.228        11104.463    
     12300   298.24918      0.00615        0.14128384     0.20117297     0.13465945    -1569.5905      486.86978      486.86978      486.86978      1.1540868e+08  3.1920669     -5802744.2     -5802744.2      888.13512     -5801856       -1394.3631     -1985.4229     -1328.9855      8.0257967      26.356863      297.83387      11084.524    
     12400   298.3502       0.0062         0.1424137      0.20215618     0.13574964    -1580.1283      486.89398      486.89398      486.89398      1.1542588e+08  3.1915911     -5802351.1     -5802351.1      888.43596     -5801462.7     -1405.5139     -1995.1263     -1339.7448      7.9035958      26.400105      297.40047      11068.647    
     12500   298.48921      0.00625        0.1435381      0.20313786     0.13684742    -1590.6682      486.91817      486.91817      486.91817      1.1544309e+08  3.1911153     -5801955.5     -5801955.5      888.84989     -5801066.7     -1416.6109     -2004.8148     -1350.579       7.7757006      26.399625      296.91982      11094.493    
     12600   298.65938      0.0063         0.14465889     0.20411802     0.13795509    -1601.2238      486.94237      486.94237      486.94237      1.154603e+08   3.1906397     -5801557.4     -5801557.4      889.35663     -5800668       -1427.6723     -2014.4883     -1361.5108      7.640817       26.355884      296.38626      11099.009    
     12700   298.85313      0.00635        0.14577852     0.20509676     0.13907527    -1611.812       486.96656      486.96656      486.96656      1.1547751e+08  3.1901641     -5801156.7     -5801156.7      889.93358     -5800266.8     -1438.7222     -2024.1477     -1372.5662      7.4984795      26.272145      295.79698      11115.573    
     12800   299.06221      0.0064         0.14689901     0.20607393     0.14020987    -1622.4453      486.99076      486.99076      486.99076      1.1549473e+08  3.1896887     -5800753.5     -5800753.5      890.55619     -5799862.9     -1449.7805     -2033.7916     -1383.7638      7.3496282      26.152286      295.15075      11114.226    
     12900   299.27787      0.00645        0.14802194     0.20704976     0.14136047    -1633.1349      487.01495      487.01495      487.01495      1.1551194e+08  3.1892133     -5800347.7     -5800347.7      891.1984      -5799456.5     -1460.8629     -2043.4223     -1395.1193      7.1940269      25.996787      294.44475      11120.998    
     13000   299.49096      0.0065         0.14914884     0.20802492     0.14252814    -1643.8914      487.03915      487.03915      487.03915      1.1552916e+08  3.188738      -5799939.3     -5799939.3      891.83295     -5799047.4     -1471.9846     -2053.0463     -1406.6434      7.0305092      25.803913      293.67604      11073.981    
     13100   299.69207      0.00655        0.15028112     0.20899994     0.1437131     -1654.7221      487.06334      487.06334      487.06334      1.1554638e+08  3.1882629     -5799528.2     -5799528.2      892.4318      -5798635.8     -1483.1593     -2062.669      -1418.338       6.8575043      25.572752      292.84343      11097.914    
     13200   299.8717       0.0066         0.15141986     0.20997539     0.14491541    -1665.6326      487.08754      487.08754      487.08754      1.155636e+08   3.1877878     -5799114.4     -5799114.4      892.96672     -5798221.5     -1494.3978     -2072.296      -1430.2039      6.6746262      25.300974      291.94822      11131.006    
     13300   300.02046      0.00665        0.15256611     0.21095225     0.146135      -1676.6292      487.11173      487.11173      487.11173      1.1558082e+08  3.1873128     -5798697.9     -5798697.9      893.40969     -5797804.5     -1505.7104     -2081.9368     -1442.2403      6.4830958      24.987215      290.99581      11120.551    
     13400   300.12918      0.0067         0.15372099     0.21193136     0.14737107    -1687.7158      487.13593      487.13593      487.13593      1.1559804e+08  3.1868379     -5798278.6     -5798278.6      893.73346     -5797384.9     -1517.1083     -2091.5999     -1454.4394      6.2863507      24.632251      289.99329      11103.408    
     13500   300.18926      0.00675        0.15488507     0.21291313     0.14862198    -1698.8903      487.16012      487.16012      487.16012      1.1561527e+08  3.1863631     -5797856.5     -5797856.5      893.91236     -5796962.6     -1528.5968     -2101.2892     -1466.7849      6.087837       24.240138      288.95164      11092.396    
     13600   300.19297      0.0068         0.15605875     0.21389784     0.14988573    -1710.1482      487.18431      487.18431      487.18431      1.1563249e+08  3.1858884     -5797431.5     -5797431.5      893.9234      -5796537.5     -1540.1801     -2111.0075     -1479.2571      5.8908234      23.816731      287.88532      11080.881    
     13700   300.13385      0.00685        0.15724214     0.21488554     0.15115988    -1721.4822      487.20851      487.20851      487.20851      1.1564972e+08  3.1854138     -5797003.5     -5797003.5      893.74736     -5796109.8     -1551.8593     -2120.7554     -1491.8321      5.697627       23.367692      286.8102       11087.999    
     13800   300.0072       0.0069         0.15843493     0.21587616     0.15244146    -1732.8812      487.2327       487.2327       487.2327       1.1566695e+08  3.1849393     -5796572.6     -5796572.6      893.37021     -5795679.3     -1563.6312     -2130.5321     -1504.4803      5.510125       22.899774      285.74306      11101.543    
     13900   299.81048      0.00695        0.15963677     0.21686988     0.15372728    -1744.334       487.2569       487.2569       487.2569       1.1568418e+08  3.1844649     -5796138.8     -5796138.8      892.78443     -5795246       -1575.4924     -2140.3393     -1517.1703      5.3327461      22.42299       284.69958      11122.753    
     14000   299.54386      0.007          0.16084694     0.21786681     0.15501383    -1755.8272      487.28109      487.28109      487.28109      1.1570142e+08  3.1839905     -5795701.9     -5795701.9      891.99046     -5794809.9     -1587.4358     -2150.1783     -1529.8676      5.1713032      21.949295      283.69332      11088.232    
     14100   299.21064      0.00705        0.16206433     0.21886686     0.15629728    -1767.3442      487.30529      487.30529      487.30529      1.1571865e+08  3.1835163     -5795261.9     -5795261.9      890.9982      -5794370.9     -1599.4505     -2160.0479     -1542.5343      5.0307681      21.490715      282.73567      11085.995    
     14200   298.81768      0.0071         0.16328752     0.21986967     0.15757379    -1778.8666      487.32948      487.32948      487.32948      1.1573589e+08  3.1830422     -5794818.9     -5794818.9      889.82802     -5793929.1     -1611.5225     -2169.945      -1555.1324      4.9142254      21.058138      281.83562      11109.994    
     14300   298.37546      0.00715        0.16451492     0.22087485     0.15883942    -1790.3748      487.35368      487.35368      487.35368      1.1575313e+08  3.1825681     -5794372.9     -5794372.9      888.51118     -5793484.4     -1623.636      -2179.8652     -1567.6232      4.8237584      20.66179       281.00202      11135.281    
     14400   297.89805      0.0072         0.16574454     0.22188164     0.16009055    -1801.8479      487.37787      487.37787      487.37787      1.1577037e+08  3.1820942     -5793923.8     -5793923.8      887.08953     -5793036.7     -1635.7714     -2189.8015     -1579.9709      4.7617996      20.310368      280.2435       11117.977    
     14500   297.4026       0.00725        0.16697444     0.2228889      0.16132339    -1813.2634      487.40207      487.40207      487.40207      1.1578761e+08  3.1816203     -5793471.8     -5793471.8      885.61415     -5792586.2     -1647.9096     -2199.7424     -1592.1381      4.7311536      20.011713      279.56824      11088.159    
     14600   296.90852      0.0073         0.16820299     0.22389541     0.16253474    -1824.6012      487.42626      487.42626      487.42626      1.1580486e+08  3.1811466     -5793016.8     -5793016.8      884.14288     -5792132.6     -1660.0344     -2209.6759     -1604.0932      4.733444       19.771358      278.98347      11070.72     
     14700   296.43632      0.00735        0.16942945     0.22490019     0.16372301    -1835.8505      487.45046      487.45046      487.45046      1.158221e+08   3.1806729     -5792558.9     -5792558.9      882.73673     -5791676.1     -1672.1387     -2219.5923     -1615.8205      4.7691798      19.592315      278.49104      11105.643    
     14800   296.0062       0.0074         0.17065335     0.22590219     0.16488721    -1847.003       487.47465      487.47465      487.47465      1.1583935e+08  3.1801993     -5792098.1     -5792098.1      881.45592     -5791216.6     -1684.2176     -2229.4812     -1627.3102      4.840738       19.478302      278.08787      11130.995    
     14900   295.63687      0.00745        0.17187448     0.22690038     0.16602657    -1858.0522      487.49885      487.49885      487.49885      1.158566e+08   3.1797258     -5791634.4     -5791634.4      880.3561      -5790754.1     -1696.2692     -2239.3326     -1638.5548      4.9489715      19.432841      277.76994      11082.747    
     15000   295.34436      0.0075         0.17309271     0.22789367     0.1671412     -1868.9944      487.52304      487.52304      487.52304      1.1587385e+08  3.1792525     -5791168       -5791168        879.48509     -5790288.5     -1708.2922     -2249.1357     -1649.5554      5.0931743      19.458909      277.53176      11091.15     
     15100   295.14135      0.00755        0.17430769     0.22888089     0.16823216    -1879.8281      487.54723      487.54723      487.54723      1.158911e+08   3.1787792     -5790698.9     -5790698.9      878.88055     -5789820       -1720.2831     -2258.8788     -1660.3223      5.2712973      19.555704      277.36499      11124.947    
     15200   295.03662      0.0076         0.17551875     0.22986146     0.16930093    -1890.554       487.57143      487.57143      487.57143      1.1590836e+08  3.178306      -5790227.1     -5790227.1      878.56867     -5789348.5     -1732.2354     -2268.5562     -1670.8703      5.48066        19.719179      277.2595       11121.918    
     15300   295.03489      0.00765        0.17672525     0.23083505     0.17034912    -1901.1742      487.59562      487.59562      487.59562      1.