LAMMPS (23 Jun 2022 - Update 1)
OMP_NUM_THREADS environment is not set. Defaulting to 1 thread. (src/comm.cpp:98)
  using 1 OpenMP thread(s) per MPI task
###

# Read restart info
read_restart ${read_res}
read_restart ./900100/equpmf71.res
Reading restart file ...
  restart file = 23 Jun 2022, LAMMPS = 23 Jun 2022
WARNING: Restart file used different # of processors: 1 vs. 4 (src/read_restart.cpp:654)
  restoring atom style atomic from restart
  orthogonal box = (2230.2129 2230.2129 2230.2129) to (2769.7871 2769.7871 2769.7871)
  1 by 2 by 2 MPI processor grid
  restoring pair style table from restart
  1000 atoms
  read_restart CPU = 0.399 seconds

# Settings
pair_style table/pgn spline 9941
pair_coeff 1 1 N20.txt DE_GNP 147.89 72.9   # 1.35 * r
pair_coeff 2 2 N100.txt DE_GNP 473.9 111.78
WARNING: 3 of 9941 force values in table DE_GNP are inconsistent with -dE/dr.
WARNING:  Should only be flagged at inflection points (src/pair_table_pgn.cpp:478)
pair_coeff 1 2 mixed_potential.txt DE_GNP 391.2 92.95
WARNING: 1562 of 9941 force values in table DE_GNP are inconsistent with -dE/dr.
WARNING:  Should only be flagged at inflection points (src/pair_table_pgn.cpp:478)

# Neighbor list
neighbor 2.0 bin
neigh_modify delay 0 every 1 check no once yes

# Temperature
variable T equal ${Temp}
variable T equal 300

# Deformation
reset_timestep 0
variable tmp equal "lx"
variable L0 equal ${tmp}
variable L0 equal 539.5741875287
variable strain equal "(lx - v_L0)/v_L0"
variable stp equal "step"
variable tmpe equal "temp"
variable p1 equal "v_strain"
variable p2 equal "-pxx*1.01325/10000"
variable p3 equal "-pyy*1.01325/10000"
variable p4 equal "-pzz*1.01325/10000"
variable p5 equal "lx"
variable p6 equal "ly"
variable p7 equal "lz"
variable p8 equal "press"
variable p9 equal "epair"
variable p10 equal "etotal"

# Thermo
thermo_style custom step temp v_p1 v_p2 v_p3 v_p4 press lx ly lz vol density epair pe ke etotal pxx pyy pzz pxy pxz pyz spcpu
thermo ${ts_save}
thermo 100

# Dump
# dump 1 all custom 2000 ./${N20}${N100}/tensile/trajectory/trajectory_${usic}_${trial}_*.tensile.custom id type x y z ix iy iz
# dump_modify 1 sort id
dump 2 all cfg 20000 ./${N20}${N100}/tensile/trajectory/dumpten.tens_${usic}_${trial}_*.cfg mass type xs ys zs fx fy fz
dump 2 all cfg 20000 ./900${N100}/tensile/trajectory/dumpten.tens_${usic}_${trial}_*.cfg mass type xs ys zs fx fy fz
dump 2 all cfg 20000 ./900100/tensile/trajectory/dumpten.tens_${usic}_${trial}_*.cfg mass type xs ys zs fx fy fz
dump 2 all cfg 20000 ./900100/tensile/trajectory/dumpten.tens_2_${trial}_*.cfg mass type xs ys zs fx fy fz
dump 2 all cfg 20000 ./900100/tensile/trajectory/dumpten.tens_2_5_*.cfg mass type xs ys zs fx fy fz
dump_modify 2 element N20 N100

fix 1 all nvt temp ${T} ${T} 100
fix 1 all nvt temp 300 ${T} 100
fix 1 all nvt temp 300 300 100
fix 2 all deform 1 x erate ${strain_rate} y erate ${strain_rate} z erate ${strain_rate} units box
fix 2 all deform 1 x erate 5e-6 y erate ${strain_rate} z erate ${strain_rate} units box
fix 2 all deform 1 x erate 5e-6 y erate 5e-6 z erate ${strain_rate} units box
fix 2 all deform 1 x erate 5e-6 y erate 5e-6 z erate 5e-6 units box
fix             def1 all print ${ts_save} "${p1} ${p2} ${p3} ${p4}" file ./tensile/tensile${N20}${N100}_${usic}_${trial}.txt screen no
fix             def1 all print 100 "${p1} ${p2} ${p3} ${p4}" file ./tensile/tensile${N20}${N100}_${usic}_${trial}.txt screen no
fix             def1 all print 100 "${p1} ${p2} ${p3} ${p4}" file ./tensile/tensile900${N100}_${usic}_${trial}.txt screen no
fix             def1 all print 100 "${p1} ${p2} ${p3} ${p4}" file ./tensile/tensile900100_${usic}_${trial}.txt screen no
fix             def1 all print 100 "${p1} ${p2} ${p3} ${p4}" file ./tensile/tensile900100_2_${trial}.txt screen no
fix             def1 all print 100 "${p1} ${p2} ${p3} ${p4}" file ./tensile/tensile900100_2_5.txt screen no

timestep       		${ts}
timestep       		0.1
run				${steps_tensile}
run				6000000
Generated 0 of 1 mixed pair_coeff terms from geometric mixing rule
Unused restart file global fix info:
  fix style: npt, fix ID: 5
Neighbor list info ...
  update every 1 steps, delay 0 steps, check no
  max neighbors/atom: 2000, page size: 100000
  master list distance cutoff = 113.78
  ghost atom cutoff = 113.78
  binsize = 56.89, bins = 10 10 10
  1 neighbor lists, perpetual/occasional/extra = 1 0 0
  (1) pair table/pgn, perpetual
      attributes: half, newton on
      pair build: half/bin/atomonly/newton
      stencil: half/bin/3d
      bin: standard
Per MPI rank memory allocation (min/avg/max) = 3.861 | 3.861 | 3.861 Mbytes
   Step          Temp           v_p1           v_p2           v_p3           v_p4          Press            Lx             Ly             Lz           Volume        Density         E_pair         PotEng         KinEng         TotEng          Pxx            Pyy            Pzz            Pxy            Pxz            Pyz           S/CPU     
         0   303.80714      6.3209197e-16  0.010305904    0.0072188365   0.020486319   -125.04666      539.57419      539.57419      539.57419      1.5709179e+08  2.5566976     -8122190.4     -8122190.4      904.68579     -8121285.7     -101.71136     -71.244377     -202.18425     -25.803486      0.35652409     46.026429      0            
       100   310.47215      5e-05          0.011297469    0.008308588    0.021478255   -135.15688      539.60117      539.60117      539.60117      1.5711536e+08  2.5563141     -8122166       -8122166        924.53306     -8121241.5     -111.49735     -81.999388     -211.9739      -25.631992      0.4532501      45.76063       7096.3734    
       200   317.57696      0.0001         0.012305629    0.0094139065   0.022492129   -145.44507      539.62814      539.62814      539.62814      1.5713893e+08  2.5559307     -8122139.5     -8122139.5      945.68995     -8121193.9     -121.44712     -92.908034     -221.98005     -25.456344      0.54500363     45.432296      7526.2848    
       300   324.94222      0.00015        0.013318143    0.010520215    0.023514675   -155.77936      539.65512      539.65512      539.65512      1.5716249e+08  2.5555474     -8122111.3     -8122111.3      967.62244     -8121143.7     -131.43985     -103.82645     -232.07179     -25.281548      0.62814361     45.047274      8104.7438    
       400   332.36136      0.0002         0.014332529    0.01162354     0.024542766   -166.12825      539.6821       539.6821       539.6821       1.5718607e+08  2.5551642     -8122081.2     -8122081.2      989.71538     -8121091.5     -141.45107     -114.71542     -242.21826     -25.11044       0.69857577     44.611044      8578.6219    
       500   339.614        0.00025        0.015346308    0.012720026    0.025573255   -176.46053      539.70908      539.70908      539.70908      1.5720964e+08  2.554781      -8122049.3     -8122049.3      1011.3125     -8121038       -151.45628     -125.5369      -252.3884      -24.94532       0.75238892     44.131025      8985.065     
       600   346.51615      0.0003         0.016357279    0.013806254    0.026603189   -186.748        539.73606      539.73606      539.73606      1.5723322e+08  2.5543979     -8122015.5     -8122015.5      1031.8659     -8120983.6     -161.4338      -136.25713     -262.55306     -24.788316      0.7876347      43.614489      9351.9422    
       700   353.03171      0.00035        0.017363456    0.014879276    0.027630015   -196.96602      539.76304      539.76304      539.76304      1.572568e+08   2.5540149     -8121979.8     -8121979.8      1051.2681     -8120928.5     -171.36399     -146.84703     -272.68705     -24.640737      0.80251597     43.067284      9748.5365    
       800   359.40176      0.0004         0.018362521    0.015936286    0.028651284   -207.0897       539.79002      539.79002      539.79002      1.5728038e+08  2.553632      -8121942.1     -8121942.1      1070.2371     -8120871.9     -181.224       -157.27892     -282.76619     -24.503249      0.79537806     42.496129      10253.554    
       900   366.10018      0.00045        0.019351941    0.016974529    0.029664633   -217.09385      539.817        539.817        539.817        1.5730396e+08  2.5532492     -8121902.5     -8121902.5      1090.1838     -8120812.3     -190.98881     -167.52558     -292.76717     -24.37583       0.76537111     41.908191      10718.071    
      1000   373.4931       0.0005         0.020329248    0.017991459    0.030667765   -226.95443      539.84397      539.84397      539.84397      1.5732755e+08  2.5528664     -8121861       -8121861        1112.1987     -8120748.8     -200.63408     -177.56189     -302.66731     -24.257217      0.71079221     41.310681      10822.606    
      1100   381.53521      0.00055        0.021292113    0.018984717    0.031658306   -236.6482       539.87095      539.87095      539.87095      1.5735114e+08  2.5524837     -8121817.7     -8121817.7      1136.1467     -8120681.6     -210.13681     -187.36459     -312.44319     -24.14578       0.63101979     40.710043      11357.55     
      1200   389.85854      0.0006         0.022238595    0.019952058    0.032634025   -246.15405      539.89793      539.89793      539.89793      1.5737473e+08  2.5521011     -8121772.7     -8121772.7      1160.9322     -8120611.7     -219.47786     -196.9115      -322.07278     -24.038565      0.52648072     40.112394      11786.391    
      1300   398.04757      0.00065        0.02316706     0.020891525    0.033593157   -255.45437      539.92491      539.92491      539.92491      1.5739832e+08  2.5517185     -8121725.9     -8121725.9      1185.3177     -8120540.5     -228.64111     -206.18332     -331.53868     -23.932878      0.39780213     39.523         11775.197    
      1400   405.82906      0.0007         0.024076021    0.02180145     0.034534187   -264.53379      539.95189      539.95189      539.95189      1.5742192e+08  2.551336      -8121677.3     -8121677.3      1208.4896     -8120468.8     -237.61185     -215.16358     -340.82593     -23.826656      0.24590317     38.947052      11779.967    
      1500   413.14437      0.00075        0.024964047    0.022680718    0.035455699   -273.37927      539.97887      539.97887      539.97887      1.5744551e+08  2.5509536     -8121627.1     -8121627.1      1230.2734     -8120396.8     -246.37599     -223.84128     -349.92055     -23.717751      0.073167672    38.389042      11804.243    
      1600   420.10099      0.0008         0.025829788    0.02352875     0.036356518   -281.98061      540.00585      540.00585      540.00585      1.5746911e+08  2.5505713     -8121575.3     -8121575.3      1250.989      -8120324.3     -254.92019     -232.21071     -358.81094     -23.60162      -0.11591061     37.852792      11773.378    
      1700   426.83312      0.00085        0.026672054    0.024345617    0.037235759   -290.33121      540.03283      540.03283      540.03283      1.5749272e+08  2.5501891     -8121521.8     -8121521.8      1271.0362     -8120250.8     -263.2327      -240.27256     -367.48837     -23.473479     -0.31633015     37.342323      11817.283    
      1800   433.39456      0.0009         0.027489892    0.025131847    0.038092623   -298.42705      540.0598       540.0598       540.0598       1.5751632e+08  2.5498069     -8121466.9     -8121466.9      1290.575      -8120176.3     -271.30414     -248.03205     -375.94496     -23.330053     -0.52290988     36.859895      11720.029    
      1900   439.76087      0.00095        0.028282728    0.025888353    0.038926243   -306.26638      540.08678      540.08678      540.08678      1.5753993e+08  2.5494248     -8121410.4     -8121410.4      1309.5328     -8120100.9     -279.12882     -255.49818     -384.17215     -23.169475     -0.73040563     36.405405      11792.243    
      2000   445.88724      0.001          0.029050544    0.026616501    0.03973646    -313.85313      540.11376      540.11376      540.11376      1.5756354e+08  2.5490428     -8121352.5     -8121352.5      1327.7761     -8120024.7     -286.70658     -262.68444     -392.16837     -22.991348     -0.93387894     35.978051      11771.646    
      2100   451.74565      0.00105        0.029793731    0.027318259    0.040523771   -321.19668      540.14074      540.14074      540.14074      1.5758715e+08  2.5486609     -8121293.2     -8121293.2      1345.2214     -8119948       -294.04126     -269.61025     -399.93853     -22.796137     -1.1290767      35.577864      11751.271    
      2200   457.32619      0.0011         0.030513051    0.027996127    0.041288989   -328.31044      540.16772      540.16772      540.16772      1.5761077e+08  2.548279      -8121232.6     -8121232.6      1361.8393     -8119870.8     -301.1404      -276.30029     -407.49064     -22.585709     -1.3134476      35.204919      11814.153    
      2300   462.62552      0.00115        0.031209687    0.028652913    0.042033172   -335.21102      540.1947       540.1947       540.1947       1.5763438e+08  2.5478972     -8121170.7     -8121170.7      1377.6198     -8119793.1     -308.01566     -282.78226     -414.83515     -22.362265     -1.4852136      34.859629      11755.868    
      2400   467.64019      0.0012         0.031885035    0.029291525    0.042757509   -341.9165       540.22168      540.22168      540.22168      1.57658e+08    2.5475155     -8121107.5     -8121107.5      1392.5526     -8119714.9     -314.68083     -289.08487     -421.9838      -22.127703     -1.6424425      34.542503      11779.226    
      2500   472.36641      0.00125        0.032540627    0.029914694    0.043463167   -348.44474      540.24866      540.24866      540.24866      1.5768162e+08  2.5471339     -8121043       -8121043        1406.6265     -8119636.4     -321.15102     -295.23508     -428.94811     -21.884828     -1.78366        34.255347      11796.77     
      2600   476.80128      0.0013         0.033178168    0.030524977    0.044151433   -354.81397      540.27563      540.27563      540.27563      1.5770525e+08  2.5467523     -8120977.2     -8120977.2      1419.8328     -8119557.4     -327.44306     -301.2581      -435.74077     -21.636164     -1.9079774      34.000161      11779.022    
      2700   480.94343      0.00135        0.033799638    0.031125182    0.044823937   -361.04534      540.30261      540.30261      540.30261      1.5772887e+08  2.5463709     -8120910.2     -8120910.2      1432.1674     -8119478.1     -333.57649     -307.18166     -442.37786     -21.384395     -2.0138129      33.778523      11791.695    
      2800   484.79296      0.0014         0.034407177    0.031718054    0.045482302   -367.16024      540.32959      540.32959      540.32959      1.577525e+08   2.5459895     -8120841.9     -8120841.9      1443.6307     -8119398.3     -339.57244     -313.03285     -448.87543     -21.133968     -2.1007978      33.592433      11774.438    
      2900   488.3513       0.00145        0.035003048    0.032306165    0.046128184   -373.18002      540.35657      540.35657      540.35657      1.5777613e+08  2.5456081     -8120772.3     -8120772.3      1454.2268     -8119318.1     -345.45322     -318.83706     -455.24978     -20.890175     -2.1699392      33.443999      11805.95     
      3000   491.62111      0.0015         0.035589762    0.032891986    0.046763239   -379.12653      540.38355      540.38355      540.38355      1.5779977e+08  2.5452269     -8120701.4     -8120701.4      1463.9637     -8119237.4     -351.24364     -324.61866     -461.51728     -20.65987      -2.223499       33.334755      11749.135    
      3100   494.60611      0.00155        0.036169939    0.033477744    0.047389117   -385.02113      540.41053      540.41053      540.41053      1.578234e+08   2.5448457     -8120629       -8120629        1472.8525     -8119156.1     -356.96954     -330.39964     -467.69422     -20.449657     -2.2651289      33.265045      11756.544    
      3200   497.31105      0.0016         0.036746207    0.034065189    0.048007471   -390.88368      540.43751      540.43751      540.43751      1.5784704e+08  2.5444646     -8120555.2     -8120555.2      1480.9074     -8119074.3     -362.65687     -336.19728     -473.7969      -20.264831     -2.2984797      33.234329      11761.547    
      3300   499.74162      0.00165        0.037321181    0.03465582     0.048619788   -396.73259      540.46448      540.46448      540.46448      1.5787068e+08  2.5440836     -8120479.8     -8120479.8      1488.1452     -8118991.7     -368.33142     -342.02635     -479.84        -20.110938     -2.3257852      33.241396      11767.299    
      3400   501.90435      0.0017         0.037897315    0.035250992    0.049227374   -402.58469      540.49146      540.49146      540.49146      1.5789432e+08  2.5437026     -8120402.9     -8120402.9      1494.5855     -8118908.3     -374.01742     -347.90024     -485.83641     -19.99347      -2.3485676      33.284474      11769.344    
      3500   503.80656      0.00175        0.038476862    0.035851911    0.049831353   -408.45506      540.51844      540.51844      540.51844      1.5791797e+08  2.5433218     -8120324.3     -8120324.3      1500.2499     -8118824.1     -379.73711     -353.83085     -491.79722     -19.917043     -2.3676684      33.361601      11795.73     
      3600   505.45623      0.0018         0.03906219     0.036459865    0.050432763   -414.35913      540.54542      540.54542      540.54542      1.5794162e+08  2.542941      -8120244       -8120244        1505.1623     -8118738.9     -385.51384     -359.83089     -497.73267     -19.885696     -2.3834336      33.470793      11754.104    
      3700   506.86193      0.00185        0.039655352    0.037076051    0.051032574   -420.31081      540.5724       540.5724       540.5724       1.5796527e+08  2.5425603     -8120162       -8120162        1509.3483     -8118652.6     -391.3679      -365.91218     -503.65234     -19.902366     -2.3958668      33.610534      11793.223    
      3800   508.03275      0.0019         0.040258218    0.037701464    0.051631839   -426.32296      540.59938      540.59938      540.59938      1.5798892e+08  2.5421796     -8120078       -8120078        1512.8348     -8118565.2     -397.31772     -372.08452     -509.56663     -19.968682     -2.4054049      33.777806      11736.336    
      3900   508.97811      0.00195        0.040872322    0.038336724    0.052231526   -432.40586      540.62636      540.62636      540.62636      1.5801257e+08  2.5417991     -8119992.2     -8119992.2      1515.6499     -8118476.6     -403.37845     -378.35405     -515.48508     -20.085219     -2.4124913      33.970001      11737.412    
      4000   509.70777      0.002          0.041498464    0.038982017    0.052832396   -438.56527      540.65334      540.65334      540.65334      1.5803623e+08  2.5414186     -8119904.5     -8119904.5      1517.8227     -8118386.7     -409.558       -384.7226      -521.41521     -20.252648     -2.4171892      34.185317      11761.429    
      4100   510.23167      0.00205        0.042136861    0.03963734     0.053435171   -444.80425      540.68031      540.68031      540.68031      1.5805989e+08  2.5410382     -8119814.7     -8119814.7      1519.3828     -8118295.4     -415.85849     -391.19013     -527.36413     -20.470011     -2.4198782      34.42115       11779.597    
      4200   510.55995      0.0021         0.042787376    0.040302666    0.0540409     -451.12573      540.70729      540.70729      540.70729      1.5808355e+08  2.5406578     -8119722.9     -8119722.9      1520.3603     -8118202.5     -422.27857     -397.75639     -533.34222     -20.733394     -2.4213409      34.675819      11777.632    
      4300   510.70274      0.00215        0.043449538    0.040978004    0.054650472   -457.53109      540.73427      540.73427      540.73427      1.5810722e+08  2.5402776     -8119628.9     -8119628.9      1520.7856     -8118108.1     -428.8136      -404.42145     -539.35822     -21.037734     -2.4221775      34.94872       11833.199    
      4400   510.67013      0.0022         0.044122919    0.041663537    0.055264546   -464.02172      540.76125      540.76125      540.76125      1.5813088e+08  2.5398974     -8119532.7     -8119532.7      1520.6884     -8118012       -435.45935     -411.18714     -545.41867     -21.377355     -2.4231117      35.239707      11762.89     
      4500   510.47202      0.00225        0.044807226    0.042359581    0.055883691   -470.59955      540.78823      540.78823      540.78823      1.5815455e+08  2.5395173     -8119434.2     -8119434.2      1520.0985     -8117914.1     -442.21294     -418.05656     -551.52915     -21.744499     -2.425448       35.548692      11735.712    
      4600   510.11819      0.0023         0.045501945    0.043066224    0.056508298   -477.26447      540.81521      540.81521      540.81521      1.5817822e+08  2.5391372     -8119333.4     -8119333.4      1519.0449     -8117814.3     -449.06928     -425.03058     -557.69354     -22.129606     -2.4309225      35.875054      11797.142    
      4700   509.61827      0.00235        0.046206006    0.043782972    0.057138566   -484.01199      540.84219      540.84219      540.84219      1.5820189e+08  2.5387573     -8119230.2     -8119230.2      1517.5562     -8117712.6     -456.01782     -432.10433     -563.91381     -22.524328     -2.4411811      36.216707      11785.419    
      4800   508.98186      0.0024         0.046918025    0.044508797    0.057774735   -490.83496      540.86917      540.86917      540.86917      1.5822557e+08  2.5383774     -8119124.5     -8119124.5      1515.6611     -8117608.9     -463.0449      -439.26767     -570.1923      -22.920523     -2.4573599      36.570171      11764.179    
      4900   508.21839      0.00245        0.047636527    0.045242256    0.058417142   -497.72489      540.89614      540.89614      540.89614      1.5824925e+08  2.5379976     -8119016.4     -8119016.4      1513.3876     -8117503       -470.13597     -446.50635     -576.53237     -23.309693     -2.4811448      36.931238      11756.511    
      5000   507.33714      0.0025         0.04836003     0.04598174     0.059066137   -504.67277      540.92312      540.92312      540.92312      1.5827293e+08  2.5376178     -8118905.7     -8118905.7      1510.7634     -8117395       -477.27639     -453.80449     -582.93745     -23.682705     -2.5127286      37.295873      11741.064    
      5100   506.34717      0.00255        0.04908728     0.046725845    0.059721857   -511.67031      540.9501       540.9501       540.9501       1.5829661e+08  2.5372382     -8118792.5     -8118792.5      1507.8154     -8117284.7     -484.45379     -461.14823     -589.4089      -24.02999      -2.5516713      37.661471      9830.7209    
      5200   505.25732      0.0026         0.049817165    0.047473376    0.060384118   -518.7093       540.97708      540.97708      540.97708      1.583203e+08   2.5368586     -8118676.6     -8118676.6      1504.57       -8117172.1     -491.65719     -468.52579     -595.94491     -24.341065     -2.599765       38.026189      11736.943    
      5300   504.07619      0.00265        0.050548543    0.048223275    0.06105256    -525.78133      541.00406      541.00406      541.00406      1.5834399e+08  2.5364791     -8118558.2     -8118558.2      1501.0528     -8117057.1     -498.87534     -475.92672     -602.54192     -24.606797     -2.6585591      38.387641      11752.323    
      5400   502.81218      0.0027         0.051280269    0.048974442    0.06172657    -532.87698      541.03104      541.03104      541.03104      1.5836768e+08  2.5360997     -8118437.1     -8118437.1      1497.2888     -8116939.8     -506.0969      -483.34016     -609.19388     -24.821343     -2.7285154      38.742992      11767.962    
      5500   501.47337      0.00275        0.052011327    0.049725953    0.062405452   -539.9876       541.05802      541.05802      541.05802      1.5839137e+08  2.5357203     -8118313.3     -8118313.3      1493.3021     -8116820       -513.31189     -490.757       -615.89392     -24.980372     -2.8111038      39.088514      11763.676    
      5600   500.06753      0.0028         0.052740686    0.050477121    0.063088441   -547.10502      541.085        541.085        541.085        1.5841506e+08  2.535341      -8118186.9     -8118186.9      1489.1157     -8116697.8     -520.5101      -498.17046     -622.63451     -25.079801     -2.9089793      39.419067      11797.115    
      5700   498.60208      0.00285        0.05346755     0.05122729     0.063774911   -554.22239      541.11197      541.11197      541.11197      1.5843876e+08  2.5349618     -8118057.9     -8118057.9      1484.7518     -8116573.1     -527.6837      -505.57404     -629.40943     -25.116547     -3.023881       39.729848      11783.847    
      5800   497.08402      0.0029         0.054191432    0.051976158    0.064464531   -561.33603      541.13895      541.13895      541.13895      1.5846246e+08  2.5345827     -8117926.1     -8117926.1      1480.2313     -8116445.9     -534.82785     -512.9648      -636.21545     -25.0893       -3.1557366      40.016613      11787.661    
      5900   495.5199       0.00295        0.054912096    0.052723622    0.065157091   -568.44414      541.16593      541.16593      541.16593      1.5848616e+08  2.5342037     -8117791.8     -8117791.8      1475.5736     -8116316.2     -541.94025     -520.34169     -643.05049     -24.996713     -3.3025987      40.274127      11777.267    
      6000   493.9158       0.003          0.055629278    0.053469305    0.065852237   -575.54345      541.19291      541.19291      541.19291      1.5850986e+08  2.5338247     -8117654.8     -8117654.8      1470.7969     -8116184       -549.01829     -527.70101     -649.91105     -24.838225     -3.4609073      40.496454      11166.239    
      6100   492.27738      0.00305        0.056342653    0.054212892    0.06654972    -582.63102      541.21989      541.21989      541.21989      1.5853357e+08  2.5334458     -8117515.1     -8117515.1      1465.918      -8116049.2     -556.05875     -535.03964     -656.79467     -24.616529     -3.6261406      40.67914       11791.39     
      6200   490.60989      0.0031         0.057052056    0.054954185    0.067249258   -589.70474      541.24687      541.24687      541.24687      1.5855728e+08  2.533067      -8117372.8     -8117372.8      1460.9525     -8115911.8     -563.06001     -542.35563     -663.69858     -24.33594      -3.7926088      40.818158      11473.504    
      6300   488.91815      0.00315        0.057757553    0.055693338    0.067950651   -596.76468      541.27385      541.27385      541.27385      1.5858099e+08  2.5326882     -8117227.9     -8117227.9      1455.9148     -8115772       -570.02273     -549.65051     -670.62079     -24.002063     -3.954304       40.909112      11783.689    
      6400   487.20659      0.0032         0.058459409    0.056430892    0.068653699   -603.81281      541.30082      541.30082      541.30082      1.5860471e+08  2.5323095     -8117080.3     -8117080.3      1450.818      -8115629.5     -576.94951     -556.9296      -677.55933     -23.6218       -4.1065143      40.948048      11795.985    
      6500   485.47924      0.00325        0.059157933    0.057167298    0.069358356   -610.85151      541.3278       541.3278       541.3278       1.5862842e+08  2.531931      -8116930.1     -8116930.1      1445.6743     -8115484.4     -583.84341     -564.19737     -684.51375     -23.202899     -4.2477537      40.932842      11755.687    
      6600   483.73975      0.0033         0.059853589    0.057903022    0.070064691   -617.88404      541.35478      541.35478      541.35478      1.5865214e+08  2.5315524     -8116777.2     -8116777.2      1440.4944     -8115336.7     -590.709       -571.4584      -691.48474     -22.753175     -4.3782232      40.861852      11791.253    
      6700   481.99139      0.00335        0.060546936    0.058638668    0.070772736   -624.91435      541.38176      541.38176      541.38176      1.5867586e+08  2.531174      -8116621.7     -8116621.7      1435.288      -8115186.4     -597.55179     -578.71866     -698.4726      -22.278014     -4.4984458      40.734199      11766.314    
      6800   480.23697      0.0034         0.061238887    0.05937489     0.07148242    -631.94736      541.40874      541.40874      541.40874      1.5869958e+08  2.5307956     -8116463.5     -8116463.5      1430.0637     -8115033.4     -604.38083     -585.98461     -705.47664     -21.783279     -4.6091307      40.550118      11778.12     
      6900   478.47897      0.00345        0.06193046     0.060111941    0.072193642   -638.9869       541.43572      541.43572      541.43572      1.5872331e+08  2.5304173     -8116302.6     -8116302.6      1424.8287     -8114877.8     -611.20612     -593.25874     -712.49585     -21.276013     -4.7093042      40.310831      11770.209    
      7000   476.71956      0.0035         0.062622348    0.060849726    0.072906203   -646.0343       541.4627       541.4627       541.4627       1.5874704e+08  2.5300391     -8116139.1     -8116139.1      1419.5894     -8114719.5     -618.03453     -600.5401      -719.52828     -20.763684     -4.7971724      40.018802      11771.477    
      7100   474.96074      0.00355        0.063314843    0.061587852    0.073619808   -653.08826      541.48968      541.48968      541.48968      1.5877077e+08  2.529661      -8115973       -8115973        1414.352      -8114558.6     -624.86892     -607.82484     -726.57101     -20.251731     -4.8705566      39.677094      11768.821    
      7200   473.20435      0.0036         0.064008451    0.062326064    0.074334349   -660.14924      541.51665      541.51665      541.51665      1.587945e+08   2.5292829     -8115804.1     -8115804.1      1409.1217     -8114395       -631.7143      -615.11043     -733.62299     -19.744405     -4.9263437      39.288519      11758.004    
      7300   471.45203      0.00365        0.064703823    0.063063864    0.075049404   -667.21635      541.54363      541.54363      541.54363      1.5881823e+08  2.5289049     -8115632.7     -8115632.7      1403.9036     -8114228.8     -638.57708     -622.39194     -740.68003     -19.244761     -4.9618789      38.856509      11494.789    
      7400   469.70531      0.0037         0.065401675    0.063800928    0.075764495   -674.28933      541.57061      541.57061      541.57061      1.5884197e+08  2.528527      -8115458.5     -8115458.5      1398.7022     -8114059.8     -645.46434     -629.66621     -747.73743     -18.755453     -4.9765239      38.385326      11762.905    
      7500   467.96558      0.00375        0.066102687    0.064536967    0.07647914    -681.36786      541.59759      541.59759      541.59759      1.5886571e+08  2.5281491     -8115281.7     -8115281.7      1393.5216     -8113888.2     -652.3828      -636.93034     -754.79043     -18.278145     -4.9709055      37.880309      11764.567    
      7600   466.23416      0.0038         0.066807113    0.065271435    0.077192476   -688.44815      541.62457      541.62457      541.62457      1.5888945e+08  2.5277714     -8115102.3     -8115102.3      1388.3657     -8113713.9     -659.33495     -644.17898     -761.83051     -17.815414     -4.9453227      37.347937      11795.499    
      7700   464.51234      0.00385        0.067514918    0.066004155    0.077903812   -695.52721      541.65155      541.65155      541.65155      1.589132e+08   2.5273937     -8114920.2     -8114920.2      1383.2384     -8113536.9     -666.32043     -651.41036     -768.85084     -17.371482     -4.8995799      36.794209      11791.705    
      7800   462.80137      0.0039         0.068226152    0.066735053    0.078612772   -702.60376      541.67853      541.67853      541.67853      1.5893694e+08  2.5270161     -8114735.4     -8114735.4      1378.1434     -8113357.2     -673.33977     -658.62377     -775.84774     -16.951288     -4.8336358      36.224569      11753.883    
      7900   461.10246      0.00395        0.068940874    0.067464092    0.079319036   -709.67679      541.70551      541.70551      541.70551      1.5896069e+08  2.5266385     -8114547.9     -8114547.9      1373.0844     -8113174.9     -680.39352     -665.81882     -782.81802     -16.560001     -4.7484081      35.645548      11794.336    
      8000   459.41679      0.004          0.06965923     0.068191504    0.080022346   -716.74671      541.73248      541.73248      541.73248      1.5898444e+08  2.526261      -8114357.8     -8114357.8      1368.0647     -8112989.7     -687.48315     -672.99782     -789.75915     -16.202694     -4.644149       35.063629      11757.436    
      8100   457.74548      0.00405        0.070381399    0.068917358    0.080722431   -723.81343      541.75946      541.75946      541.75946      1.590082e+08   2.5258837     -8114165       -8114165        1363.0879     -8112801.9     -694.6104      -680.16144     -796.66845     -15.882325     -4.5199569      34.484393      11736.067    
      8200   456.08969      0.0041         0.071107354    0.069641567    0.081419202   -730.8763       541.78644      541.78644      541.78644      1.5903195e+08  2.5255063     -8113969.4     -8113969.4      1358.1572     -8112611.3     -701.77502     -687.30883     -803.54504     -15.599274     -4.3753461      33.91321       11746.077    
      8300   454.4505       0.00415        0.071836842    0.070364061    0.082112538   -737.93385      541.81342      541.81342      541.81342      1.5905571e+08  2.5251291     -8113771.2     -8113771.2      1353.276      -8112417.9     -708.97451     -694.43929     -810.38774     -15.352119     -4.2105626      33.355392      11762.632    
      8400   452.829        0.0042         0.072569506    0.071084917    0.082802294   -744.98468      541.8404       541.8404       541.8404       1.5907947e+08  2.5247519     -8113570.2     -8113570.2      1348.4474     -8112221.8     -716.20534     -701.55359     -817.1951      -15.140699     -4.0257537      32.815562      11773.658    
      8500   451.22625      0.00425        0.073304761    0.07180422     0.083488169   -752.02615      541.86738      541.86738      541.86738      1.5910324e+08  2.5243748     -8113366.5     -8113366.5      1343.6747     -8112022.8     -723.46174     -708.65255     -823.96416     -14.965844     -3.8204708      32.297343      11771.319    
      8600   449.64329      0.0043         0.074042014    0.072521746    0.084169894   -759.0547       541.89436      541.89436      541.89436      1.59127e+08    2.5239978     -8113160.1     -8113160.1      1338.9609     -8111821.1     -730.73786     -715.73399     -830.69226     -14.828016     -3.5950474      31.803759      11772.12     
      8700   448.08108      0.00435        0.074780665    0.073237094    0.084847484   -766.06709      541.92134      541.92134      541.92134      1.5915077e+08  2.5236209     -8112950.9     -8112950.9      1334.3089     -8111616.6     -738.02778     -722.79392     -837.37956     -14.727853     -3.349277       31.337625      11756.233    
      8800   446.54049      0.0044         0.07552013     0.073949928    0.085521128   -773.0609       541.94831      541.94831      541.94831      1.5917454e+08  2.523244      -8112739       -8112739        1329.7213     -8111409.3     -745.32574     -729.82905     -844.02791     -14.664737     -3.085518       30.901011      11752.065    
      8900   445.02219      0.00445        0.076260047    0.074660106    0.08619118    -780.03564      541.97529      541.97529      541.97529      1.5919831e+08  2.5228672     -8112524.3     -8112524.3      1325.2001     -8111199.1     -752.62815     -736.83795     -850.64081     -14.637203     -2.8096004      30.495437      11797.823    
      9000   443.52663      0.0045         0.076999784    0.075367431    0.086858094   -786.99008      542.00227      542.00227      542.00227      1.5922209e+08  2.5224905     -8112306.9     -8112306.9      1320.7466     -8110986.1     -759.92878     -743.81872     -857.22274     -14.643444     -2.5293121      30.121608      11763.68     
      9100   442.05411      0.00455        0.077738404    0.076071739    0.087522382   -793.92228      542.02925      542.02925      542.02925      1.5924587e+08  2.5221139     -8112086.7     -8112086.7      1316.3617     -8110770.3     -767.2184      -750.7697      -863.77875     -14.680604     -2.252112       29.780135      11770.569    
      9200   440.6048       0.0046         0.078474765    0.076772875    0.08818433    -800.82891      542.05623      542.05623      542.05623      1.5926965e+08  2.5217373     -8111863.8     -8111863.8      1312.0459     -8110551.7     -774.48571     -757.68936     -870.31167     -14.74696      -1.9852035      29.472497      11747.687    
      9300   439.17879      0.00465        0.079207857    0.077470546    0.08884415    -807.7064       542.08321      542.08321      542.08321      1.5929343e+08  2.5213608     -8111638.2     -8111638.2      1307.7995     -8110330.4     -781.72077     -764.57484     -876.82359     -14.841756     -1.7357289      29.199154      11784.009    
      9400   437.77605      0.0047         0.079936749    0.078164538    0.08950208    -814.55175      542.11019      542.11019      542.11019      1.5931721e+08  2.5209844     -8111409.9     -8111409.9      1303.6223     -8110106.3     -788.91437     -771.42401     -883.31686     -14.964582     -1.5092363      28.958194      11791.097    
      9500   436.39639      0.00475        0.080660482    0.078854712    0.090158432   -821.36237      542.13716      542.13716      542.13716      1.59341e+08    2.520608      -8111179       -8111179        1299.5139     -8109879.5     -796.05707     -778.2355      -889.79454     -15.11631      -1.3082922      28.747731      11760.4      
      9600   435.03946      0.0048         0.08137841     0.079541051    0.09081352    -828.13712      542.16414      542.16414      542.16414      1.5936479e+08  2.5202318     -8110945.4     -8110945.4      1295.4732     -8109649.9     -803.14246     -785.00914     -896.25975     -15.297345     -1.1345935      28.564911      11784.343    
      9700   433.7047       0.00485        0.082090202    0.080224004    0.091467689   -834.87752      542.19112      542.19112      542.19112      1.5938858e+08  2.5198556     -8110709.1     -8110709.1      1291.4985     -8109417.6     -810.16731     -791.74936     -902.7159      -15.50586      -0.99055663     28.406232      11777.043    
      9800   432.39132      0.0049         0.082795581    0.080903973    0.092121207   -841.58487      542.2181       542.2181       542.2181       1.5941238e+08  2.5194795     -8110470.2     -8110470.2      1287.5875     -8109182.7     -817.12886     -798.46014     -909.16563     -15.73944      -0.87689586     28.270338      11758.535    
      9900   431.0984       0.00495        0.083494368    0.081581263    0.092774251   -848.26016      542.24508      542.24508      542.24508      1.5943617e+08  2.5191034     -8110228.8     -8110228.8      1283.7374     -8108945       -824.02534     -805.14447     -915.61067     -15.994985     -0.79210353     28.156979      11762.706    
     10000   429.82495      0.005          0.084186361    0.082256048    0.093427052   -854.90406      542.27206      542.27206      542.27206      1.5945997e+08  2.5187275     -8109984.7     -8109984.7      1279.9453     -8108704.7     -830.85478     -811.80407     -922.05331     -16.268419     -0.73433835     28.065593      11796.206    
     10100   428.56992      0.00505        0.084871207    0.082928148    0.094079852   -861.51561      542.29904      542.29904      542.29904      1.5948377e+08  2.5183516     -8109738.1     -8109738.1      1276.208      -8108461.9     -837.61369     -818.43718     -928.49595     -16.55529      -0.70142378     27.995393      11775.334    
     10200   427.33229      0.0051         0.085548433    0.083597129    0.094732906   -868.09266      542.32602      542.32602      542.32602      1.5950758e+08  2.5179758     -8109488.9     -8109488.9      1272.5226     -8108216.4     -844.29739     -825.03951     -934.94109     -16.850432     -0.69215767     27.944614      11773.623    
     10300   426.11105      0.00515        0.086217523    0.084262415    0.0953864     -874.63225      542.35299      542.35299      542.35299      1.5953138e+08  2.5176        -8109237.3     -8109237.3      1268.8859     -8107968.4     -850.9008      -831.60538     -941.39057     -17.149227     -0.7060225      27.910957      11740.651    
     10400   424.90526      0.0052         0.086878044    0.084923505    0.096040023   -881.13026      542.37997      542.37997      542.37997      1.5955519e+08  2.5172243     -8108983.1     -8108983.1      1265.2953     -8107717.8     -857.41963     -838.12983     -947.84133     -17.447487     -0.74105536     27.893099      11769.372    
     10500   423.71405      0.00525        0.087529564    0.085580251    0.096693153   -887.58276      542.40695      542.40695      542.40695      1.59579e+08    2.5168488     -8108726.5     -8108726.5      1261.7481     -8107464.8     -863.84964     -844.61141     -954.28723     -17.741937     -0.79441576     27.889422      11737.423    
     10600   422.53665      0.0053         0.088171617    0.086232728    0.097344976   -893.98576      542.43393      542.43393      542.43393      1.5960281e+08  2.5164732     -8108467.5     -8108467.5      1258.242      -8107209.2     -870.1862      -851.05086     -960.72022     -18.029763     -0.86189537     27.897988      11739.368    
     10700   421.37241      0.00535        0.08880376     0.086881019    0.097994923   -900.33622      542.46091      542.46091      542.46091      1.5962663e+08  2.5160978     -8108205.9     -8108205.9      1254.7751     -8106951.2     -876.42497     -857.44899     -967.1347      -18.308382     -0.94028643     27.916979      11744.493    
     10800   420.22079      0.0054         0.089425764    0.087525246    0.098642639   -906.63261      542.48789      542.48789      542.48789      1.5965045e+08  2.5157224     -8107942       -8107942        1251.3457     -8106690.6     -882.56367     -863.80702     -973.52716     -18.57582      -1.026944       27.943103      11726.115    
     10900   419.08141      0.00545        0.090037496    0.08816541     0.099287853   -912.87362      542.51487      542.51487      542.51487      1.5967427e+08  2.5153471     -8107675.6     -8107675.6      1247.9529     -8106427.7     -888.601       -870.12494     -979.89492     -18.83138      -1.1186607      27.972985      11746.942    
     11000   417.95407      0.0055         0.090638875    0.088801093    0.099930077   -919.05599      542.54185      542.54185      542.54185      1.5969809e+08  2.5149719     -8107406.9     -8107406.9      1244.5959     -8106162.3     -894.53615     -876.39865     -986.23318     -19.074573     -1.2104421      28.003444      11764.296    
     11100   416.8387       0.00555        0.091230039    0.089431603    0.10056872    -925.17595      542.56882      542.56882      542.56882      1.5972191e+08  2.5145968     -8107135.8     -8107135.8      1241.2745     -8105894.5     -900.37048     -882.62129     -992.53606     -19.305155     -1.2986359      28.03132       11773.314    
     11200   415.73533      0.0056         0.09181155     0.090056683    0.10120328    -931.23288      542.5958       542.5958       542.5958       1.5974574e+08  2.5142217     -8106862.4     -8106862.4      1237.9888     -8105624.4     -906.10955     -888.79036     -998.79874     -19.522784     -1.3800366      28.053158      11714.913    
     11300   414.64403      0.00565        0.092384041    0.09067645     0.10183343    -937.22812      542.62278      542.62278      542.62278      1.5976957e+08  2.5138467     -8106586.7     -8106586.7      1234.7391     -8105351.9     -911.7596      -894.90699     -1005.0178     -19.725874     -1.4520219      28.067267      11724.127    
     11400   413.5649       0.0057         0.092948376    0.091291182    0.10245879    -943.16423      542.64976      542.64976      542.64976      1.597934e+08   2.5134718     -8106308.7     -8106308.7      1231.5256     -8105077.2     -917.32915     -900.97392     -1011.1896     -19.913024     -1.513763       28.073582      11736.85     
     11500   412.49804      0.00575        0.093505794    0.091901236    0.10307901    -949.04529      542.67674      542.67674      542.67674      1.5981724e+08  2.5130969     -8106028.5     -8106028.5      1228.3487     -8104800.2     -922.83043     -906.99469     -1017.3108     -20.083161     -1.564636       28.071415      11757.687    
     11600   411.4436       0.0058         0.094057557    0.092507181    0.10369374    -954.87614      542.70372      542.70372      542.70372      1.5984107e+08  2.5127222     -8105746.1     -8105746.1      1225.2088     -8104520.9     -928.27591     -912.97489     -1023.3776     -20.235621     -1.6041005      28.060408      11779.767    
     11700   410.40174      0.00585        0.094604759    0.093109569    0.10430271    -960.66137      542.7307       542.7307       542.7307       1.5986491e+08  2.5123475     -8105461.4     -8105461.4      1222.1063     -8104239.3     -933.67638     -918.92        -1029.3877     -20.369731     -1.6319844      28.040477      11750.582    
     11800   409.37268      0.0059         0.095148321    0.093708707    0.10490545    -966.40343      542.75768      542.75768      542.75768      1.5988875e+08  2.5119728     -8105174.6     -8105174.6      1219.0419     -8103955.6     -939.04092     -924.83304     -1035.3363     -20.485748     -1.6474848      28.010941      11742.481    
     11900   408.35672      0.00595        0.095689328    0.094304787    0.10550164    -972.10546      542.78465      542.78465      542.78465      1.599126e+08   2.5115983     -8104885.6     -8104885.6      1216.0166     -8103669.6     -944.38024     -930.71589     -1041.2202     -20.584048     -1.6499891      27.969986      11743.976    
     12000   407.35422      0.006          0.096229095    0.094897997    0.10609126    -977.77235      542.81163      542.81163      542.81163      1.5993645e+08  2.5112238     -8104594.4     -8104594.4      1213.0313     -8103381.4     -949.70732     -936.57041     -1047.0393     -20.665323     -1.6404372      27.915797      11775.042    
     12100   406.36549      0.00605        0.096768819    0.095488727    0.10667434    -983.40943      542.83861      542.83861      542.83861      1.5996029e+08  2.5108494     -8104301.1     -8104301.1      1210.087      -8103091       -955.03398     -942.40046     -1052.7938     -20.73105      -1.6212054      27.848772      11751.718    
     12200   405.39082      0.0061         0.097309274    0.096077124    0.10725086    -989.01968      542.86559      542.86559      542.86559      1.5998414e+08  2.5104751     -8104005.6     -8104005.6      1207.1846     -8102798.4     -960.36787     -948.20749     -1058.4837     -20.78398      -1.5965236      27.771408      11752.199    
     12300   404.43057      0.00615        0.097850819    0.096663252    0.10782087    -994.60461      542.89257      542.89257      542.89257      1.60008e+08    2.5101008     -8103708       -8103708        1204.3252     -8102503.6     -965.7125      -953.99213     -1064.1092     -20.826996     -1.5719121      27.686064      11761.981    
     12400   403.48522      0.0062         0.098393437    0.097247504    0.10838445    -1000.1658      542.91955      542.91955      542.91955      1.6003185e+08  2.5097267     -8103408.2     -8103408.2      1201.5101     -8102206.7     -971.06773     -959.75824     -1069.6714     -20.862101     -1.5525981      27.595833      11773.859    
     12500   402.55528      0.00625        0.09893695     0.097830531    0.10894189    -1005.7056      542.94653      542.94653      542.94653      1.6005571e+08  2.5093526     -8103106.3     -8103106.3      1198.7409     -8101907.6     -976.43178     -965.51227     -1075.1729     -20.890357     -1.5440359      27.504552      11732.011    
     12600   401.64135      0.0063         0.099481416    0.098412872    0.10949338    -1011.2268      542.9735       542.9735       542.9735       1.6007957e+08  2.5089785     -8102802.3     -8102802.3      1196.0194     -8101606.3     -981.80524     -971.25953     -1080.6157     -20.910657     -1.5514501      27.415697      11757.991    
     12700   400.74408      0.00635        0.10002681     0.098994846    0.11003888    -1016.7301      543.00048      543.00048      543.00048      1.6010343e+08  2.5086046     -8102496.2     -8102496.2      1193.3474     -8101302.8     -987.18782     -977.00317     -1085.9993     -20.921481     -1.5801781      27.332085      11762.546    
     12800   399.8642       0.0064         0.1005729      0.099576711    0.11057825    -1022.2152      543.02746      543.02746      543.02746      1.601273e+08   2.5082307     -8102187.9     -8102187.9      1190.7273     -8100997.2     -992.57733     -982.74573     -1091.3225     -20.922066     -1.6350251      27.255932      11710.87     
     12900   399.00252      0.00645        0.10111943     0.10015876     0.1111116     -1027.6825      543.05444      543.05444      543.05444      1.6015117e+08  2.5078569     -8101877.6     -8101877.6      1188.1614     -8100689.4     -997.9712      -988.49011     -1096.5862     -20.91223      -1.7199463      27.188964      11750.132    
     13000   398.15989      0.0065         0.1016662      0.10074145     0.11163928    -1033.1341      543.08142      543.08142      543.08142      1.6017504e+08  2.5074832     -8101565.2     -8101565.2      1185.6522     -8100379.5     -1003.3674     -994.24079     -1101.7941     -20.891154     -1.837976       27.133109      11802.146    
     13100   397.33714      0.00655        0.10221284     0.10132535     0.11216204    -1038.573       543.1084       543.1084       543.1084       1.6019891e+08  2.5071095     -8101250.6     -8101250.6      1183.2021     -8100067.4     -1008.7623     -1000.0034     -1106.9533     -20.858531     -1.9900458      27.090725      11705.164    
     13200   396.53505      0.0066         0.10275888     0.10191088     0.11268087    -1044.0024      543.13538      543.13538      543.13538      1.6022278e+08  2.5067359     -8100934       -8100934        1180.8137     -8099753.2     -1014.1513     -1005.7822     -1112.0737     -20.816146     -2.1765361      27.064586      11764.776    
     13300   395.75434      0.00665        0.10330375     0.10249825     0.11319672    -1049.4242      543.16236      543.16236      543.16236      1.6024666e+08  2.5063624     -8100615.3     -8100615.3      1178.4888     -8099436.8     -1019.5287     -1011.5791     -1117.1647     -20.7663       -2.3964152      27.056516      11758.784    
     13400   394.9956       0.0067         0.1038469      0.10308747     0.11371056    -1054.8398      543.18933      543.18933      543.18933      1.6027054e+08  2.505989      -8100294.5     -8100294.5      1176.2295     -8099118.3     -1024.8892     -1017.3943     -1122.2359     -20.709333     -2.6461342      27.068514      11778.298    
     13500   394.2594       0.00675        0.10438816     0.10367835     0.11422349    -1060.2517      543.21631      543.21631      543.21631      1.6029442e+08  2.5056156     -8099971.7     -8099971.7      1174.0372     -8098797.6     -1030.2311     -1023.2257     -1127.2982     -20.643824     -2.9195353      27.101861      11765.649    
     13600   393.54615      0.0068         0.10492781     0.10427059     0.1147366     -1065.6633      543.24329      543.24329      543.24329      1.6031831e+08  2.5052423     -8099646.8     -8099646.8      1171.9132     -8098474.8     -1035.557      -1029.0707     -1132.3622     -20.567168     -3.2083971      27.154485      11796.811    
     13700   392.85615      0.00685        0.10546613     0.10486408     0.11525065    -1071.0777      543.27027      543.27027      543.27027      1.6034219e+08  2.5048691     -8099319.8     -8099319.8      1169.8585     -8098149.9     -1040.8698     -1034.928      -1137.4354     -20.477251     -3.5051401      27.223322      11742.11     
     13800   392.18945      0.0069         0.10600328     0.10545873     0.1157663     -1076.4974      543.29725      543.29725      543.29725      1.6036608e+08  2.504496      -8098990.8     -8098990.8      1167.8732     -8097822.9     -1046.171      -1040.7968     -1142.5245     -20.373408     -3.8026241      27.306009      11790.933    
     13900   391.54591      0.00695        0.10653935     0.10605443     0.1162842     -1081.9244      543.32423      543.32423      543.32423      1.6038997e+08  2.5041229     -8098659.8     -8098659.8      1165.9569     -8097493.8     -1051.4617     -1046.6759     -1147.6358     -20.256416     -4.0948226      27.400295      11731.47     
     14000   390.92517      0.007          0.10707444     0.10665117     0.11680506    -1087.3613      543.35121      543.35121      543.35121      1.6041387e+08  2.5037499     -8098326.7     -8098326.7      1164.1084     -8097162.6     -1056.7426     -1052.5652     -1152.7763     -20.127999     -4.3781534      27.502607      11759.017    
     14100   390.32665      0.00705        0.10760884     0.10724899     0.11732976    -1092.8122      543.37819      543.37819      543.37819      1.6043776e+08  2.503377      -8097991.5     -8097991.5      1162.3261     -8096829.2     -1062.0167     -1058.4653     -1157.9547     -19.990749     -4.6504363      27.608644      11669.539    
     14200   389.74963      0.0071         0.1081434      0.10784784     0.11785926    -1098.2827      543.40516      543.40516      543.40516      1.6046166e+08  2.5030042     -8097654.3     -8097654.3      1160.6078     -8096493.7     -1067.2923     -1064.3754     -1163.1805     -19.846762     -4.9081856      27.714196      11791.446    
     14300   389.1932       0.00715        0.10867946     0.10844747     0.11839465    -1103.7802      543.43214      543.43214      543.43214      1.6048556e+08  2.5026314     -8097315.1     -8097315.1      1158.9509     -8096156.1     -1072.5829     -1070.2934     -1168.4643     -19.698041     -5.1469777      27.815366      11745.464    
     14400   388.65631      0.0072         0.10921852     0.10904771     0.11893679    -1109.3117      543.45912      543.45912      543.45912      1.6050947e+08  2.5022587     -8096973.8     -8096973.8      1157.3521     -8095816.4     -1077.903      -1076.2172     -1173.8149     -19.545383     -5.3645087      27.908295      11752.65     
     14500   388.13776      0.00725        0.10976186     0.10964852     0.11948624    -1114.8832      543.4861       543.4861       543.4861       1.6053337e+08  2.5018861     -8096630.4     -8096630.4      1155.808      -8095474.6     -1083.2653     -1082.1467     -1179.2375     -19.388668     -5.5607187      27.987995      11770.325    
     14600   387.63622      0.0073         0.11031038     0.11025005     0.1200433     -1120.4991      543.51308      543.51308      543.51308      1.6055728e+08  2.5015136     -8096284.9     -8096284.9      1154.3145     -8095130.6     -1088.6788     -1088.0833     -1184.7353     -19.228817     -5.7359881      28.04883       11748.605    
     14700   387.15029      0.00735        0.11086499     0.11085289     0.12060843    -1126.166       543.54006      543.54006      543.54006      1.6058119e+08  2.5011411     -8095937.3     -8095937.3      1152.8674     -8094784.5     -1094.1524     -1094.0329     -1190.3126     -19.069042     -5.8916524      28.084037      11751.412    
     14800   386.67843      0.0074         0.11142672     0.11145761     0.12118202    -1131.8903      543.56704      543.56704      543.56704      1.606051e+08   2.5007687     -8095587.6     -8095587.6      1151.4623     -8094436.2     -1099.6962     -1100.0011     -1195.9736     -18.913426     -6.0301344      28.085984      11742.98     
     14900   386.21906      0.00745        0.11199655     0.11206435     0.12176424    -1137.6763      543.59402      543.59402      543.59402      1.6062902e+08  2.5003964     -8095235.8     -8095235.8      1150.0944     -8094085.7     -1105.32       -1105.9892     -1201.7196     -18.766218     -6.1523284      28.047977      11763.538    
     15000   385.77059      0.0075         0.11257539     0.11267338     0.12235515    -1143.528       543.62099      543.62099      543.62099      1.6065293e+08  2.5000241     -8094881.8     -8094881.8      1148.7589     -8093733.1     -1111.0328     -1111.9998     -1207.5514     -18.630295     -6.2582469      27.963898      11797.724    
     15100   385.33144      0.00755        0.11316385     0.11328519     0.12295464    -1149.4488      543.64797      543.64797      543.64797      1.6067685e+08  2.4996519     -8094525.6     -8094525.6      1147.4512     -8093378.2     -1116.8404     -1118.0379     -1213.468      -18.506864     -6.3484416      27.830201      11746.784    
     15200   384.90011      0.0076         0.11376206     0.11390029     0.12356235    -1155.4395      543.67495      543.67495      543.67495      1.6070078e+08  2.4992798     -8094167.2     -8094167.2      1146.1668     -8093021.1     -1122.7443     -1124.1085     -1219.4656     -18.396643     -6.4236963      27.646669      11740.604    
     15300   384.47515      0.00765        0.11436997     0.11451912     0.12417768    -1161.4994      543.70193      543.70193      543.70193      1.607247e+08   2.4989078     -8093806.5     -8093806.5      1144.9014     -8092661.6     -1128.7438     -1130.2159     -1225.5384     -18.298699     -6.4870173      27.416578      11759.671    
     15400   384.05528      0.0077         0.1149871      0.11514193     0.12479994    -1167.6255      543.72891      543.72891      543.72891      1.6074863e+08  2.4985359     -8093443.6     -8093443.6      1143.6511     -8092299.9     -1134.8345     -1136.3625     -1231.6796     -18.210791     -6.5405379      27.145131      11758.137    
     15500   383.63938      0.00775        0.11561271     0.11576891     0.12542854    -1173.8142      543.75589      543.75589      543.75589      1.6077256e+08  2.498164      -8093078.3     -8093078.3      1142.4126     -8091935.9     -1141.0088     -1142.5503     -1237.8835     -18.130433     -6.5857276      26.836481      11744.22     
     15600   383.22644      0.0078         0.11624591     0.11639985     0.1260629     -1180.0597      543.78287      543.78287      543.78287      1.6079649e+08  2.4977922     -8092710.7     -8092710.7      1141.1829     -8091569.5     -1147.258      -1148.7772     -1244.1441     -18.056353     -6.6236523      26.494864      11738.193    
     15700   382.81565      0.00785        0.11688573     0.11703429     0.12670233    -1186.3553      543.80984      543.80984      543.80984      1.6082042e+08  2.4974204     -8092340.7     -8092340.7      1139.9596     -8091200.8     -1153.5725     -1155.0386     -1250.4548     -17.987957     -6.6549555      26.125185      11756.505    
     15800   382.40631      0.0079         0.11753099     0.11767167     0.12734599    -1192.6923      543.83682      543.83682      543.83682      1.6084436e+08  2.4970488     -8091968.4     -8091968.4      1138.7407     -8090829.7     -1159.9407     -1161.3291     -1256.8072     -17.924534     -6.6798565      25.731882      11785.273    
     15900   381.99785      0.00795        0.11818033     0.11831167     0.12799273    -1199.0615      543.8638       543.8638       543.8638       1.608683e+08   2.4966772     -8091593.7     -8091593.7      1137.5244     -8090456.1     -1166.3492     -1167.6454     -1263.1901     -17.86446      -6.6981121      25.317641      11760.547    
     16000   381.58978      0.008          0.11883255     0.1189541      0.12864116    -1205.4537      543.89078      543.89078      543.89078      1.6089224e+08  2.4963057     -8091216.5     -8091216.5      1136.3092     -8090080.2     -1172.786      -1173.9857     -1269.5895     -17.806239     -6.709125       24.885393      11728.256    
     16100   381.18171      0.00805        0.11948659     0.11959834     0.12928972    -1211.8584      543.91776      543.91776      543.91776      1.6091618e+08  2.4959343     -8090836.9     -8090836.9      1135.0941     -8089701.8     -1179.241      -1180.3439     -1275.9903     -17.749669     -6.7109757      24.438734      11761.045    
     16200   380.77342      0.0081         0.12014139     0.12024335     0.12993679    -1218.2631      543.94474      543.94474      543.94474      1.6094013e+08  2.4955629     -8090454.9     -8090454.9      1133.8782     -8089321.1     -1185.7033     -1186.7096     -1282.3764     -17.69378      -6.701641       23.981324      11706.54     
     16300   380.36475      0.00815        0.12079593     0.12088817     0.13058064    -1224.6558      543.97172      543.97172      543.97172      1.6096408e+08  2.4951916     -8090070.5     -8090070.5      1132.6613     -8088937.9     -1192.1631     -1193.0734     -1288.7308     -17.638892     -6.6791003      23.517596      11746.11     
     16400   379.95563      0.0082         0.12144909     0.12153186     0.13121936    -1231.0233      543.9987       543.9987       543.9987       1.6098803e+08  2.4948204     -8089683.7     -8089683.7      1131.443      -8088552.3     -1198.6094     -1199.4262     -1295.0344     -17.586723     -6.641171       23.052092      11774.246    
     16500   379.54608      0.00825        0.12209983     0.12217338     0.13185099    -1237.3524      544.02567      544.02567      544.02567      1.6101198e+08  2.4944492     -8089294.5     -8089294.5      1130.2234     -8088164.3     -1205.0317     -1205.7575     -1301.2681     -17.538873     -6.5851386      22.58919       11741.659    
     16600   379.13621      0.0083         0.12274707     0.12281159     0.13247368    -1243.6297      544.05265      544.05265      544.05265      1.6103593e+08  2.4940782     -8088903       -8088903        1129.0029     -8087774       -1211.4194     -1212.0561     -1307.4136     -17.49787      -6.5083094      22.132704      11744.85     
     16700   378.72625      0.00835        0.12338952     0.12344552     0.13308568    -1249.842       544.07963      544.07963      544.07963      1.6105989e+08  2.4937072     -8088509.1     -8088509.1      1127.7821     -8087381.3     -1217.7599     -1218.3126     -1313.4536     -17.463657     -6.4078468      21.685933      11770.34     
     16800   378.31652      0.0084         0.12402601     0.12407434     0.13368555    -1255.9779      544.10661      544.10661      544.10661      1.6108385e+08  2.4933363     -8088112.9     -8088112.9      1126.562      -8086986.3     -1224.0415     -1224.5185     -1319.3738     -17.434828     -6.2796436      21.251812      11777.505    
     16900   377.90746      0.00845        0.12465555     0.12469731     0.13427214    -1262.0281      544.13359      544.13359      544.13359      1.6110781e+08  2.4929654     -8087714.5     -8087714.5      1125.3439     -8086589.1     -1230.2547     -1230.6668     -1325.163      -17.410532     -6.1191916      20.83335       11754.826    
     17000   377.49954      0.0085         0.12527721     0.12531378     0.1348443     -1267.9835      544.16057      544.16057      544.16057      1.6113178e+08  2.4925946     -8087313.8     -8087313.8      1124.1292     -8086189.7     -1236.39       -1236.7508     -1330.8098     -17.389909     -5.9231264      20.434787      11775.871    
     17100   377.09331      0.00855        0.12589003     0.1259229      0.13540087    -1273.8344      544.18755      544.18755      544.18755      1.6115575e+08  2.4922239     -8086911       -8086911        1122.9195     -8085788.1     -1242.438      -1242.7624     -1336.3027     -17.371998     -5.6898613      20.061451      11756.391    
     17200   376.68933      0.0086         0.12649317     0.12652378     0.13594094    -1279.572       544.21453      544.21453      544.21453      1.6117972e+08  2.4918533     -8086506.1     -8086506.1      1121.7165     -8085384.3     -1248.3905     -1248.6926     -1341.6327     -17.356473     -5.41866        19.718007      11682.651    
     17300   376.28823      0.00865        0.12708598     0.12711563     0.13646407    -1285.1902      544.2415       544.2415       544.2415       1.6120369e+08  2.4914827     -8086099       -8086099        1120.5221     -8084978.5     -1254.2411     -1254.5337     -1346.7957     -17.34433      -5.1101574      19.408872      11706.671    
     17400   375.89066      0.0087         0.12766819     0.12769788     0.13697048    -1290.6869      544.26848      544.26848      544.26848      1.6122766e+08  2.4911123     -8085690       -8085690        1119.3382     -8084570.7     -1259.9871     -1260.2801     -1351.7936     -17.335738     -4.7680939      19.138518      11744.056    
     17500   375.49724      0.00875        0.12823973     0.12826996     0.13746066    -1296.0617      544.29546      544.29546      544.29546      1.6125164e+08  2.4907419     -8085279       -8085279        1118.1667     -8084160.8     -1265.6278     -1265.9261     -1356.6312     -17.329928     -4.398981       18.909109      11762.089    
     17600   375.10868      0.0088         0.1288003      0.12883098     0.13793517    -1301.3124      544.32244      544.32244      544.32244      1.6127562e+08  2.4903715     -8084866.1     -8084866.1      1117.0096     -8083749       -1271.1601     -1271.4629     -1361.3143     -17.326127     -4.0095688      18.721603      11746.282    
     17700   374.72571      0.00885        0.12934935     0.12938026     0.13839493    -1306.4382      544.34942      544.34942      544.34942      1.612996e+08   2.4900013     -8084451.2     -8084451.2      1115.8692     -8083335.4     -1276.5788     -1276.8839     -1365.8517     -17.324448     -3.6076552      18.576781      11769.7      
     17800   374.34909      0.0089         0.12988648     0.12991751     0.13884135    -1311.4412      544.3764       544.3764       544.3764       1.6132358e+08  2.4896311     -8084034.6     -8084034.6      1114.7477     -8082919.9     -1281.8799     -1282.1861     -1370.2576     -17.32486      -3.2028193      18.472815      11722.906    
     17900   373.97961      0.00895        0.13041143     0.13044258     0.13927578    -1316.3247      544.40338      544.40338      544.40338      1.6134757e+08  2.489261      -8083616.2     -8083616.2      1113.6474     -8082502.5     -1287.0608     -1287.3681     -1374.5451     -17.32663      -2.8042833      18.407035      11733.339    
     18000   373.61809      0.009          0.13092411     0.13095561     0.13969963    -1321.0933      544.43036      544.43036      544.43036      1.6137156e+08  2.4888909     -8083196       -8083196        1112.5709     -8082083.4     -1292.1205     -1292.4314     -1378.7281     -17.330946     -2.4207724      18.376627      11647.966    
     18100   373.26533      0.00905        0.13142454     0.13145672     0.14011421    -1325.752       544.45733      544.45733      544.45733      1.6139555e+08  2.488521      -8082774.1     -8082774.1      1111.5204     -8081662.6     -1297.0594     -1297.377      -1382.8197     -17.339637     -2.0615645      18.378629      11783.764    
     18200   372.92215      0.0091         0.13191294     0.13194619     0.1405208     -1330.3065      544.48431      544.48431      544.48431      1.6141954e+08  2.4881511     -8082350.5     -8082350.5      1110.4985     -8081240       -1301.8795     -1302.2077     -1386.8324     -17.353585     -1.7361323      18.412149      11749.376    
     18300   372.58929      0.00915        0.13238955     0.13242461     0.14092047    -1334.7632      544.51129      544.51129      544.51129      1.6144354e+08  2.4877812     -8081925.2     -8081925.2      1109.5073     -8080815.7     -1306.5833     -1306.9293     -1390.7769     -17.371621     -1.4512408      18.476911      11772.111    
     18400   372.26747      0.0092         0.13285491     0.13289272     0.14131419    -1339.1293      544.53827      544.53827      544.53827      1.6146754e+08  2.4874115     -8081498.3     -8081498.3      1108.5489     -8080389.7     -1311.176      -1311.5492     -1394.6626     -17.39371      -1.2117482      18.571492      11752.797    
     18500   371.95733      0.00925        0.13330971     0.13335148     0.1417031     -1343.4141      544.56525      544.56525      544.56525      1.6149154e+08  2.4870418     -8081069.7     -8081069.7      1107.6254     -8079962.1     -1315.6646     -1316.0767     -1398.5009     -17.420589     -1.0211058      18.693251      11752.78     
     18600   371.65948      0.0093         0.13375484     0.1338021      0.14208834    -1347.6282      544.59223      544.59223      544.59223      1.6151554e+08  2.4866722     -8080639.6     -8080639.6      1106.7385     -8079532.8     -1320.0576     -1320.524      -1402.3029     -17.452137     -0.87963236     18.838743      11745.176    
     18700   371.37442      0.00935        0.13419141     0.13424597     0.14247099    -1351.7834      544.61921      544.61921      544.61921      1.6153955e+08  2.4863027     -8080207.8     -8080207.8      1105.8896     -8079102       -1324.3662     -1324.9047     -1406.0794     -17.488144     -0.78364549     19.003302      11765.417    
     18800   371.10253      0.0094         0.13462094     0.13468455     0.14285233    -1355.8938      544.64618      544.64618      544.64618      1.6156355e+08  2.4859332     -8079774.6     -8079774.6      1105.08       -8078669.5     -1328.6054     -1329.2332     -1409.8429     -17.528136     -0.72776093     19.1815        11757.183    
     18900   370.84401      0.00945        0.135045       0.13511943     0.14323373    -1359.9742      544.67316      544.67316      544.67316      1.6158756e+08  2.4855639     -8079339.8     -8079339.8      1104.3101     -8078235.5     -1332.7906     -1333.525      -1413.607      -17.57112      -0.70564729     19.367433      11756.633    
     19000   370.59884      0.0095         0.13546519     0.1355524      0.14361683    -1364.0412      544.70014      544.70014      544.70014      1.6161158e+08  2.4851946     -8078903.6     -8078903.6      1103.5801     -8077800       -1336.9375     -1337.7982     -1417.3879     -17.614837     -0.71175732     19.554724      11748.86     
     19100   370.36672      0.00955        0.13588317     0.13598517     0.14400332    -1368.1114      544.72712      544.72712      544.72712      1.6163559e+08  2.4848253     -8078465.8     -8078465.8      1102.8888     -8077362.9     -1341.0627     -1342.0693     -1421.2023     -17.65659      -0.74137969     19.738182      11768.97     
     19200   370.14718      0.0096         0.1363006      0.13641916     0.1443947     -1372.1999      544.7541       544.7541       544.7541       1.6165961e+08  2.4844562     -8078026.6     -8078026.6      1102.2351     -8076924.3     -1345.1823     -1346.3524     -1425.0648     -17.694517     -0.7896436      19.912423      11793.563    
     19300   369.93965      0.00965        0.13671879     0.1368555      0.14479222    -1376.3188      544.78108      544.78108      544.78108      1.6168363e+08  2.4840871     -8077585.8     -8077585.8      1101.6171     -8076484.2     -1349.3095     -1350.6588     -1428.9881     -17.729079     -0.85100869     20.071994      11782.767    
     19400   369.74349      0.0097         0.13713911     0.13729538     0.14519713    -1380.4807      544.80806      544.80806      544.80806      1.6170765e+08  2.4837181     -8077143.6     -8077143.6      1101.033      -8076042.6     -1353.4577     -1355.0001     -1432.9843     -17.760312     -0.92092255     20.211228      11768.005    
     19500   369.55797      0.00975        0.13756311     0.13773992     0.14561084    -1384.699       544.83504      544.83504      544.83504      1.6173167e+08  2.4833491     -8076699.9     -8076699.9      1100.4805     -8075599.4     -1357.6424     -1359.3873     -1437.0673     -17.785998     -0.9954043      20.325388      11740.658    
     19600   369.38223      0.0098         0.13799248     0.13818991     0.14603459    -1388.9859      544.86201      544.86201      544.86201      1.617557e+08   2.4829802     -8076254.6     -8076254.6      1099.9572     -8075154.7     -1361.8799     -1363.8284     -1441.2493     -17.804087     -1.0704524      20.411474      11748.903    
     19700   369.21528      0.00985        0.13842856     0.1386458      0.14646925    -1393.3501      544.88899      544.88899      544.88899      1.6177973e+08  2.4826114     -8075807.8     -8075807.8      1099.4601     -8074708.3     -1366.1837     -1368.3277     -1445.5391     -17.811904     -1.1420634      20.467508      11766.385    
     19800   369.05613      0.0099         0.13887249     0.13910792     0.14691548    -1397.7988      544.91597      544.91597      544.91597      1.6180376e+08  2.4822427     -8075359.4     -8075359.4      1098.9861     -8074260.4     -1370.5649     -1372.8884     -1449.943      -17.806161     -1.2064048      20.491764      11745.465    
     19900   368.90374      0.00995        0.13932516     0.13957658     0.14737392    -1402.3379      544.94295      544.94295      544.94295      1.618278e+08   2.4818741     -8074909.4     -8074909.4      1098.5323     -8073810.9     -1375.0324     -1377.5138     -1454.4676     -17.785047     -1.2592         20.483509      11740.315    
     20000   368.75706      0.01           0.13978737     0.14005207     0.14784499    -1406.9724      544.96993      544.96993      544.96993      1.6185183e+08  2.4815055     -8074457.8     -8074457.8      1098.0956     -8073359.7     -1379.5941     -1382.2065     -1459.1166     -17.747338     -1.2955592      20.44323       7597.7005    
     20100   368.61506      0.01005        0.1402598      0.14053465     0.1483289     -1411.7061      544.99691      544.99691      544.99691      1.6187587e+08  2.481137      -8074004.5     -8074004.5      1097.6727     -8072906.9     -1384.2566     -1386.9692     -1463.8925     -17.693497     -1.3127222      20.371529      11717.968    
     20200   368.47666      0.0101         0.14074315     0.14102465     0.148826      -1416.5435      545.02389      545.02389      545.02389      1.6189991e+08  2.4807686     -8073549.5     -8073549.5      1097.2606     -8072452.3     -1389.0269     -1391.8051     -1468.7984     -17.625407     -1.3106504      20.269396      11738.887    
     20300   368.34082      0.01015        0.14123784     0.14152223     0.14933648    -1421.4871      545.05087      545.05087      545.05087      1.6192395e+08  2.4804002     -8073092.7     -8073092.7      1096.8561     -8071995.8     -1393.9091     -1396.7158     -1473.8364     -17.545051     -1.2908403      20.138419      11738.281    
     20400   368.20655      0.0102         0.1417439      0.14202736     0.14986018    -1426.5365      545.07784      545.07784      545.07784      1.61948e+08    2.4800319     -8072634       -8072634        1096.4562     -8071537.6     -1398.9036     -1401.701      -1479.005      -17.453744     -1.2568245      19.98112       11794.806    
     20500   368.07306      0.01025        0.14226091     0.14253972     0.15039659    -1431.6876      545.10482      545.10482      545.10482      1.6197205e+08  2.4796637     -8072173.5     -8072173.5      1096.0587     -8071077.4     -1404.0061     -1406.7577     -1484.2989     -17.353451     -1.2137514      19.800626      11764.145    
     20600   367.93979      0.0103         0.14278784     0.14305867     0.15094474    -1436.9315      545.1318       545.1318       545.1318       1.619961e+08   2.4792956     -8071711       -8071711        1095.6619     -8070615.4     -1409.2065     -1411.8793     -1489.7087     -17.245637     -1.1661935      19.601017      11705.408    
     20700   367.80647      0.01035        0.14332337     0.14358345     0.15150341    -1442.2575      545.15878      545.15878      545.15878      1.6202015e+08  2.4789275     -8071246.6     -8071246.6      1095.2648     -8070151.3     -1414.4916     -1417.0585     -1495.2224     -17.13168      -1.1173464      19.387038      11762.972    
     20800   367.6731       0.0104         0.1438661      0.14411317     0.15207145    -1447.6543      545.18576      545.18576      545.18576      1.6204421e+08  2.4785595     -8070780.1     -8070780.1      1094.8677     -8069685.3     -1419.848      -1422.2864     -1500.8286     -17.013916     -1.0709566      19.164568      11704.635    
     20900   367.5399       0.01045        0.1444146      0.1446469      0.15264764    -1453.1101      545.21274      545.21274      545.21274      1.6206826e+08  2.4781916     -8070311.6     -8070311.6      1094.4711     -8069217.1     -1425.2613     -1427.554      -1506.5151     -16.8958       -1.0317947      18.94041       11737.311    
     21000   367.40731      0.0105         0.14496725     0.14518357     0.15323046    -1458.611       545.23972      545.23972      545.23972      1.6209232e+08  2.4778237     -8069841       -8069841        1094.0762     -8068747       -1430.7155     -1432.8504     -1512.2671     -16.781104     -1.003729       18.722539      11751.53     
     21100   367.27594      0.01055        0.14552209     0.14572172     0.15381818    -1464.1401      545.2667       545.2667       545.2667       1.6211639e+08  2.477456      -8069368.3     -8069368.3      1093.685      -8068274.7     -1436.1913     -1438.1616     -1518.0674     -16.673986     -0.99020634     18.519263      11748.773    
     21200   367.14661      0.0106         0.14607703     0.14626003     0.1544089     -1469.6799      545.29367      545.29367      545.29367      1.6214045e+08  2.4770883     -8068893.5     -8068893.5      1093.2999     -8067800.2     -1441.6682     -1443.4742     -1523.8974     -16.576641     -0.99386334     18.337823      11751.423    
     21300   367.02029      0.01065        0.14663008     0.14679748     0.15500049    -1475.2136      545.32065      545.32065      545.32065      1.6216452e+08  2.4767206     -8068416.7     -8068416.7      1092.9238     -8067323.7     -1447.1264     -1448.7785     -1529.7359     -16.489284     -1.0155416      18.184098      11780.359    
     21400   366.89806      0.0107         0.14717923     0.14733302     0.15559057    -1480.7231      545.34763      545.34763      545.34763      1.6218859e+08  2.4763531     -8067937.7     -8067937.7      1092.5598     -8066845.1     -1452.5461     -1454.0638     -1535.5595     -16.411515     -1.0553037      18.062664      11772.269    
     21500   366.78104      0.01075        0.14772237     0.14786563     0.15617678    -1486.1906      545.37461      545.37461      545.37461      1.6221266e+08  2.4759856     -8067456.6     -8067456.6      1092.2113     -8066364.4     -1457.9064     -1459.3203     -1541.345      -16.344416     -1.1126535      17.977046      11775.348    
     21600   366.67029      0.0108         0.14825769     0.1483944      0.15675689    -1491.5996      545.40159      545.40159      545.40159      1.6223673e+08  2.4756182     -8066973.5     -8066973.5      1091.8815     -8065881.6     -1463.1897     -1464.5389     -1547.0702     -16.291231     -1.1866402      17.928862      11747.157    
     21700   366.56681      0.01085        0.14878399     0.14891863     0.15732898    -1496.9376      545.42857      545.42857      545.42857      1.6226081e+08  2.4752508     -8066488.4     -8066488.4      1091.5734     -8065396.8     -1468.3838     -1469.7126     -1552.7163     -16.254838     -1.2752983      17.917495      11769.148    
     21800   366.4714       0.0109         0.14930066     0.14943797     0.15789174    -1502.1971      545.45555      545.45555      545.45555      1.6228489e+08  2.4748836     -8066001.3     -8066001.3      1091.2892     -8064910       -1473.483      -1474.8381     -1558.2704     -16.235917     -1.3777431      17.939447      11762.734    
[...]
    919000   329.16725      0.4595         0.037581804    0.038139634    0.03748456    -372.41878      787.50853      787.50853      787.50853      4.8838891e+08  0.82236963    -4084288       -4084288        980.20387     -4083307.8     -370.90356     -376.40892     -369.94384      4.2946621      3.5060583      1.6073619      11032.736    
    919100   329.15753      0.45955        0.037576729    0.038140434    0.037502471   -372.46363      787.53551      787.53551      787.53551      4.8843911e+08  0.82228512    -4084034.6     -4084034.6      980.17491     -4083054.4     -370.85348     -376.41681     -370.12061      4.2157715      3.4310062      1.6136578      11049.775    
    919200   329.14895      0.4596         0.037571445    0.038141439    0.037520723   -372.5096       787.56248      787.56248      787.56248      4.8848931e+08  0.82220062    -4083781.1     -4083781.1      980.14938     -4082800.9     -370.80134     -376.42673     -370.30074      4.135288       3.3527033      1.6209534      11045.824    
    919300   329.14194      0.45965        0.037565996    0.038142704    0.037539108   -372.55632      787.58946      787.58946      787.58946      4.8853951e+08  0.82211613    -4083527.5     -4083527.5      980.12849     -4082547.4     -370.74756     -376.43922     -370.48219      4.0542721      3.2727656      1.6295034      11033.281    
    919400   329.1369       0.4597         0.03756041     0.038144223    0.037557397   -372.60311      787.61644      787.61644      787.61644      4.8858971e+08  0.82203165    -4083274       -4083274        980.11349     -4082293.8     -370.69242     -376.45422     -370.66269      3.9735807      3.1927268      1.6394401      11047.885    
    919500   329.13425      0.45975        0.037554718    0.03814595     0.03757533    -372.64906      787.64342      787.64342      787.64342      4.8863992e+08  0.82194718    -4083020.4     -4083020.4      980.10559     -4082040.2     -370.63625     -376.47125     -370.83968      3.8940263      3.1138446      1.6508383      11027.637    
    919600   329.13436      0.4598         0.037548946    0.038147832    0.03759273    -372.6935       787.6704       787.6704       787.6704       4.8869014e+08  0.82186273    -4082766.7     -4082766.7      980.10592     -4081786.6     -370.57928     -376.48983     -371.0114       3.8164584      3.0373873      1.6636437      11057.926    
    919700   329.13756      0.45985        0.037543104    0.038149809    0.037609452   -372.7358       787.69738      787.69738      787.69738      4.8874035e+08  0.82177828    -4082513       -4082513        980.11544     -4081532.9     -370.52163     -376.50934     -371.17643      3.7417575      2.9646099      1.6772924      11009.142    
    919800   329.1441       0.4599         0.037537243    0.038151802    0.037625338   -372.77534      787.72436      787.72436      787.72436      4.8879057e+08  0.82169385    -4082259.3     -4082259.3      980.13494     -4081279.2     -370.46379     -376.52901     -371.33321      3.6708414      2.896733       1.6909869      11047.287    
    919900   329.1542       0.45995        0.037531497    0.038153753    0.037640246   -372.8119       787.75134      787.75134      787.75134      4.888408e+08   0.82160943    -4082005.6     -4082005.6      980.165       -4081025.4     -370.40708     -376.54826     -371.48035      3.6049234      2.8348811      1.7040787      11033.975    
    920000   329.16798      0.46           0.037526015    0.038155617    0.037654048   -372.8454       787.77831      787.77831      787.77831      4.8889102e+08  0.82152502    -4081751.8     -4081751.8      980.20604     -4080771.6     -370.35297     -376.56666     -371.61656      3.5453583      2.7799491      1.7160628      9564.9882    
    920100   329.18553      0.46005        0.037520894    0.038157327    0.037666648   -372.87563      787.80529      787.80529      787.80529      4.8894125e+08  0.82144062    -4081498       -4081498        980.2583      -4080517.7     -370.30243     -376.58354     -371.74091      3.4931569      2.7323539      1.726267       11039.354    
    920200   329.20689      0.4601         0.037516212    0.038158744    0.037677966   -372.90212      787.83227      787.83227      787.83227      4.8899149e+08  0.82135624    -4081244.1     -4081244.1      980.32189     -4080263.8     -370.25623     -376.59752     -371.85262      3.4489878      2.6923614      1.7340395      11048.431    
    920300   329.23203      0.46015        0.037512095    0.038159724    0.037687924   -372.92456      787.85925      787.85925      787.85925      4.8904173e+08  0.82127186    -4080990.2     -4080990.2      980.39676     -4080009.8     -370.21559     -376.60719     -371.95089      3.4131858      2.6602616      1.7388359      11062.179    
    920400   329.26086      0.4602         0.037508693    0.03816015     0.03769641    -372.94269      787.88623      787.88623      787.88623      4.8909197e+08  0.8211875     -4080736.3     -4080736.3      980.48261     -4079755.8     -370.18202     -376.6114      -372.03464      3.3861933      2.6362152      1.7400379      11056.777    
    920500   329.29321      0.46025        0.037506141    0.038159922    0.037703299   -372.9562       787.91321      787.91321      787.91321      4.8914221e+08  0.82110315    -4080482.3     -4080482.3      980.57894     -4079501.8     -370.15683     -376.60915     -372.10263      3.3684995      2.6199956      1.7369397      11059.673    
    920600   329.32882      0.4603         0.037504559    0.038158965    0.037708426   -372.96472      787.94019      787.94019      787.94019      4.8919246e+08  0.82101881    -4080228.4     -4080228.4      980.68499     -4079247.7     -370.14122     -376.59971     -372.15323      3.3604686      2.6110576      1.7287767      11057.271    
    920700   329.3674       0.46035        0.037504026    0.03815721     0.037711572   -372.96754      787.96716      787.96716      787.96716      4.8924271e+08  0.82093448    -4079974.4     -4079974.4      980.79987     -4078993.6     -370.13596     -376.58238     -372.18428      3.3625666      2.6089351      1.7148459      11038.475    
    920800   329.40863      0.4604         0.037504621    0.038154595    0.037712557   -372.96414      787.99414      787.99414      787.99414      4.8929296e+08  0.82085017    -4079720.4     -4079720.4      980.92265     -4078739.5     -370.14183     -376.55657     -372.194        3.3750273      2.6133122      1.6945938      11082.58     
    920900   329.45216      0.46045        0.037506419    0.038151144    0.037711264   -372.95444      788.02112      788.02112      788.02112      4.8934322e+08  0.82076586    -4079466.5     -4079466.5      981.05229     -4078485.4     -370.15958     -376.52251     -372.18124      3.3976819      2.6238531      1.6677204      11050.695    
    921000   329.49761      0.4605         0.037509543    0.038146969    0.037707692   -372.93924      788.0481       788.0481       788.0481       4.8939348e+08  0.82068157    -4079212.5     -4079212.5      981.18761     -4078231.3     -370.19041     -376.48132     -372.14599      3.4301358      2.6402428      1.6344189      11034.107    
    921100   329.5445       0.46055        0.037514104    0.038142175    0.037701947   -372.91957      788.07508      788.07508      788.07508      4.8944375e+08  0.82059729    -4078958.5     -4078958.5      981.32726     -4077977.2     -370.23542     -376.434       -372.08929      3.4718449      2.6619514      1.5949967      11009.995    
    921200   329.59234      0.4606         0.03752014     0.038136857    0.037694168   -372.89634      788.10206      788.10206      788.10206      4.8949401e+08  0.82051302    -4078704.5     -4078704.5      981.4697      -4077723       -370.29499     -376.38152     -372.01251      3.5221669      2.688259       1.5497379      11019.147    
    921300   329.64057      0.46065        0.037527593    0.038131074    0.037684493   -372.87         788.12904      788.12904      788.12904      4.8954429e+08  0.82042876    -4078450.5     -4078450.5      981.61333     -4077468.9     -370.36854     -376.32445     -371.91703      3.5801632      2.718358       1.4992554      11055.748    
    921400   329.68866      0.4607         0.037536384    0.038124847    0.037673001   -372.84064      788.15602      788.15602      788.15602      4.8959456e+08  0.82034451    -4078196.6     -4078196.6      981.75654     -4077214.8     -370.45531     -376.26299     -371.80361      3.6448372      2.7515651      1.4445139      11047.018    
    921500   329.73614      0.46075        0.037546403    0.038118157    0.037659722   -372.8079       788.18299      788.18299      788.18299      4.8964484e+08  0.82026027    -4077942.6     -4077942.6      981.89792     -4076960.7     -370.55419     -376.19696     -371.67255      3.7152286      2.787448       1.3864323      11011.797    
    921600   329.7826       0.4608         0.037557501    0.038110996    0.037644716   -372.77149      788.20997      788.20997      788.20997      4.8969512e+08  0.82017605    -4077688.6     -4077688.6      982.03626     -4076706.6     -370.66372     -376.12629     -371.52446      3.7905139      2.8257856      1.3262658      11011.159    
    921700   329.8277       0.46085        0.037569467    0.038103399    0.037628094   -372.73118      788.23695      788.23695      788.23695      4.8974541e+08  0.82009184    -4077434.7     -4077434.7      982.17057     -4076452.5     -370.78181     -376.05131     -371.36041      3.8698199      2.8663693      1.2656462      11025.871    
    921800   329.87116      0.4609         0.037582099    0.038095443    0.037609985   -372.68699      788.26393      788.26393      788.26393      4.8979569e+08  0.82000763    -4077180.8     -4077180.8      982.29997     -4076198.5     -370.90648     -375.9728      -371.1817       3.9521743      2.9089656      1.2064496      11033.193    
    921900   329.91271      0.46095        0.037595194    0.038087214    0.037590547   -372.63905      788.29091      788.29091      788.29091      4.8984599e+08  0.81992345    -4076926.9     -4076926.9      982.42373     -4075944.4     -371.03572     -375.89157     -370.98986      4.036751       2.9533765      1.150518       11014.598    
    922000   329.95218      0.461          0.037608538    0.038078789    0.037569905   -372.58733      788.31789      788.31789      788.31789      4.8989628e+08  0.81983927    -4076672.9     -4076672.9      982.54125     -4075690.4     -371.16741     -375.80843     -370.78613      4.1227778      2.9993213      1.0993883      11053.117    
    922100   329.98944      0.46105        0.037621936    0.038070248    0.037548146   -372.53172      788.34487      788.34487      788.34487      4.8994658e+08  0.8197551     -4076419.1     -4076419.1      982.6522      -4075436.4     -371.29964     -375.72414     -370.57139      4.2093282      3.0464968      1.0544221      11036.45     
    922200   330.02443      0.4611         0.03763524     0.038061686    0.037525385   -372.47245      788.37185      788.37185      788.37185      4.8999688e+08  0.81967095    -4076165.2     -4076165.2      982.7564      -4075182.4     -371.43094     -375.63964     -370.34676      4.2952835      3.09455        1.0169648      11040.701    
    922300   330.05714      0.46115        0.037648333    0.038053236    0.037501812   -372.41017      788.39882      788.39882      788.39882      4.9004719e+08  0.8195868     -4075911.4     -4075911.4      982.85381     -4074928.5     -371.56016     -375.55624     -370.1141       4.3795675      3.1428732      0.98812267     11020.887    
    922400   330.08756      0.4612         0.037661067    0.038045014    0.03747764    -372.34549      788.4258       788.4258       788.4258       4.900975e+08   0.81950267    -4075657.6     -4075657.6      982.94439     -4074674.6     -371.68584     -375.47509     -369.87555      4.4612425      3.1907896      0.96881748     11051.656    
    922500   330.11567      0.46125        0.037673258    0.038037106    0.037453046   -372.27868      788.45278      788.45278      788.45278      4.9014781e+08  0.81941855    -4075403.8     -4075403.8      983.0281      -4074420.8     -371.80615     -375.39705     -369.63282      4.5394824      3.2374144      0.95977894     10966.45     
    922600   330.14147      0.4613         0.037684752    0.03802959     0.037428209   -372.21005      788.47976      788.47976      788.47976      4.9019813e+08  0.81933444    -4075150.1     -4075150.1      983.10491     -4074167       -371.91959     -375.32287     -369.3877       4.6136967      3.2818193      0.96156501     11027.822    
    922700   330.16492      0.46135        0.037695452    0.038022551    0.037403305   -372.14017      788.50674      788.50674      788.50674      4.9024845e+08  0.81925034    -4074896.4     -4074896.4      983.17476     -4073913.3     -372.02519     -375.2534      -369.14192      4.6833591      3.3234002      0.97480431     11013.545    
    922800   330.18603      0.4614         0.037705285    0.03801608     0.037378447   -372.06945      788.53372      788.53372      788.53372      4.9029877e+08  0.81916626    -4074642.8     -4074642.8      983.2376      -4073659.6     -372.12223     -375.18954     -368.89659      4.7477782      3.3616677      1.0000156      11014.556    
    922900   330.20476      0.46145        0.037714186    0.038010226    0.037353734   -371.99818      788.5607       788.5607       788.5607       4.903491e+08   0.81908218    -4074389.2     -4074389.2      983.29339     -4073406       -372.21008     -375.13176     -368.65269      4.8063982      3.3960084      1.037563       11027.608    
    923000   330.22112      0.4615         0.037722103    0.038005062    0.037329287   -371.92681      788.58768      788.58768      788.58768      4.9039943e+08  0.81899812    -4074135.7     -4074135.7      983.3421      -4073152.4     -372.28821     -375.0808      -368.41142      4.8590187      3.4258618      1.087752       11014.434    
    923100   330.23509      0.46155        0.037728995    0.038000671    0.037305278   -371.85606      788.61465      788.61465      788.61465      4.9044976e+08  0.81891407    -4073882.2     -4073882.2      983.38371     -4072898.8     -372.35623     -375.03747     -368.17447      4.9053712      3.4506352      1.1506629      10999.937    
    923200   330.24665      0.4616         0.03773483     0.037997139    0.037281877   -371.78665      788.64163      788.64163      788.64163      4.905001e+08   0.81883003    -4073628.7     -4073628.7      983.41813     -4072645.3     -372.41382     -375.00261     -367.94352      4.9454247      3.4698649      1.2258982      11032.514    
    923300   330.25576      0.46165        0.037739505    0.037994502    0.037259214   -371.71879      788.66861      788.66861      788.66861      4.9055044e+08  0.818746      -4073375.3     -4073375.3      983.44527     -4072391.8     -372.45995     -374.97658     -367.71985      4.9794815      3.4835383      1.3123236      11029.995    
    923400   330.26243      0.4617         0.037742889    0.0379927      0.037237367   -371.65213      788.69559      788.69559      788.69559      4.9060078e+08  0.81866198    -4073121.9     -4073121.9      983.46511     -4072138.4     -372.49335     -374.9588      -367.50424      5.0081396      3.4921341      1.4081595      11010.492    
    923500   330.26667      0.46175        0.037744926    0.037991586    0.037216355   -371.58604      788.72257      788.72257      788.72257      4.9065113e+08  0.81857798    -4072868.5     -4072868.5      983.47774     -4071885       -372.51345     -374.94781     -367.29686      5.0320349      3.4961894      1.5112394      11019.992    
    923600   330.26855      0.4618         0.037745634    0.037990995    0.037196183   -371.52007      788.74955      788.74955      788.74955      4.9070148e+08  0.81849398    -4072615.1     -4072615.1      983.48334     -4071631.6     -372.52045     -374.94197     -367.09778      5.0517404      3.4963116      1.6190821      11034.427    
    923700   330.26814      0.46185        0.037745045    0.037990776    0.037176854   -371.45382      788.77653      788.77653      788.77653      4.9075184e+08  0.81841       -4072361.8     -4072361.8      983.48212     -4071378.3     -372.51464     -374.9398      -366.90702      5.0678124      3.4933002      1.7291818      11028.374    
    923800   330.26549      0.4619         0.037743203    0.037990796    0.037158332   -371.38689      788.8035       788.8035       788.8035       4.9080219e+08  0.81832603    -4072108.5     -4072108.5      983.47423     -4071125       -372.49645     -374.94001     -366.72422      5.0808516      3.4879417      1.8390494      11044.415    
    923900   330.26065      0.46195        0.037740117    0.037990923    0.037140574   -371.31874      788.83048      788.83048      788.83048      4.9085255e+08  0.81824207    -4071855.2     -4071855.2      983.45981     -4070871.8     -372.466       -374.94126     -366.54897      5.0913591      3.481042       1.9463019      11050.254    
    924000   330.25365      0.462          0.037735758    0.037991008    0.037123531   -371.24861      788.85746      788.85746      788.85746      4.9090292e+08  0.81815812    -4071602       -4071602        983.43898     -4070618.5     -372.42297     -374.9421      -366.38076      5.0999804      3.4734626      2.0487409      11062.654    
    924100   330.24456      0.46205        0.037730112    0.037990921    0.037107162   -371.1759       788.88444      788.88444      788.88444      4.9095329e+08  0.81807418    -4071348.8     -4071348.8      983.41192     -4070365.3     -372.36725     -374.94124     -366.21921      5.1074374      3.466038       2.144513       11007.369    
    924200   330.23347      0.4621         0.037723211    0.037990555    0.037091406   -371.10016      788.91142      788.91142      788.91142      4.9100366e+08  0.81799026    -4071095.6     -4071095.6      983.37887     -4070112.2     -372.29915     -374.93763     -366.06371      5.1142491      3.4596728      2.2322963      11021.096    
    924300   330.22048      0.46215        0.037715108    0.037989839    0.037076236   -371.02124      788.9384       788.9384       788.9384       4.9105403e+08  0.81790635    -4070842.4     -4070842.4      983.34019     -4069859.1     -372.21917     -374.93056     -365.914        5.1204678      3.4549709      2.3110311      11053.097    
    924400   330.20572      0.4622         0.037705882    0.03798873     0.037061724   -370.93951      788.96538      788.96538      788.96538      4.9110441e+08  0.81782244    -4070589.3     -4070589.3      983.29626     -4069606       -372.12812     -374.91962     -365.77077      5.1260533      3.4524599      2.3797664      11027.589    
    924500   330.18933      0.46225        0.037695636    0.037987175    0.037047962   -370.85541      788.99236      788.99236      788.99236      4.9115479e+08  0.81773855    -4070336.2     -4070336.2      983.24745     -4069353       -372.027       -374.90427     -365.63495      5.1314359      3.4527296      2.4380755      11018.882    
    924600   330.17139      0.4623         0.03768445     0.037985105    0.037035048   -370.76932      789.01933      789.01933      789.01933      4.9120518e+08  0.81765467    -4070083.2     -4070083.2      983.19403     -4069100       -371.91661     -374.88384     -365.50751      5.1371306      3.4561927      2.4862065      11011.379    
    924700   330.15198      0.46235        0.0376724      0.037982448    0.037023085   -370.68158      789.04631      789.04631      789.04631      4.9125557e+08  0.81757081    -4069830.2     -4069830.2      983.13623     -4068847       -371.79768     -374.85761     -365.38944      5.1433737      3.4632118      2.5245829      11026.172    
ERROR on proc 0: Pair distance > table outer cutoff: ijtype 2 1 dist 147.89001368382526 (src/pair_table_pgn.cpp:138)
Last command: run				${steps_tensile}
