LAMMPS (23 Jun 2022 - Update 1)
OMP_NUM_THREADS environment is not set. Defaulting to 1 thread. (src/comm.cpp:98)
  using 1 OpenMP thread(s) per MPI task
###

# Read restart info
read_restart ${read_res}
read_restart ./600400/equpmf71.res
Reading restart file ...
  restart file = 23 Jun 2022, LAMMPS = 23 Jun 2022
  restoring atom style atomic from restart
  orthogonal box = (2187.7309 2187.7309 2187.7309) to (2812.2691 2812.2691 2812.2691)
  1 by 2 by 2 MPI processor grid
  restoring pair style table from restart
  1000 atoms
  read_restart CPU = 0.336 seconds

# Settings
pair_style table/pgn spline 9941
pair_coeff 1 1 N20.txt DE_GNP 147.89 72.9   # 1.35 * r
pair_coeff 2 2 N100.txt DE_GNP 473.9 111.78
WARNING: 3 of 9941 force values in table DE_GNP are inconsistent with -dE/dr.
WARNING:  Should only be flagged at inflection points (src/pair_table_pgn.cpp:478)
pair_coeff 1 2 mixed_potential.txt DE_GNP 391.2 92.95
WARNING: 1562 of 9941 force values in table DE_GNP are inconsistent with -dE/dr.
WARNING:  Should only be flagged at inflection points (src/pair_table_pgn.cpp:478)

# Neighbor list
neighbor 2.0 bin
neigh_modify delay 0 every 1 check no once yes

# Temperature
variable T equal ${Temp}
variable T equal 300

# Deformation
reset_timestep 0
variable tmp equal "lx"
variable L0 equal ${tmp}
variable L0 equal 624.538218478014
variable strain equal "(lx - v_L0)/v_L0"
variable stp equal "step"
variable tmpe equal "temp"
variable p1 equal "v_strain"
variable p2 equal "-pxx*1.01325/10000"
variable p3 equal "-pyy*1.01325/10000"
variable p4 equal "-pzz*1.01325/10000"
variable p5 equal "lx"
variable p6 equal "ly"
variable p7 equal "lz"
variable p8 equal "press"
variable p9 equal "epair"
variable p10 equal "etotal"

# Thermo
thermo_style custom step temp v_p1 v_p2 v_p3 v_p4 press lx ly lz vol density epair pe ke etotal pxx pyy pzz pxy pxz pyz spcpu
thermo ${ts_save}
thermo 100

# Dump
# dump 1 all custom 2000 ./${N20}${N100}/tensile/trajectory/trajectory_${usic}_${trial}_*.tensile.custom id type x y z ix iy iz
# dump_modify 1 sort id
dump 2 all cfg 20000 ./${N20}${N100}/tensile/trajectory/dumpten.tens_${usic}_${trial}_*.cfg mass type xs ys zs fx fy fz
dump 2 all cfg 20000 ./600${N100}/tensile/trajectory/dumpten.tens_${usic}_${trial}_*.cfg mass type xs ys zs fx fy fz
dump 2 all cfg 20000 ./600400/tensile/trajectory/dumpten.tens_${usic}_${trial}_*.cfg mass type xs ys zs fx fy fz
dump 2 all cfg 20000 ./600400/tensile/trajectory/dumpten.tens_2_${trial}_*.cfg mass type xs ys zs fx fy fz
dump 2 all cfg 20000 ./600400/tensile/trajectory/dumpten.tens_2_5_*.cfg mass type xs ys zs fx fy fz
dump_modify 2 element N20 N100

fix 1 all nvt temp ${T} ${T} 100
fix 1 all nvt temp 300 ${T} 100
fix 1 all nvt temp 300 300 100
fix 2 all deform 1 x erate ${strain_rate} y erate ${strain_rate} z erate ${strain_rate} units box
fix 2 all deform 1 x erate 5e-6 y erate ${strain_rate} z erate ${strain_rate} units box
fix 2 all deform 1 x erate 5e-6 y erate 5e-6 z erate ${strain_rate} units box
fix 2 all deform 1 x erate 5e-6 y erate 5e-6 z erate 5e-6 units box
fix             def1 all print ${ts_save} "${p1} ${p2} ${p3} ${p4}" file ./tensile/tensile${N20}${N100}_${usic}_${trial}.txt screen no
fix             def1 all print 100 "${p1} ${p2} ${p3} ${p4}" file ./tensile/tensile${N20}${N100}_${usic}_${trial}.txt screen no
fix             def1 all print 100 "${p1} ${p2} ${p3} ${p4}" file ./tensile/tensile600${N100}_${usic}_${trial}.txt screen no
fix             def1 all print 100 "${p1} ${p2} ${p3} ${p4}" file ./tensile/tensile600400_${usic}_${trial}.txt screen no
fix             def1 all print 100 "${p1} ${p2} ${p3} ${p4}" file ./tensile/tensile600400_2_${trial}.txt screen no
fix             def1 all print 100 "${p1} ${p2} ${p3} ${p4}" file ./tensile/tensile600400_2_5.txt screen no

timestep       		${ts}
timestep       		0.1
run				${steps_tensile}
run				6000000
Generated 0 of 1 mixed pair_coeff terms from geometric mixing rule
Unused restart file global fix info:
  fix style: npt, fix ID: 5
Neighbor list info ...
  update every 1 steps, delay 0 steps, check no
  max neighbors/atom: 2000, page size: 100000
  master list distance cutoff = 113.78
  ghost atom cutoff = 113.78
  binsize = 56.89, bins = 11 11 11
  1 neighbor lists, perpetual/occasional/extra = 1 0 0
  (1) pair table/pgn, perpetual
      attributes: half, newton on
      pair build: half/bin/atomonly/newton
      stencil: half/bin/3d
      bin: standard
Per MPI rank memory allocation (min/avg/max) = 3.851 | 3.852 | 3.853 Mbytes
   Step          Temp           v_p1           v_p2           v_p3           v_p4          Press            Lx             Ly             Lz           Volume        Density         E_pair         PotEng         KinEng         TotEng          Pxx            Pyy            Pzz            Pxy            Pxz            Pyz           S/CPU     
         0   303.62958     -3.6406687e-16  0.014607853    0.013970531    0.027924505   -185.88005      624.53822      624.53822      624.53822      2.4359987e+08  2.0581627     -24102379      -24102379       904.15704     -24101475      -144.1683      -137.87842     -275.59344     -105.59079      67.017514     -22.531377      0            
       100   304.19157      5e-05          0.01566274     0.014985071    0.028915149   -195.9469       624.56945      624.56945      624.56945      2.4363642e+08  2.057854      -24102281      -24102281       905.83056     -24101375      -154.57923     -147.89115     -285.37033     -105.51045      66.801401     -22.328314      7222.8518    
       200   305.64084      0.0001         0.016725466    0.016006481    0.029915347   -206.09357      624.60067      624.60067      624.60067      2.4367296e+08  2.0575454     -24102178      -24102178       910.14622     -24101268      -165.06751     -157.97169     -295.24152     -105.43157      66.591853     -22.125182      8041.9319    
       300   307.93465      0.00015        0.017782599    0.017022551    0.030913295   -216.19687      624.6319       624.6319       624.6319       2.4370951e+08  2.0572368     -24102074      -24102074       916.97679     -24101157      -175.50061     -167.99952     -305.0905      -105.35184      66.391241     -21.926279      8634.0248    
       400   311.00747      0.0002         0.018831619    0.01803153     0.031907217   -226.23691      624.66313      624.66313      624.66313      2.4374606e+08  2.0569283     -24101966      -24101966       926.12714     -24101040      -185.85363     -177.95736     -314.89974     -105.26762      66.200133     -21.733402      9075.0278    
       500   314.76895      0.00025        0.019870253    0.019031721    0.032895428   -236.19509      624.69435      624.69435      624.69435      2.4378262e+08  2.0566199     -24101856      -24101856       937.32818     -24100919      -196.10415     -187.82848     -324.65263     -105.17485      66.018741     -21.546149      9532.784     
       600   319.10233      0.0003         0.020896504    0.020021567    0.033876412   -246.05472      624.72558      624.72558      624.72558      2.4381918e+08  2.0563115     -24101744      -24101744       950.23225     -24100794      -206.23246     -197.5975      -334.3342      -105.06949      65.846746     -21.362618      9984.8929    
       700   323.86657      0.00035        0.021908628    0.020999683    0.034848732   -255.80078      624.75681      624.75681      624.75681      2.4385574e+08  2.0560031     -24101629      -24101629       964.41934     -24100664      -216.22134     -207.25076     -343.93024     -104.94795      65.684752     -21.180061      10487.861    
       800   328.91031      0.0004         0.022905132    0.02196488     0.035810925   -265.41964      624.78803      624.78803      624.78803      2.4389231e+08  2.0556949     -24101511      -24101511       979.43874     -24100532      -226.05607     -216.77651     -353.42635     -104.8074       65.534834     -20.995993      11021.359    
       900   334.11202      0.00045        0.023884868    0.022916098    0.036761603   -274.89948      624.81926      624.81926      624.81926      2.4392888e+08  2.0553867     -24101391      -24101391       994.92853     -24100396      -235.72532     -226.1643      -362.80881     -104.64594      65.398714     -20.809045      11325.135    
      1000   339.45662      0.0005         0.024846987    0.023852483    0.037699652   -284.23101      624.85049      624.85049      624.85049      2.4396546e+08  2.0550785     -24101268      -24101268       1010.8438     -24100257      -245.2207      -235.4057      -372.06664     -104.46263      65.277335     -20.619111      11432.733    
      1100   345.11687      0.00055        0.025790921    0.024773506    0.038624142   -293.40758      624.88171      624.88171      624.88171      2.4400204e+08  2.0547705     -24101143      -24101143       1027.6991     -24100115      -254.5366      -244.4955      -381.19064     -104.25833      65.170593     -20.427115      11518.984    
      1200   351.431        0.0006         0.026716541    0.025678878    0.039534197   -302.42492      624.91294      624.91294      624.91294      2.4403862e+08  2.0544625     -24101015      -24101015       1046.5015     -24099969      -263.67176     -253.43082     -390.17219     -104.03378      65.078427     -20.234776      11743.373    
      1300   358.69699      0.00065        0.027624057    0.026568433    0.040429045   -311.28065      624.94417      624.94417      624.94417      2.440752e+08   2.0541545     -24100886      -24100886       1068.1384     -24099817      -272.62824     -262.21004     -399.00366     -103.78933      65.00035      -20.043205      11829.224    
      1400   366.93804      0.0007         0.028513944    0.027442243    0.041308107   -319.97465      624.9754       624.9754       624.9754       2.4411179e+08  2.0538466     -24100753      -24100753       1092.6788     -24099661      -281.41075     -270.83388     -407.67932     -103.52609      64.935961     -19.853912      11828.2      
      1500   375.88771      0.00075        0.029387003    0.028300613    0.042170985   -328.50926      625.00662      625.00662      625.00662      2.4414839e+08  2.0535388     -24100619      -24100619       1119.3294     -24099499      -290.02717     -279.30533     -416.19526     -103.24623      64.885414     -19.668111      11826.616    
      1600   385.15849      0.0008         0.030244349    0.029144124    0.043017478   -336.88938      625.03785      625.03785      625.03785      2.4418498e+08  2.053231      -24100482      -24100482       1146.9362     -24099335      -298.48851     -287.63014     -424.5495      -102.95181      64.849003     -19.486763      11816.604    
      1700   394.40519      0.00085        0.031087202    0.029973675    0.043847673   -345.1223       625.06908      625.06908      625.06908      2.4422158e+08  2.0529233     -24100343      -24100343       1174.4713     -24099168      -306.80683     -295.81717     -432.74289     -102.64408      64.826234     -19.309713      11829.222    
      1800   403.42795      0.0009         0.031916638    0.030790291    0.044661987   -353.21627      625.1003       625.1003       625.1003       2.4425819e+08  2.0526157     -24100202      -24100202       1201.3396     -24099000      -314.99272     -303.87655     -440.77954     -102.32473      64.816071     -19.137012      11859.116    
      1900   412.20895      0.00095        0.032733685    0.031595229    0.045461047   -361.18089      625.13153      625.13153      625.13153      2.4429479e+08  2.0523081     -24100058      -24100058       1227.4879     -24098831      -323.05635     -311.82066     -448.66565     -101.99659      64.816844     -18.969126      11803.601    
      2000   420.849        0.001          0.033539427    0.032389804    0.046245696   -369.02682      625.16276      625.16276      625.16276      2.4433141e+08  2.0520005     -24099912      -24099912       1253.2165     -24098659      -331.00841     -319.66251     -456.40954     -101.6625       64.826434     -18.807313      11876.435    
      2100   429.43748      0.00105        0.03433488     0.033175299    0.047016877   -376.76472      625.19398      625.19398      625.19398      2.4436802e+08  2.0516931     -24099764      -24099764       1278.7915     -24098485      -338.85892     -327.41474     -464.0205      -101.32549      64.843187     -18.653411      11843.33     
      2200   437.97363      0.0011         0.035121022    0.03395275     0.047775359   -384.40375      625.22521      625.22521      625.22521      2.4440464e+08  2.0513857     -24099614      -24099614       1304.2107     -24098309      -346.61754     -335.08759     -471.50613     -100.99009      64.864317     -18.508076      11811.336    
      2300   446.39049      0.00115        0.035898823    0.034723128    0.048521904   -391.95281      625.25644      625.25644      625.25644      2.4444126e+08  2.0510783     -24099461      -24099461       1329.2747     -24098132      -354.29384     -342.69063     -478.87396     -100.66142      64.886929     -18.371268      11828.446    
      2400   454.61607      0.0012         0.036669201    0.035487406    0.049257459   -399.42122      625.28766      625.28766      625.28766      2.4447789e+08  2.0507711     -24099306      -24099306       1353.769      -24097952      -361.89688     -350.23347     -486.13332     -100.34453      64.907879     -18.243269      11795.154    
      2500   462.60403      0.00125        0.037432979    0.036246663    0.049983062   -406.81867      625.31889      625.31889      625.31889      2.4451452e+08  2.0504639     -24099148      -24099148       1377.5558     -24097770      -369.43478     -357.72675     -493.29447     -100.04326      64.923355     -18.124777      11809.564    
      2600   470.32834      0.0013         0.038191005    0.037002111    0.050699726   -414.15525      625.35012      625.35012      625.35012      2.4455115e+08  2.0501567     -24098988      -24098988       1400.5575     -24097587      -376.91592     -365.18244     -500.36739     -99.760051      64.929945     -18.016331      11832.138    
      2700   477.76913      0.00135        0.038944331    0.037755127    0.051408577   -421.44267      625.38135      625.38135      625.38135      2.4458779e+08  2.0498496     -24098825      -24098825       1422.7149     -24097402      -384.35066     -372.61413     -507.36321     -99.494824      64.925328     -17.91961       11871.571    
      2800   484.90664      0.0014         0.039693857    0.038507061    0.052110758   -428.69208      625.41257      625.41257      625.41257      2.4462443e+08  2.0495426     -24098660      -24098660       1443.9692     -24097216      -391.74791     -380.03514     -514.29319     -99.245355      64.907706     -17.837922      11844.986    
      2900   491.72226      0.00145        0.04044028     0.039259083    0.052807452   -435.91353      625.4438       625.4438       625.4438       2.4466107e+08  2.0492356     -24098492      -24098492       1464.2649     -24097028      -399.11453     -387.45702     -521.16903     -99.009763      64.874948     -17.774435      11859.145    
      3000   498.20016      0.0015         0.041184239    0.040012149    0.053499773   -443.11592      625.47503      625.47503      625.47503      2.4469772e+08  2.0489287     -24098322      -24098322       1483.555      -24096838      -406.45684     -394.88921     -528.0017      -98.785999      64.824872     -17.730681      11824.293    
      3100   504.3277       0.00155        0.041926329    0.04076701     0.054188792   -450.3072       625.50625      625.50625      625.50625      2.4473437e+08  2.0486218     -24098149      -24098149       1501.8018     -24096647      -413.7807      -402.33911     -534.8018      -98.572273      64.755432     -17.707292      11867.597    
      3200   510.09528      0.0016         0.042667156    0.041524254    0.05487554    -457.4947       625.53748      625.53748      625.53748      2.4477103e+08  2.0483151     -24097973      -24097973       1518.9766     -24096454      -421.09209     -409.81253     -541.57947     -98.367111      64.665267     -17.704527      11831.518    
      3300   515.49608      0.00165        0.043407321    0.042284463    0.055561018   -464.68559      625.56871      625.56871      625.56871      2.4480768e+08  2.0480083     -24097794      -24097794       1535.0593     -24096259      -428.39695     -417.3152      -548.34462     -98.17004       64.552329     -17.721952      11849.158    
      3400   520.52593      0.0017         0.044147341    0.04304797     0.056246244   -471.88603      625.59993      625.59993      625.59993      2.4484435e+08  2.0477017     -24097613      -24097613       1550.0373     -24096062      -435.70038     -424.85043     -555.10727     -97.981098      64.413642     -17.758848      11906.415    
      3500   525.18319      0.00175        0.044887736    0.043814808    0.056932111   -479.10076      625.63116      625.63116      625.63116      2.4488101e+08  2.0473951     -24097428      -24097428       1563.9059     -24095864      -443.00751     -432.41854     -561.87625     -97.800306      64.24696      -17.813738      11847.635    
      3600   529.46857      0.0018         0.045629067    0.044584883    0.057619156   -486.33311      625.66239      625.66239      625.66239      2.4491768e+08  2.0470885     -24097240      -24097240       1576.667      -24095664      -450.32388     -440.01858     -568.65686     -97.627467      64.051314     -17.885597      11793.988    
      3700   533.38494      0.00185        0.046371842    0.045357927    0.058307724   -493.58498      625.69361      625.69361      625.69361      2.4495436e+08  2.046782      -24097050      -24097050       1588.3293     -24095461      -457.65449     -447.64794     -575.4525      -97.462397      63.826798     -17.973928      11781.56     
      3800   536.93711      0.0019         0.047116554    0.046133683    0.058998163   -500.85829      625.72484      625.72484      625.72484      2.4499103e+08  2.0464756     -24096856      -24096856       1598.907      -24095257      -465.00423     -455.30405     -582.2666      -97.305777      63.573511     -18.077872      11857.328    
      3900   540.13157      0.00195        0.047863609    0.046911879    0.059690863   -508.15478      625.75607      625.75607      625.75607      2.4502771e+08  2.0461693     -24096659      -24096659       1608.4196     -24095050      -472.37709     -462.98425     -589.10301     -97.158484      63.292107     -18.195925      11813.949    
      4000   542.9763       0.002          0.048613128    0.047692093    0.060386093   -515.47435      625.78729      625.78729      625.78729      2.450644e+08   2.045863      -24096458      -24096458       1616.8907     -24094841      -479.77427     -470.68437     -595.96441     -97.021146      62.984339     -18.327068      11898.522    
      4100   545.48057      0.00205        0.049364993    0.04847378     0.061084055   -522.81546      625.81852      625.81852      625.81852      2.4510109e+08  2.0455567     -24096254      -24096254       1624.348      -24094630      -487.19461     -478.39901     -602.85275     -96.894584      62.652971     -18.471048      11838.946    
      4200   547.65476      0.0021         0.05011901     0.049256337    0.061784892   -530.17597      625.84975      625.84975      625.84975      2.4513778e+08  2.0452506     -24096047      -24096047       1630.8224     -24094416      -494.63617     -486.12225     -609.76947     -96.779303      62.301908     -18.626848      11867.757    
      4300   549.51017      0.00215        0.050874895    0.050039193    0.062488681   -537.55332      625.88098      625.88098      625.88098      2.4517447e+08  2.0449444     -24095836      -24095836       1636.3475     -24094200      -502.09617     -493.84844     -616.71533     -96.67566       61.935557     -18.79204       11887.186    
      4400   551.05894      0.0022         0.051632417    0.050821806    0.06319546    -544.94509      625.9122       625.9122       625.9122       2.4521117e+08  2.0446384     -24095622      -24095622       1640.9594     -24093981      -509.57234     -501.57223     -623.6907      -96.583662      61.558774     -18.963791      11840.68     
      4500   552.31389      0.00225        0.052391431    0.051603782    0.063905233   -552.34952      625.94343      625.94343      625.94343      2.4524788e+08  2.0443324     -24095404      -24095404       1644.6965     -24093759      -517.06322     -509.28973     -630.69561     -96.502124      61.176228     -19.138685      11894.559    
      4600   553.28841      0.0023         0.053151813    0.052384894    0.064618153   -559.76597      625.97466      625.97466      625.97466      2.4528458e+08  2.0440265     -24095182      -24095182       1647.5984     -24093534      -524.56761     -516.99871     -637.73159     -96.429342      60.791416     -19.313165      11841.783    
      4700   553.99621      0.00235        0.053913591    0.053165208    0.065334657   -567.19617      626.00588      626.00588      626.00588      2.4532129e+08  2.0437206     -24094956      -24094956       1649.7061     -24093306      -532.08577     -524.69981     -644.80293     -96.36447       60.407466     -19.483493      11892.03     
      4800   554.45119      0.0024         0.054676922    0.053944875    0.066055319   -574.64303      626.03711      626.03711      626.03711      2.4535801e+08  2.0434148     -24094726      -24094726       1651.061      -24093075      -539.61926     -532.39452     -651.91531     -96.307375      60.02664      -19.646304      11867.988    
      4900   554.66726      0.00245        0.055441792    0.054724049    0.066780576   -582.10845      626.06834      626.06834      626.06834      2.4539472e+08  2.043109      -24094493      -24094493       1651.7044     -24092841      -547.16794     -540.08437     -659.07305     -96.256987      59.650152     -19.798601      11767.058    
      5000   554.65837      0.0025         0.056208017    0.05550278     0.067510707   -589.59291      626.09956      626.09956      626.09956      2.4543144e+08  2.0428033     -24094255      -24094255       1651.6779     -24092604      -554.73        -547.76985     -666.27887     -96.212497      59.27954      -19.938088      11843.506    
      5100   554.43831      0.00255        0.056975205    0.056280994    0.068245767   -597.09505      626.13079      626.13079      626.13079      2.4546817e+08  2.0424977     -24094014      -24094014       1651.0226     -24092363      -562.30156     -555.45023     -673.53336     -96.173529      58.916814     -20.062778      9228.0616    
      5200   554.0208       0.0026         0.0577429      0.057058535    0.068985897   -604.61332      626.16202      626.16202      626.16202      2.455049e+08   2.0421922     -24093769      -24093769       1649.7793     -24092119      -569.87812     -563.12396     -680.83787     -96.140326      58.562966     -20.170372      11808.29     
      5300   553.41948      0.00265        0.05851075     0.057835266    0.069731328   -612.14687      626.19324      626.19324      626.19324      2.4554163e+08  2.0418867     -24093519      -24093519       1647.9887     -24091871      -577.4562      -570.7897      -688.1947      -96.113193      58.219443     -20.259584      11864.661    
      5400   552.64783      0.0027         0.059278555    0.058611046    0.070482297   -619.69536      626.22447      626.22447      626.22447      2.4557837e+08  2.0415812     -24093265      -24093265       1645.6909     -24091620      -585.03386     -578.44605     -695.60619     -96.091592      57.888367     -20.33046       11822.705    
      5500   551.71905      0.00275        0.06004612     0.059385708    0.071239026   -627.25834      626.2557       626.2557       626.2557       2.4561511e+08  2.0412758     -24093008      -24093008       1642.9251     -24091365      -592.60913     -586.09137     -703.07452     -96.07378       57.57081      -20.383905      11885.627    
      5600   550.64603      0.0028         0.060813162    0.060159165    0.072001553   -634.83471      626.28693      626.28693      626.28693      2.4565185e+08  2.0409705     -24092746      -24092746       1639.7299     -24091106      -600.17925     -593.7248      -710.60008     -96.056672      57.267984     -20.421003      11846.515    
      5700   549.44132      0.00285        0.061579487    0.060931418    0.072769739   -642.42337      626.31815      626.31815      626.31815      2.4568859e+08  2.0406652     -24092479      -24092479       1636.1424     -24090843      -607.74229     -601.34634     -718.18148     -96.036747      56.98156      -20.44425       11842.647    
      5800   548.11696      0.0029         0.062345062    0.061702636    0.073543395   -650.02416      626.34938      626.34938      626.34938      2.4572535e+08  2.04036       -24092209      -24092209       1632.1987     -24090577      -615.29792     -608.95767     -725.81688     -96.01032       56.713493     -20.45711       11834.848    
      5900   546.68437      0.00295        0.063109916    0.062473014    0.07432221    -657.63678      626.38061      626.38061      626.38061      2.457621e+08   2.0400549     -24091934      -24091934       1627.9327     -24090306      -622.84644     -616.56072     -733.50319     -95.973803      56.465603     -20.463646      11818.625    
      6000   545.15434      0.003          0.063874123    0.063242725    0.075105852   -665.26096      626.41183      626.41183      626.41183      2.4579886e+08  2.0397498     -24091655      -24091655       1623.3765     -24090032      -630.38858     -624.15716     -741.23713     -95.923782      56.239653     -20.467819      11840.671    
      6100   543.53701      0.00305        0.064637747    0.064011993    0.075894054   -672.89676      626.44306      626.44306      626.44306      2.4583562e+08  2.0394448     -24091372      -24091372       1618.5604     -24089754      -637.92496     -631.74925     -749.01608     -95.856998      56.037614     -20.472437      11440.841    
      6200   541.84193      0.0031         0.065400881    0.064781093    0.076686551   -680.54453      626.47429      626.47429      626.47429      2.4587238e+08  2.0391399     -24091085      -24091085       1613.5127     -24089471      -645.45651     -639.33968     -756.83741     -95.77025       55.861327     -20.479698      11481.002    
      6300   540.07807      0.00315        0.066163799    0.065550184    0.07748306    -688.20477      626.50551      626.50551      626.50551      2.4590915e+08  2.038835      -24090793      -24090793       1608.2603     -24089185      -652.98593     -646.93001     -764.69835     -95.660588      55.712047     -20.490756      11863.602    
      6400   538.25384      0.0032         0.066926904    0.066319401    0.078283286   -695.87825      626.53674      626.53674      626.53674      2.4594592e+08  2.0385301     -24090497      -24090497       1602.828      -24088894      -660.51719     -654.5216      -772.59597     -95.525536      55.589777     -20.506274      11585.942    
      6500   536.37707      0.00325        0.067690495    0.067088891    0.079086973   -703.56562      626.56797      626.56797      626.56797      2.459827e+08   2.0382254     -24090196      -24090196       1597.2393     -24088599      -668.05325     -662.11587     -780.52774     -95.363436      55.493631     -20.526213      11831.838    
      6600   534.45502      0.0033         0.068454846    0.067858745    0.079893981   -711.26761      626.59919      626.59919      626.59919      2.4601948e+08  2.0379206     -24089891      -24089891       1591.5158     -24088299      -675.59681     -669.71374     -788.49229     -95.173089      55.422093     -20.549454      11863.431    
      6700   532.49445      0.00335        0.069220335    0.068629085    0.080704208   -718.98553      626.63042      626.63042      626.63042      2.4605626e+08  2.037616      -24089581      -24089581       1585.6775     -24087996      -683.15159     -677.31641     -796.4886      -94.953441      55.37303      -20.574527      11845.655    
      6800   530.50158      0.0034         0.069987441    0.069399958    0.081517532   -726.72072      626.66165      626.66165      626.66165      2.4609305e+08  2.0373114     -24089268      -24089268       1579.7431     -24087688      -690.72234     -684.92433     -804.51549     -94.703319      55.344438     -20.599665      11858.019    
      6900   528.48213      0.00345        0.070756614    0.070171362    0.08233372    -734.47387      626.69288      626.69288      626.69288      2.4612984e+08  2.0370069     -24088949      -24088949       1573.7295     -24087376      -698.31349     -692.5375      -812.57063     -94.421992      55.333919     -20.623346      11864.731    
      7000   526.44128      0.0035         0.071528219    0.070943275    0.083152481   -742.24517      626.7241       626.7241       626.7241       2.4616664e+08  2.0367024     -24088627      -24088627       1567.6523     -24087059      -705.92863     -700.15569     -820.65118     -94.110436      55.338598     -20.644329      11570.802    
      7100   524.38377      0.00355        0.072302609    0.071715646    0.083973534   -750.03467      626.75533      626.75533      626.75533      2.4620343e+08  2.036398      -24088299      -24088299       1561.5253     -24086738      -713.57127     -707.77839     -828.75435     -93.770173      55.355555     -20.661694      11826.704    
      7200   522.31385      0.0036         0.073080066    0.072488353    0.084796457   -757.84152      626.78656      626.78656      626.78656      2.4624024e+08  2.0360936     -24087968      -24087968       1555.3615     -24086412      -721.24418     -715.40442     -836.87596     -93.403408      55.38214      -20.674296      11815.524    
      7300   520.23546      0.00365        0.073860706    0.073261139    0.085620607   -765.66314      626.81778      626.81778      626.81778      2.4627704e+08  2.0357893     -24087632      -24087632       1549.1724     -24086082      -728.94849     -723.03123     -845.00969     -93.013714      55.415987     -20.680053      11805.008    
      7400   518.15222      0.0037         0.074644423    0.074033655    0.086445215   -773.4955       626.84901      626.84901      626.84901      2.4631385e+08  2.0354851     -24087291      -24087291       1542.9688     -24085748      -736.68318     -730.65537     -853.14794     -92.605766      55.455148     -20.677188      11839.083    
      7500   516.06754      0.00375        0.075430989    0.074805586    0.087269453   -781.33408      626.88024      626.88024      626.88024      2.4635066e+08  2.035181      -24086946      -24086946       1536.761      -24085409      -744.44599     -738.27373     -861.28253     -92.185313      55.497398     -20.663586      11813.918    
      7600   513.98454      0.0038         0.076220288    0.075576708    0.088092534   -789.17519      626.91146      626.91146      626.91146      2.4638748e+08  2.0348768     -24086596      -24086596       1530.5582     -24085065      -752.23576     -745.88411     -869.40571     -91.75864       55.540191     -20.637532      11838.033    
      7700   511.90611      0.00385        0.077012151    0.076346963    0.088913675   -797.01551      626.94269      626.94269      626.94269      2.464243e+08   2.0345728     -24086241      -24086241       1524.369      -24084717      -760.05084     -753.48594     -877.50974     -91.33268       55.580866     -20.598395      11794.109    
      7800   509.83485      0.0039         0.07780631     0.077116453    0.089732065   -804.8518       626.97392      626.97392      626.97392      2.4646112e+08  2.0342688     -24085882      -24085882       1518.2011     -24084364      -767.88857     -761.08021     -885.58662     -90.91434       55.616756     -20.546396      11841.875    
      7900   507.77315      0.00395        0.078602446    0.077885385    0.090547038   -812.68153      627.00514      627.00514      627.00514      2.4649795e+08  2.0339649     -24085519      -24085519       1512.0617     -24084007      -775.74583     -768.66899     -893.62979     -90.510212      55.645842     -20.482021      11828.326    
      8000   505.72311      0.004          0.079400283    0.078654024    0.091357949   -820.50253      627.03637      627.03637      627.03637      2.4653478e+08  2.033661      -24085151      -24085151       1505.9571     -24083645      -783.61986     -776.25486     -901.63285     -90.125673      55.666838     -20.4053        11824.651    
      8100   503.68654      0.00405        0.080199536    0.079422485    0.092164127   -828.31202      627.0676       627.0676       627.0676       2.4657162e+08  2.0333572     -24084778      -24084778       1499.8925     -24083278      -791.50788     -783.83898     -909.58921     -89.765203      55.679604     -20.316645      11820.93     
      8200   501.66501      0.0041         0.080999941    0.08019083     0.092964837   -836.10694      627.09883      627.09883      627.09883      2.4660845e+08  2.0330535     -24084401      -24084401       1493.8727     -24082907      -799.40726     -791.42196     -917.49161     -89.432166      55.684627     -20.216647      11770.665    
      8300   499.65983      0.00415        0.081801092    0.080959073    0.093759218   -843.88316      627.13005      627.13005      627.13005      2.466453e+08   2.0327498     -24084019      -24084019       1487.9017     -24082531      -807.31401     -799.00393     -925.33154     -89.12815       55.682137     -20.105508      11804.911    
      8400   497.67209      0.0042         0.082602423    0.08172708     0.094546404   -851.63552      627.16128      627.16128      627.16128      2.4668214e+08  2.0324462     -24083633      -24083633       1481.9825     -24082151      -815.22254     -806.58357     -933.10046     -88.853934      55.671838     -19.983826      11827.878    
      8500   495.70268      0.00425        0.083403463    0.082494745    0.09532572    -859.35991      627.19251      627.19251      627.19251      2.4671899e+08  2.0321426     -24083242      -24083242       1476.1179     -24081766      -823.12818     -814.15984     -940.79171     -88.609541      55.652792     -19.851956      11810.734    
      8600   493.75228      0.0043         0.084203697    0.083261915    0.096096696   -867.05258      627.22373      627.22373      627.22373      2.4675584e+08  2.0318391     -24082847      -24082847       1470.31       -24081376      -831.02587     -821.73122     -948.40065     -88.393953      55.624213     -19.711137      11838.657    
      8700   491.8214       0.00435        0.085002516    0.084028367    0.09685899    -874.70967      627.25496      627.25496      627.25496      2.467927e+08   2.0315357     -24082447      -24082447       1464.5601     -24080982      -838.9096      -829.2955      -955.92391     -88.205658      55.584987     -19.564359      11828.624    
      8800   489.91044      0.0044         0.085799287    0.084793886    0.097612298   -882.3274       627.28619      627.28619      627.28619      2.4682956e+08  2.0312323     -24082042      -24082042       1458.8696     -24080583      -846.77313     -836.85059     -963.35848     -88.043359      55.534522     -19.415268      11770.774    
      8900   488.01971      0.00445        0.086593447    0.085558342    0.098356469   -889.90298      627.31741      627.31741      627.31741      2.4686643e+08  2.030929      -24081633      -24081633       1453.2394     -24080180      -854.61087     -844.39519     -970.70288     -87.905426      55.472884     -19.266687      11805.304    
      9000   486.1494       0.0045         0.087384501    0.086321651    0.099091499   -897.4345       627.34864      627.34864      627.34864      2.4690329e+08  2.0306257     -24081220      -24081220       1447.6699     -24079772      -862.41797     -851.92846     -977.95706     -87.790122      55.400579     -19.120929      11849.584    
      9100   484.29963      0.00455        0.088172127    0.087083834    0.099817435   -904.92112      627.37987      627.37987      627.37987      2.4694017e+08  2.0303225     -24080802      -24080802       1442.1616     -24079360      -870.19124     -859.45062     -985.12149     -87.694778      55.317917     -18.980701      11879.052    
      9200   482.47044      0.0046         0.088956097    0.087844802    0.10053441    -912.36224      627.41109      627.41109      627.41109      2.4697704e+08  2.0300194     -24080379      -24080379       1436.7146     -24078943      -877.92841     -866.96079     -992.19751     -87.616332      55.22548      -18.849139      11846.584    
      9300   480.66185      0.00465        0.08973609     0.088604358    0.10124275    -919.7572       627.44232      627.44232      627.44232      2.4701392e+08  2.0297163     -24079953      -24079953       1431.3289     -24078521      -885.62635     -874.45702     -999.18822     -87.551628      55.124359     -18.729129      11909.758    
      9400   478.87386      0.0047         0.090511683    0.08936238     0.10194296    -927.10592      627.47355      627.47355      627.47355      2.470508e+08   2.0294133     -24079521      -24079521       1426.0046     -24078095      -893.28086     -881.93812     -1006.0988     -87.497342      55.014621     -18.622977      11838.354    
      9500   477.1065       0.00475        0.091282478    0.090118759    0.1026356     -934.40856      627.50478      627.50478      627.50478      2.4708769e+08  2.0291103     -24079086      -24079086       1420.7417     -24077665      -900.88801     -889.403       -1012.9347     -87.450236      54.895854     -18.531876      11825.641    
      9600   475.35984      0.0048         0.092048208    0.090873375    0.10332114    -941.66533      627.536        627.536        627.536        2.4712458e+08  2.0288074     -24078646      -24078646       1415.5404     -24077230      -908.44518     -896.85048     -1019.7003     -87.407411      54.766928     -18.456785      11838.283    
      9700   473.63397      0.00485        0.09280865     0.091626084    0.1039999     -948.87616      627.56723      627.56723      627.56723      2.4716147e+08  2.0285046     -24078202      -24078202       1410.4011     -24076791      -915.95016     -904.27914     -1026.3992     -87.366651      54.626504     -18.398019      11838.144    
      9800   471.92899      0.0049         0.093563614    0.092376823    0.10467217    -956.04115      627.59846      627.59846      627.59846      2.4719837e+08  2.0282018     -24077753      -24077753       1405.3239     -24076348      -923.40108     -911.68836     -1033.034      -87.326257      54.473325     -18.354975      11875.879    
      9900   470.24496      0.00495        0.094313119    0.093125681    0.1053385     -963.16245      627.62968      627.62968      627.62968      2.4723527e+08  2.0278991     -24077300      -24077300       1400.3092     -24075900      -930.79812     -919.07901     -1039.6102     -87.285007      54.307462     -18.325809      11837.146    
     10000   468.5819       0.005          0.0950573      0.093872668    0.10599966    -970.24303      627.66091      627.66091      627.66091      2.4727217e+08  2.0275964     -24076843      -24076843       1395.3569     -24075448      -938.14261     -926.45121     -1046.1353     -87.243089      54.129428     -18.307151      11861.559    
     10100   466.93987      0.00505        0.0957962      0.094617688    0.1066563     -977.28494      627.69214      627.69214      627.69214      2.4730908e+08  2.0272938     -24076382      -24076382       1390.4672     -24074991      -945.43499     -933.80398     -1052.6158     -87.200886      53.939872     -18.295798      11853.696    
     10200   465.31898      0.0051         0.096529973    0.095360741    0.10730917    -984.29111      627.72336      627.72336      627.72336      2.4734599e+08  2.0269913     -24075916      -24075916       1385.6405     -24074531      -952.67676     -941.13734     -1059.0592     -87.15855       53.740064     -18.28915       11880.759    
     10300   463.71935      0.00515        0.097258935    0.096101892    0.1079591     -991.26549      627.75459      627.75459      627.75459      2.4738291e+08  2.0266888     -24075447      -24075447       1380.8771     -24074066      -959.87106     -948.45193     -1065.4735     -87.115259      53.531109     -18.284943      11893.005    
     10400   462.14114      0.0052         0.09798338     0.096841061    0.10860692    -998.21158      627.78582      627.78582      627.78582      2.4741983e+08  2.0263864     -24074973      -24074973       1376.1774     -24073597      -967.02077     -955.74696     -1071.867      -87.069763      53.313855     -18.281235      11827.595    
     10500   460.5845       0.00525        0.098703507    0.097578011    0.10925326    -1005.1313      627.81704      627.81704      627.81704      2.4745675e+08  2.0260841     -24074495      -24074495       1371.542      -24073124      -974.12788     -963.02009     -1078.2459     -87.021318      53.087866     -18.276331      11886.577    
     10600   459.04971      0.0053         0.099419412    0.098312506    0.10989857    -1012.0256      627.84827      627.84827      627.84827      2.4749368e+08  2.0257818     -24074013      -24074013       1366.9717     -24072646      -981.19331     -970.269       -1084.6146     -86.969093      52.852784     -18.268586      11811.809    
     10700   457.5371       0.00535        0.10013102     0.099044146    0.11054323    -1018.8943      627.8795       627.8795       627.8795       2.4753061e+08  2.0254795     -24073527      -24073527       1362.4674     -24072165      -988.21638     -977.48972     -1090.9769     -86.912137      52.608297     -18.256176      11877.224    
     10800   456.04711      0.0054         0.10083829     0.099772411    0.11118759    -1025.7366      627.91072      627.91072      627.91072      2.4756754e+08  2.0251774     -24073037      -24073037       1358.0304     -24071679      -995.19652     -984.67714     -1097.3362     -86.84933       52.354998     -18.236591      11817.507    
     10900   454.58022      0.00545        0.10154125     0.10049682     0.11183185    -1032.5518      627.94195      627.94195      627.94195      2.4760448e+08  2.0248752     -24072543      -24072543       1353.6623     -24071189      -1002.1342     -991.82647     -1103.6946     -86.778766      52.09447      -18.207057      11872.29     
     11000   453.13695      0.0055         0.10224002     0.10121692     0.11247627    -1039.3394      627.97318      627.97318      627.97318      2.4764142e+08  2.0245732     -24072045      -24072045       1349.3645     -24070695      -1009.0305     -998.93329     -1110.0544     -86.698438      51.827946     -18.164813      11838.703    
     11100   451.71775      0.00555        0.10293471     0.1019323      0.11312115    -1046.0997      628.00441      628.00441      628.00441      2.4767836e+08  2.0242712     -24071543      -24071543       1345.1383     -24070198      -1015.8866     -1005.9936     -1116.4189     -86.606368      51.556485     -18.108612      11830.591    
     11200   450.323        0.0056         0.10362542     0.1026427      0.11376664    -1052.8325      628.03563      628.03563      628.03563      2.4771531e+08  2.0239693     -24071037      -24071037       1340.985      -24069696      -1022.7034     -1013.0047     -1122.7894     -86.500616      51.281258     -18.038709      11814.693    
     11300   448.95298      0.00565        0.10431216     0.10334815     0.11441287    -1059.5384      628.06686      628.06686      628.06686      2.4775227e+08  2.0236674     -24070527      -24070527       1336.9053     -24069190      -1029.481      -1019.9669     -1129.1673     -86.379321      51.004176     -17.955981      11852.783    
     11400   447.60778      0.0057         0.10499471     0.10404857     0.11505992    -1066.2167      628.09809      628.09809      628.09809      2.4778922e+08  2.0233656     -24070013      -24070013       1332.8995     -24068680      -1036.2172     -1026.8796     -1135.5531     -86.241124      50.727903     -17.862018      11811.147    
     11500   446.28742      0.00575        0.10567303     0.104744       0.11570786    -1072.8675      628.12931      628.12931      628.12931      2.4782618e+08  2.0230638     -24069495      -24069495       1328.9677     -24068166      -1042.9117     -1033.7429     -1141.9478     -86.085276      50.455065     -17.758968      11822.333    
     11600   444.99175      0.0058         0.10634732     0.10543461     0.11635687    -1079.4927      628.16054      628.16054      628.16054      2.4786314e+08  2.0227621     -24068973      -24068973       1325.1094     -24067648      -1049.5664     -1040.5587     -1148.353      -85.912062      50.188178     -17.648671      11833.929    
     11700   443.72047      0.00585        0.10701793     0.10612073     0.11700712    -1086.0952      628.19177      628.19177      628.19177      2.4790011e+08  2.0224605     -24068448      -24068448       1321.3238     -24067127      -1056.1849     -1047.3301     -1154.7705     -85.722081      49.929842     -17.533137      11841.37     
     11800   442.47316      0.0059         0.10768526     0.10680268     0.11765869    -1092.6775      628.22299      628.22299      628.22299      2.4793708e+08  2.0221589     -24067919      -24067919       1317.6095     -24066601      -1062.7709     -1054.0605     -1161.2009     -85.515917      49.681916     -17.41503       11856.138    
     11900   441.24924      0.00595        0.10834986     0.10748081     0.11831162    -1099.2427      628.25422      628.25422      628.25422      2.4797406e+08  2.0218574     -24067386      -24067386       1313.9649     -24066072      -1069.33       -1060.7531     -1167.6449     -85.295113      49.445082     -17.297287      11867.94     
     12000   440.048        0.006          0.10901226     0.10815545     0.11896591    -1105.7936      628.28545      628.28545      628.28545      2.4801103e+08  2.0215559     -24066850      -24066850       1310.3878     -24065539      -1075.8674     -1067.4113     -1174.1022     -85.062264      49.218961     -17.182385      11841.433    
     12100   438.86858      0.00605        0.10967276     0.10882698     0.11962163    -1112.3328      628.31667      628.31667      628.31667      2.4804802e+08  2.0212545     -24066309      -24066309       1306.8757     -24065002      -1082.386      -1074.0388     -1180.5737     -84.820848      49.003496     -17.072295      11837.727    
     12200   437.71006      0.0061         0.11033159     0.10949574     0.12027894    -1118.8626      628.3479       628.3479       628.3479       2.48085e+08    2.0209532     -24065765      -24065765       1303.4258     -24064462      -1088.8882     -1080.639      -1187.0608     -84.573374      48.79853      -16.968862      11811.587    
     12300   436.57148      0.00615        0.11098902     0.11016216     0.12093786    -1125.3854      628.37913      628.37913      628.37913      2.4812199e+08  2.0206519     -24065218      -24065218       1300.0353     -24063918      -1095.3764     -1087.216      -1193.5639     -84.321083      48.603359     -16.874062      11821.617    
     12400   435.45185      0.0062         0.11164525     0.11082678     0.12159817    -1131.903       628.41036      628.41036      628.41036      2.4815898e+08  2.0203507     -24064667      -24064667       1296.7012     -24063370      -1101.8529     -1093.7753     -1200.0807     -84.065268      48.417979     -16.789605      11785.22     
     12500   434.35021      0.00625        0.1123006      0.1114902      0.12225955    -1138.4171      628.44158      628.44158      628.44158      2.4819598e+08  2.0200496     -24064112      -24064112       1293.4208     -24062818      -1108.3207     -1100.3227     -1206.608      -83.807825      48.243051     -16.717126      11839.652    
     12600   433.26568      0.0063         0.1129554      0.11215297     0.12292175    -1144.9301      628.47281      628.47281      628.47281      2.4823298e+08  2.0197485     -24063553      -24063553       1290.1912     -24062263      -1114.7831     -1106.8637     -1213.1434     -83.550049      48.078082     -16.658099      11814.706    
     12700   432.19744      0.00635        0.1136101      0.11281562     0.12358461    -1151.4444      628.50404      628.50404      628.50404      2.4826998e+08  2.0194474     -24062991      -24062991       1287.0102     -24061704      -1121.2445     -1113.4036     -1219.6852     -83.293359      47.921355     -16.613865      11820.256    
     12800   431.14472      0.0064         0.1142651      0.11347867     0.12424798    -1157.9628      628.53526      628.53526      628.53526      2.4830699e+08  2.0191465     -24062425      -24062425       1283.8754     -24061141      -1127.7088     -1119.9474     -1226.2322     -83.038544      47.770486     -16.584848      11784.761    
     12900   430.1068       0.00645        0.1149207      0.11414255     0.12491162    -1164.4868      628.56649      628.56649      628.56649      2.48344e+08    2.0188455     -24061856      -24061856       1280.7846     -24060575      -1134.1791     -1126.4994     -1232.7819     -82.785155      47.623219     -16.570534      11836.063    
     13000   429.08307      0.0065         0.11557709     0.11480764     0.12557513    -1171.0169      628.59772      628.59772      628.59772      2.4838102e+08  2.0185447     -24061283      -24061283       1277.7361     -24060005      -1140.6572     -1133.0633     -1239.3302     -82.53267       47.477086     -16.569717      11779.149    
     13100   428.07301      0.00655        0.11623435     0.11547421     0.12623807    -1177.5528      628.62894      628.62894      628.62894      2.4841803e+08  2.0182439     -24060706      -24060706       1274.7283     -24059431      -1147.1438     -1139.6418     -1245.8729     -82.279733      47.329752     -16.581153      11851.393    
     13200   427.07623      0.0066         0.11689241     0.11614235     0.12690001    -1184.0933      628.66017      628.66017      628.66017      2.4845506e+08  2.0179431     -24060126      -24060126       1271.7601     -24058854      -1153.6384     -1146.2359     -1252.4058     -82.02521       47.178694     -16.602989      11850.304    
     13300   426.09242      0.00665        0.11755125     0.11681229     0.12756063    -1190.6379      628.6914       628.6914       628.6914       2.4849208e+08  2.0176425     -24059542      -24059542       1268.8305     -24058273      -1160.1406     -1152.8476     -1258.9256     -81.769554      47.02165      -16.633357      11824.211    
     13400   425.12131      0.0067         0.11821082     0.11748422     0.12821974    -1197.1866      628.72262      628.72262      628.72262      2.4852911e+08  2.0173419     -24058954      -24058954       1265.9387     -24057688      -1166.6501     -1159.4791     -1265.4305     -81.514133      46.856164     -16.67147       11847.715    
     13500   424.16271      0.00675        0.11887099     0.11815822     0.12887721    -1203.7385      628.75385      628.75385      628.75385      2.4856614e+08  2.0170413     -24058362      -24058362       1263.0841     -24057099      -1173.1655     -1166.1309     -1271.9192     -81.259818      46.680175     -16.716887      11813.484    
     13600   423.2165       0.0068         0.11953156     0.11883408     0.1295329     -1210.2921      628.78508      628.78508      628.78508      2.4860318e+08  2.0167408     -24057767      -24057767       1260.2665     -24056507      -1179.6848     -1172.8012     -1278.3903     -81.007041      46.492132     -16.769624      11838.738    
     13700   422.28272      0.00685        0.12019237     0.11951148     0.13018678    -1216.8456      628.81631      628.81631      628.81631      2.4864022e+08  2.0164404     -24057169      -24057169       1257.4858     -24055911      -1186.2065     -1179.4866     -1284.8436     -80.756556      46.290816     -16.829874      11831.722    
     13800   421.36147      0.0069         0.1208532      0.12018995     0.13083888    -1223.3968      628.84753      628.84753      628.84753      2.4867727e+08  2.01614       -24056566      -24056566       1254.7425     -24055311      -1192.7283     -1186.1826     -1291.2794     -80.508771      46.075383     -16.897509      11839.986    
     13900   420.45294      0.00695        0.12151391     0.12086907     0.13148934    -1229.9443      628.87876      628.87876      628.87876      2.4871431e+08  2.0158397     -24055960      -24055960       1252.037      -24054708      -1199.249      -1192.885      -1297.6989     -80.263451      45.845574     -16.971498      11801.556    
     14000   419.55728      0.007          0.12217447     0.12154853     0.13213832    -1236.4876      628.90999      628.90999      628.90999      2.4875136e+08  2.0155394     -24055350      -24055350       1249.3699     -24054101      -1205.7683     -1199.5907     -1304.1039     -80.020514      45.602071     -17.050195      11849.498    
     14100   418.67472      0.00705        0.12283487     0.12222797     0.13278577    -1243.0253      628.94121      628.94121      628.94121      2.4878842e+08  2.0152392     -24054736      -24054736       1246.7418     -24053490      -1212.2859     -1206.2962     -1310.4936     -79.779938      45.346511     -17.132071      11839.808    
     14200   417.80552      0.0071         0.12349516     0.12290705     0.13343142    -1249.5555      628.97244      628.97244      628.97244      2.4882548e+08  2.0149391     -24054119      -24054119       1244.1535     -24052875      -1218.8024     -1212.9982     -1316.8658     -79.541504      45.08032      -17.21583       11840.767    
     14300   416.94996      0.00715        0.12415539     0.12358533     0.13407501    -1256.0761      629.00367      629.00367      629.00367      2.4886254e+08  2.014639      -24053498      -24053498       1241.6058     -24052256      -1225.3184     -1219.6924     -1323.2175     -79.304942      44.804109     -17.299932      11803.487    
     14400   416.10837      0.0072         0.12481564     0.12426218     0.13471627    -1262.5844      629.03489      629.03489      629.03489      2.4889961e+08  2.014339      -24052873      -24052873       1239.0997     -24051634      -1231.8346     -1226.3724     -1329.5462     -79.069091      44.518603     -17.382589      11823.421    
     14500   415.28114      0.00725        0.12547599     0.12493682     0.1353551     -1269.0778      629.06612      629.06612      629.06612      2.4893668e+08  2.014039      -24052244      -24052244       1236.6363     -24051008      -1238.3517     -1233.0305     -1335.851      -78.832005      44.225077     -17.462145      11821.396    
     14600   414.46868      0.0073         0.12613649     0.12560836     0.13599147    -1275.5533      629.09735      629.09735      629.09735      2.4897375e+08  2.0137391     -24051612      -24051612       1234.2169     -24050378      -1244.8704     -1239.6582     -1342.1315     -78.593001      43.925857     -17.536977      11815.515    
     14700   413.67145      0.00735        0.1267972      0.12627603     0.13662542    -1282.0089      629.12857      629.12857      629.12857      2.4901083e+08  2.0134393     -24050976      -24050976       1231.843      -24049744      -1251.3911     -1246.2475     -1348.3881     -78.353712      43.624023     -17.606148      11849.245    
     14800   412.88994      0.0074         0.12745809     0.12693905     0.13725697    -1288.4419      629.1598       629.1598       629.1598       2.4904791e+08  2.0131395     -24050336      -24050336       1229.5157     -24049106      -1257.9135     -1252.791      -1354.621      -78.116567      43.32288      -17.669568      11791.788    
     14900   412.12456      0.00745        0.12811909     0.12759691     0.13788628    -1294.8508      629.19103      629.19103      629.19103      2.4908499e+08  2.0128398     -24049692      -24049692       1227.2366     -24048465      -1264.4371     -1259.2836     -1360.8318     -77.882553      43.025741     -17.727736      11816.888    
     15000   411.37566      0.0075         0.1287802      0.12824921     0.1385137     -1301.2357      629.22226      629.22226      629.22226      2.4912208e+08  2.0125401     -24049044      -24049044       1225.0065     -24047819      -1270.9618     -1265.7213     -1367.024      -77.652609      42.735263     -17.780433      11815.965    
     15100   410.64352      0.00755        0.12944131     0.12889573     0.13913971    -1307.5969      629.25348      629.25348      629.25348      2.4915917e+08  2.0122405     -24048393      -24048393       1222.8263     -24047170      -1277.4864     -1272.1019     -1373.2022     -77.427504      42.454434     -17.827034      11837.896    
     15200   409.92826      0.0076         0.13010244     0.12953656     0.13976492    -1313.9367      629.28471      629.28471      629.28471      2.4919627e+08  2.0119409     -24047738      -24047738       1220.6964     -24046517      -1284.0113     -1278.4264     -1379.3725     -77.207116      42.185752     -17.86729       11833.182    
     15300   409.22983      0.00765        0.13076357     0.13017198     0.14038996    -1320.2583      629.31594      629.31594      629.31594      2.4923337e+08  2.0116415     -24047079      -24047079       1218.6165     -24045861      -1290.5361     -1284.6976     -1385.5412     -76.991132      41.931362     -17.90082       11851.298    
     15400   408.54795      0.0077         0.13142457     0.13080237     0.14101536    -1326.564       629.34716      629.34716      629.34716      2.4927047e+08  2.011342      -24046417      -24046417       1216.586      -24045200      -1297.0597     -1290.9191     -1391.7134     -76.780427      41.693792     -17.926313      11816.046    
     15500   407.88221      0.00775        0.13208518     0.1314281      0.14164144    -1332.8554      629.37839      629.37839      629.37839      2.4930758e+08  2.0110427     -24045751      -24045751       1214.6036     -24044536      -1303.5794     -1297.0945     -1397.8923     -76.576397      41.475541     -17.942543      11831.606    
     15600   407.23209      0.0078         0.13274513     0.13204959     0.14226844    -1339.1337      629.40962      629.40962      629.40962      2.4934469e+08  2.0107434     -24045081      -24045081       1212.6676     -24043868      -1310.0926     -1303.2282     -1404.0803     -76.380455      41.278981     -17.948154      11876.857    
     15700   406.59699      0.00785        0.13340402     0.13266725     0.14289659    -1345.3997      629.44084      629.44084      629.44084      2.493818e+08   2.0104441     -24044407      -24044407       1210.7764     -24043197      -1316.5953     -1309.324      -1410.2797     -76.192835      41.106522     -17.941776      11839.565    
     15800   405.97638      0.0079         0.13406146     0.13328144     0.14352602    -1351.6537      629.47207      629.47207      629.47207      2.4941892e+08  2.0101449     -24043730      -24043730       1208.9283     -24042521      -1323.0837     -1315.3856     -1416.4917     -76.013483      40.96055      -17.921705      11804.091    
     15900   405.36972      0.00795        0.13471709     0.13389253     0.14415682    -1357.896       629.5033       629.5033       629.5033       2.4945604e+08  2.0098458     -24043049      -24043049       1207.1218     -24041842      -1329.5543     -1321.4165     -1422.7172     -75.841965      40.841643     -17.886648      11823.545    
     16000   404.77656      0.008          0.13537058     0.13450076     0.14478885    -1364.126       629.53452      629.53452      629.53452      2.4949317e+08  2.0095467     -24042365      -24042365       1205.3555     -24041159      -1336.0037     -1327.4193     -1428.9549     -75.678312      40.749383     -17.835889      11794.883    
     16100   404.1966       0.00805        0.13602159     0.13510638     0.14542175    -1370.342       629.56575      629.56575      629.56575      2.495303e+08   2.0092477     -24041676      -24041676       1203.6284     -24040473      -1342.4287     -1333.3963     -1435.2011     -75.523031      40.682327     -17.769731      11817.022    
     16200   403.62976      0.0081         0.13666963     0.1357096      0.146055      -1376.5416      629.59698      629.59698      629.59698      2.4956743e+08  2.0089488     -24040984      -24040984       1201.9405     -24039782      -1348.8244     -1339.3496     -1441.4508     -75.376182      40.637866     -17.69009       11857.915    
     16300   403.07616      0.00815        0.13731412     0.13631053     0.14668805    -1382.7213      629.6282       629.6282       629.6282       2.4960456e+08  2.0086499     -24040289      -24040289       1200.292      -24039088      -1355.185      -1345.2803     -1447.6985     -75.237391      40.613046     -17.59981       11821.688    
     16400   402.53604      0.0082         0.13795449     0.13690922     0.14732045    -1388.8779      629.65943      629.65943      629.65943      2.496417e+08   2.008351      -24039589      -24039589       1198.6836     -24038391      -1361.505      -1351.1889     -1453.9398     -75.106664      40.60489      -17.501465      11812.343    
     16500   402.00969      0.00825        0.1385902      0.13750563     0.1479517     -1395.0079      629.69066      629.69066      629.69066      2.4967885e+08  2.0080523     -24038886      -24038886       1197.1162     -24037689      -1367.7789     -1357.0751     -1460.1698     -74.984065      40.610351     -17.397045      11803.407    
     16600   401.4975       0.0083         0.13922078     0.13809968     0.14858139    -1401.1082      629.72189      629.72189      629.72189      2.49716e+08    2.0077536     -24038180      -24038180       1195.591      -24036984      -1374.0023     -1362.9379     -1466.3843     -74.869106      40.625462     -17.288763      11844.085    
     16700   400.9999       0.00835        0.13984593     0.13869141     0.14920923    -1407.1768      629.75311      629.75311      629.75311      2.4975315e+08  2.0074549     -24037469      -24037469       1194.1092     -24036275      -1380.1721     -1368.7778     -1472.5806     -74.760901      40.645453     -17.178676      11832.849    
     16800   400.51733      0.0084         0.14046546     0.13928093     0.14983492    -1413.2126      629.78434      629.78434      629.78434      2.497903e+08   2.0071563     -24036756      -24036756       1192.6722     -24035563      -1386.2863     -1374.5959     -1478.7556     -74.658619      40.665043     -17.068671      11814.803    
     16900   400.05019      0.00845        0.14107946     0.13986845     0.15045801    -1419.2151      629.81557      629.81557      629.81557      2.4982746e+08  2.0068578     -24036039      -24036039       1191.2812     -24034847      -1392.3461     -1380.3943     -1484.9051     -74.561241      40.680068     -16.960051      11867.535    
     17000   399.5988       0.0085         0.14168833     0.14045426     0.15107824    -1425.1857      629.84679      629.84679      629.84679      2.4986462e+08  2.0065593     -24035318      -24035318       1189.937      -24034128      -1398.3551     -1386.1757     -1491.0263     -74.467798      40.687915     -16.853798      11839.403    
     17100   399.16329      0.00855        0.14229248     0.14103882     0.15169543    -1431.1267      629.87802      629.87802      629.87802      2.4990179e+08  2.0062609     -24034594      -24034594       1188.6401     -24033405      -1404.3176     -1391.945      -1497.1175     -74.377161      40.687125     -16.750732      11823.428    
     17200   398.74359      0.0086         0.14289231     0.14162253     0.15230928    -1437.0396      629.90925      629.90925      629.90925      2.4993896e+08  2.0059625     -24033866      -24033866       1187.3903     -24032679      -1410.2374     -1397.7057     -1503.1757     -74.288583      40.676812     -16.652261      11806.656    
     17300   398.33953      0.00865        0.14348817     0.14220566     0.15291943    -1442.9254      629.94047      629.94047      629.94047      2.4997613e+08  2.0056642     -24033135      -24033135       1186.1871     -24031949      -1416.1182     -1403.4607     -1509.1974     -74.201225      40.656834     -16.559992      11820.446    
     17400   397.95077      0.0087         0.14408042     0.14278848     0.15352559    -1448.7852      629.9717       629.9717       629.9717       2.5001331e+08  2.005366      -24032401      -24032401       1185.0294     -24031215      -1421.9632     -1409.2128     -1515.1797     -74.114932      40.627464     -16.475562      11803.129    
     17500   397.57681      0.00875        0.14466937     0.14337144     0.15412744    -1454.6204      630.00293      630.00293      630.00293      2.5005049e+08  2.0050678     -24031663      -24031663       1183.9159     -24030479      -1427.7757     -1414.9661     -1521.1196     -74.029888      40.590388     -16.400268      11834.556    
     17600   397.217        0.0088         0.14525532     0.14395502     0.15472482    -1460.4331      630.03415      630.03415      630.03415      2.5008767e+08  2.0047697     -24030922      -24030922       1182.8444     -24029739      -1433.5585     -1420.7255     -1527.0153     -73.946446      40.547703     -16.334782      11845.077    
     17700   396.87055      0.00885        0.14583846     0.14453958     0.15531756    -1466.2245      630.06538      630.06538      630.06538      2.5012486e+08  2.0044716     -24030177      -24030177       1181.8127     -24028995      -1439.3137     -1426.4947     -1532.8651     -73.865513      40.502469     -16.279471      11833.184    
     17800   396.53652      0.0089         0.14641903     0.14512535     0.15590527    -1471.9949      630.09661      630.09661      630.09661      2.5016205e+08  2.0041736     -24029429      -24029429       1180.818      -24028248      -1445.0435     -1432.2759     -1538.6654     -73.788876      40.457794     -16.234426      11808.016    
     17900   396.21393      0.00895        0.14699731     0.14571244     0.15648742    -1477.7438      630.12784      630.12784      630.12784      2.5019924e+08  2.0038757     -24028678      -24028678       1179.8574     -24027498      -1450.7507     -1438.07       -1544.4107     -73.718068      40.41677      -16.199195      11830.723    
     18000   395.90172      0.009          0.1475736      0.14630103     0.15706355    -1483.4712      630.15906      630.15906      630.15906      2.5023644e+08  2.0035778     -24027924      -24027924       1178.9277     -24026745      -1456.4382     -1443.8789     -1550.0967     -73.654575      40.382985     -16.17355       11831.565    
     18100   395.59881      0.00905        0.14814822     0.14689135     0.15763331    -1489.178       630.19029      630.19029      630.19029      2.5027365e+08  2.0032799     -24027166      -24027166       1178.0257     -24025988      -1462.1093     -1449.7049     -1555.7198     -73.600705      40.359417     -16.157259      11826.963    
     18200   395.30414      0.0091         0.14872142     0.14748357     0.15819659    -1494.865       630.22152      630.22152      630.22152      2.5031085e+08  2.0029822     -24026405      -24026405       1177.1482     -24025228      -1467.7663     -1455.5497     -1561.279      -73.558632      40.347997     -16.149879      11840.056    
     18300   395.01671      0.00915        0.14929348     0.14807769     0.15875355    -1500.5337      630.25274      630.25274      630.25274      2.5034806e+08  2.0026845     -24025641      -24025641       1176.2923     -24024465      -1473.4121     -1461.4132     -1566.7757     -73.530691      40.349495     -16.150523      11830.261    
     18400   394.73554      0.0092         0.14986479     0.14867369     0.15930461    -1506.1867      630.28397      630.28397      630.28397      2.5038528e+08  2.0023868     -24024874      -24024874       1175.455      -24023699      -1479.0505     -1467.2953     -1572.2143     -73.51832       40.363728     -16.15797       11837.443    
     18500   394.45968      0.00925        0.15043576     0.1492716      0.15985047    -1511.8277      630.3152       630.3152       630.3152       2.5042249e+08  2.0020892     -24024104      -24024104       1174.6336     -24022930      -1484.6855     -1473.1962     -1577.6015     -73.520823      40.389467     -16.170495      11810.992    
     18600   394.18821      0.0093         0.15100676     0.14987137     0.16039182    -1517.4601      630.34642      630.34642      630.34642      2.5045971e+08  2.0017917     -24023331      -24023331       1173.8252     -24022157      -1490.3208     -1479.1154     -1582.9442     -73.535554      40.424941     -16.18658       11863.363    
     18700   393.92027      0.00935        0.15157807     0.1504728      0.1609293     -1523.0864      630.37765      630.37765      630.37765      2.5049694e+08  2.0014942     -24022554      -24022554       1173.0273     -24021381      -1495.9593     -1485.0511     -1588.2487     -73.559081      40.468261     -16.204155      11864.155    
     18800   393.65503      0.0094         0.15215003     0.15107565     0.16146366    -1528.7091      630.40888      630.40888      630.40888      2.5053417e+08  2.0011968     -24021775      -24021775       1172.2375     -24020603      -1501.604      -1491.0007     -1593.5224     -73.588029      40.517604     -16.220418      11844.994    
     18900   393.39173      0.00945        0.15272277     0.15167963     0.1619956     -1534.3301      630.4401       630.4401       630.4401       2.505714e+08   2.0008995     -24020992      -24020992       1171.4534     -24019821      -1507.2565     -1496.9616     -1598.7723     -73.618638      40.570421     -16.232963      11855.386    
     19000   393.12967      0.0095         0.1532964      0.15228428     0.16252565    -1539.9501      630.47133      630.47133      630.47133      2.5060863e+08  2.0006022     -24020206      -24020206       1170.673      -24019036      -1512.9178     -1502.929      -1604.0035     -73.646019      40.623734     -16.238911      11836.629    
     19100   392.86823      0.00955        0.15387106     0.15288905     0.16305426    -1545.5691      630.50256      630.50256      630.50256      2.5064587e+08  2.0003049     -24019417      -24019417       1169.8945     -24018247      -1518.5893     -1508.8977     -1609.2204     -73.663913      40.67459      -16.23541       11839.67     
     19200   392.60686      0.0096         0.1544469      0.15349339     0.16358198    -1551.1877      630.53379      630.53379      630.53379      2.5068312e+08  2.0000078     -24018625      -24018625       1169.1162     -24017456      -1524.2724     -1514.8619     -1614.4286     -73.665727      40.720164     -16.218966      11816.602    
     19300   392.34505      0.00965        0.1550239      0.1540968      0.16410931    -1556.8057      630.56501      630.56501      630.56501      2.5072036e+08  1.9997106     -24017830      -24017830       1168.3366     -24016662      -1529.9669     -1520.8171     -1619.6329     -73.645579      40.758068     -16.185655      11828.018    
     19400   392.08232      0.0097         0.155602       0.15469899     0.16463664    -1562.4233      630.59624      630.59624      630.59624      2.5075761e+08  1.9994136     -24017032      -24017032       1167.5542     -24015864      -1535.6723     -1526.7604     -1624.8373     -73.598547      40.785508     -16.131612      11832.375    
     19500   391.81827      0.00975        0.15618104     0.15529973     0.16516426    -1568.0402      630.62747      630.62747      630.62747      2.5079487e+08  1.9991166     -24016230      -24016230       1166.7679     -24015064      -1541.387      -1532.6892     -1630.0445     -73.520034      40.799835     -16.05321       11869.112    
     19600   391.55257      0.0098         0.15676082     0.15589886     0.16569232    -1573.6557      630.65869      630.65869      630.65869      2.5083213e+08  1.9988196     -24015426      -24015426       1165.9767     -24014260      -1547.109      -1538.6021     -1635.256      -73.405831      40.799658     -15.947662      11859.841    
     19700   391.285        0.00985        0.15734119     0.15649624     0.16622093    -1579.2692      630.68992      630.68992      630.68992      2.5086939e+08  1.9985227     -24014618      -24014618       1165.1799     -24013453      -1552.8368     -1544.4978     -1640.4731     -73.252776      40.783803     -15.813025      11716.886    
     19800   391.01545      0.0099         0.15792189     0.15709186     0.16675006    -1584.8797      630.72115      630.72115      630.72115      2.5090665e+08  1.9982259     -24013807      -24013807       1164.3772     -24012643      -1558.5679     -1550.3761     -1645.6952     -73.058972      40.750578     -15.647869      11859.328    
     19900   390.74388      0.00995        0.15850266     0.15768565     0.16727953    -1590.4856      630.75237      630.75237      630.75237      2.5094392e+08  1.9979292     -24012993      -24012993       1163.5686     -24011829      -1564.2997     -1556.2364     -1650.9206     -72.824265      40.697742     -15.451204      11855.918    
     20000   390.47035      0.01           0.15908331     0.15827771     0.16780911    -1596.0856      630.7836       630.7836       630.7836       2.5098119e+08  1.9976324     -24012175      -24012175       1162.754      -24011013      -1570.0302     -1562.0796     -1656.1472     -72.549975      40.622615     -15.223562      5974.4016    
     20100   390.19494      0.01005        0.15966361     0.15886818     0.16833869    -1601.6794      630.81483      630.81483      630.81483      2.5101847e+08  1.9973358     -24011355      -24011355       1161.9339     -24010193      -1575.7573     -1567.907      -1661.3737     -72.238026      40.523038     -14.966533      11785.543    
     20200   389.9178       0.0101         0.16024335     0.1594572      0.16886826    -1607.2664      630.84605      630.84605      630.84605      2.5105575e+08  1.9970392     -24010531      -24010531       1161.1086     -24009370      -1581.4789     -1573.7202     -1666.6001     -71.891479      40.397808     -14.68139       11764.057    
     20300   389.63912      0.01015        0.1608222      0.16004478     0.16939777    -1612.8456      630.87728      630.87728      630.87728      2.5109303e+08  1.9967427     -24009704      -24009704       1160.2788     -24008544      -1587.1917     -1579.5191     -1671.826      -71.514654      40.246174     -14.369863      11810.727    
     20400   389.35922      0.0102         0.1613997      0.16063075     0.16992704    -1618.4143      630.90851      630.90851      630.90851      2.5113032e+08  1.9964462     -24008874      -24008874       1159.4453     -24007714      -1592.8912     -1585.3022     -1677.0495     -71.112416      40.06848      -14.034876      11816.931    
     20500   389.07855      0.01025        0.16197532     0.16121491     0.17045606    -1623.97        630.93974      630.93974      630.93974      2.5116761e+08  1.9961498     -24008040      -24008040       1158.6095     -24006882      -1598.5721     -1591.0675     -1682.2705     -70.690163      39.864737     -13.680498      11830.514    
     20600   388.79764      0.0103         0.16254861     0.16179714     0.17098492    -1629.5112      630.97096      630.97096      630.97096      2.5120491e+08  1.9958534     -24007204      -24007204       1157.773      -24006046      -1604.2301     -1596.8137     -1687.49       -70.25301       39.635026     -13.311392      11841.929    
     20700   388.51715      0.01035        0.16311922     0.16237728     0.17151369    -1635.0364      631.00219      631.00219      631.00219      2.5124221e+08  1.9955571     -24006365      -24006365       1156.9377     -24005208      -1609.8615     -1602.5391     -1692.7085     -69.806435      39.379983     -12.931603      11812.129    
     20800   388.23778      0.0104         0.16368686     0.16295495     0.17204243    -1640.5436      631.03342      631.03342      631.03342      2.5127951e+08  1.9952609     -24005522      -24005522       1156.1058     -24004366      -1615.4637     -1608.2403     -1697.9267     -69.355378      39.101547     -12.546275      11758.47     
     20900   387.9603       0.01045        0.16425145     0.16352979     0.17257112    -1646.0313      631.06464      631.06464      631.06464      2.5131681e+08  1.9949647     -24004676      -24004676       1155.2795     -24003521      -1621.0358     -1613.9136     -1703.1445     -68.904404      38.801667     -12.161079      11817.378    
     21000   387.68552      0.0105         0.16481303     0.16410149     0.17309964    -1651.4982      631.09587      631.09587      631.09587      2.5135412e+08  1.9946686     -24003828      -24003828       1154.4613     -24002673      -1626.5781     -1619.5558     -1708.3606     -68.45728       38.48309      -11.781621      11803.24     
     21100   387.41429      0.01055        0.1653716      0.16466976     0.17362779    -1656.9427      631.1271       631.1271       631.1271       2.5139144e+08  1.9943725     -24002976      -24002976       1153.6536     -24001822      -1632.0908     -1625.1641     -1713.573      -68.016304      38.150084     -11.413209      11833.761    
     21200   387.14757      0.0106         0.16592711     0.16523431     0.17415546    -1662.3633      631.15832      631.15832      631.15832      2.5142875e+08  1.9940765     -24002121      -24002121       1152.8593     -24000968      -1637.5733     -1630.7358     -1718.7807     -67.583461      37.806855     -11.061136      11833.71     
     21300   386.88643      0.01065        0.1664794      0.16579477     0.17468241    -1667.7575      631.18955      631.18955      631.18955      2.5146607e+08  1.9937806     -24001263      -24001263       1152.0817     -24000111      -1643.024      -1636.2672     -1723.9814     -67.161172      37.456302     -10.730398      11782.785    
     21400   386.632        0.0107         0.16702847     0.1663509      0.1752086     -1673.1244      631.22078      631.22078      631.22078      2.515034e+08   1.9934847     -24000402      -24000402       1151.3241     -23999251      -1648.4428     -1641.7557     -1729.1745     -66.751957      37.101087     -10.426231      11844.868    
     21500   386.38537      0.01075        0.16757449     0.16690252     0.17573408    -1678.464       631.252        631.252        631.252        2.5154073e+08  1.9931889     -23999538      -23999538       1150.5896     -23998388      -1653.8316     -1647.1998     -1734.3606     -66.358327      36.743408     -10.15461       11810.737    
     21600   386.14755      0.0108         0.16811757     0.16744933     0.17625858    -1683.7749      631.28323      631.28323      631.28323      2.5157806e+08  1.9928931     -23998672      -23998672       1149.8815     -23997522      -1659.1914     -1652.5964     -1739.537      -65.98181       36.386242     -9.9207893      11826.755    
     21700   385.91953      0.01085        0.16865767     0.16799091     0.17678167    -1689.0542      631.31446      631.31446      631.31446      2.5161539e+08  1.9925974     -23997802      -23997802       1149.2025     -23996652      -1664.5218     -1657.9414     -1744.6994     -65.623397      36.032693     -9.7288412      11837.455    
     21800   385.70224      0.0109         0.16919473     0.16852687     0.17730296    -1694.2991      631.34569      631.34569      631.34569      2.5165273e+08  1.9923017     -23996929      -23996929       1148.5554     -23995780      -1669.8221     -1663.2309     -1749.8442     -65.283668      35.685267     -9.5817172      11814.188    
[...]
    792800   334.59721      0.3964         0.064161236    0.063776163    0.064046348   -631.57742      872.10517      872.10517      872.10517      6.6329478e+08  0.75587535    -17104914      -17104914       996.37335     -17103918      -633.22216     -629.42179     -632.08831      0.618066      -0.307869       4.9234191      12119.275    
    792900   334.56285      0.39645        0.064158843    0.063766101    0.064035712   -631.50146      872.1364       872.1364       872.1364       6.6336603e+08  0.75579416    -17104281      -17104281       996.27105     -17103285      -633.19855     -629.32249     -631.98334      0.70563585    -0.35029364     4.8671324      12055.589    
    793000   334.52586      0.3965         0.064157123    0.063756943    0.064024917   -631.43016      872.16762      872.16762      872.16762      6.6343729e+08  0.75571298    -17103648      -17103648       996.16088     -17102651      -633.18158     -629.2321      -631.8768       0.79076076    -0.39626577     4.8221644      11934.785    
    793100   334.48639      0.39655        0.06415589     0.0637487      0.064013955   -631.36292      872.19885      872.19885      872.19885      6.6350856e+08  0.75563182    -17103014      -17103014       996.04335     -17102018      -633.16941     -629.15075     -631.76862      0.87262826    -0.44592955     4.7885884      12048.669    
    793200   334.44463      0.3966         0.064154987    0.063741355    0.064002817   -631.29915      872.23008      872.23008      872.23008      6.6357982e+08  0.75555066    -17102381      -17102381       995.91898     -17101385      -633.16049     -629.07827     -631.65869      0.95029079    -0.49930522     4.7663693      12105.57     
    793300   334.40076      0.39665        0.064154268    0.063734867    0.063991499   -631.23821      872.2613       872.2613       872.2613       6.636511e+08   0.75546952    -17101748      -17101748       995.78837     -17100752      -633.1534      -629.01423     -631.54699      1.0227191     -0.55614085     4.7553251      11926.046    
    793400   334.35501      0.3967         0.06415361     0.063729188    0.06397999    -631.1795       872.29253      872.29253      872.29253      6.6372238e+08  0.75538839    -17101114      -17101114       995.65214     -17100119      -633.14691     -628.95819     -631.43341      1.0888784     -0.61593141     4.7551466      12068.635    
    793500   334.3076       0.39675        0.064152904    0.063724292    0.063968283   -631.12255      872.32376      872.32376      872.32376      6.6379366e+08  0.75530727    -17100481      -17100481       995.51094     -17099486      -633.13993     -628.90986     -631.31787      1.1479233     -0.6779922      4.7654072      12068.181    
    793600   334.25873      0.3968         0.06415205     0.063720163    0.063956383   -631.06701      872.35498      872.35498      872.35498      6.6386495e+08  0.75522616    -17099848      -17099848       995.36541     -17098852      -633.13151     -628.86911     -631.20042      1.1990957     -0.74145578     4.7856082      12100.588    
    793700   334.20857      0.39685        0.064150979    0.063716792    0.063944322   -631.01273      872.38621      872.38621      872.38621      6.6393624e+08  0.75514506    -17099214      -17099214       995.21605     -17098219      -633.12094     -628.83584     -631.08139      1.2415235     -0.8052489      4.814954       12045.92     
    793800   334.15727      0.3969         0.06414961     0.063714144    0.063932168   -630.95953      872.41744      872.41744      872.41744      6.6400754e+08  0.75506398    -17098581      -17098581       995.0633      -17097586      -633.10743     -628.80971     -630.96144      1.2744229     -0.86810327     4.8526674      12102.646    
    793900   334.10497      0.39695        0.064147819    0.063712108    0.063919979   -630.90684      872.44866      872.44866      872.44866      6.6407885e+08  0.75498291    -17097948      -17097948       994.90756     -17096953      -633.08975     -628.78962     -630.84114      1.297101      -0.92889486     4.8982761      11835.993    
    794000   334.05185      0.397          0.064145485    0.063710542    0.063907811   -630.85398      872.47989      872.47989      872.47989      6.6415016e+08  0.75490184    -17097314      -17097314       994.74936     -17096320      -633.06672     -628.77416     -630.72105      1.3089742     -0.98667708     4.9513344      12070.086    
    794100   333.99811      0.39705        0.064142538    0.063709342    0.063895775   -630.80074      872.51112      872.51112      872.51112      6.6422147e+08  0.75482079    -17096681      -17096681       994.58933     -17095686      -633.03764     -628.76232     -630.60227      1.3096839     -1.0406489      5.011221       12067.242    
    794200   333.944        0.3971         0.06413893     0.063708396    0.063883955   -630.74687      872.54235      872.54235      872.54235      6.6429279e+08  0.75473976    -17096047      -17096047       994.42821     -17095053      -633.00203     -628.75298     -630.48562      1.2991793     -1.0901603      5.0772139      12062.709    
    794300   333.88981      0.39715        0.064134659    0.063707585    0.063872386   -630.6921       872.57357      872.57357      872.57357      6.6436411e+08  0.75465873    -17095414      -17095414       994.26683     -17094420      -632.95987     -628.74498     -630.37144      1.2776669     -1.1345427      5.1486005      12086.089    
    794400   333.83584      0.3972         0.064129753    0.063706797    0.063861064   -630.63612      872.6048       872.6048       872.6048       6.6443544e+08  0.75457771    -17094780      -17094780       994.10612     -17093786      -632.91145     -628.7372      -630.2597       1.2458485     -1.1730285      5.2244917      12071.517    
    794500   333.78244      0.39725        0.064124221    0.063705914    0.063849985   -630.57857      872.63603      872.63603      872.63603      6.6450678e+08  0.75449671    -17094147      -17094147       993.9471      -17093153      -632.85686     -628.72849     -630.15036      1.2048029     -1.2047444      5.3039774      11966.678    
    794600   333.72996      0.3973         0.06411809     0.063704798    0.063839171   -630.51915      872.66725      872.66725      872.66725      6.6457812e+08  0.75441572    -17093513      -17093513       993.79083     -17092520      -632.79635     -628.71748     -630.04363      1.1556838     -1.2289299      5.3863977      12058.428    
    794700   333.67877      0.39735        0.064111382    0.063703287    0.063828645   -630.45749      872.69848      872.69848      872.69848      6.6464946e+08  0.75433474    -17092880      -17092880       993.6384      -17091886      -632.73014     -628.70257     -629.93975      1.0997032     -1.244975       5.4710922      12027.779    
    794800   333.62923      0.3974         0.064104093    0.063701259    0.063818443   -630.39327      872.72971      872.72971      872.72971      6.6472081e+08  0.75425377    -17092246      -17092246       993.49087     -17091253      -632.65821     -628.68255     -629.83906      1.0381127     -1.2524891      5.5573117      12011.936    
    794900   333.58163      0.39745        0.064096205    0.063698624    0.063808611   -630.32631      872.76093      872.76093      872.76093      6.6479217e+08  0.75417281    -17091613      -17091613       993.34913     -17090620      -632.58036     -628.65654     -629.74203      0.97215253    -1.251181       5.6444192      12001.403    
    795000   333.53623      0.3975         0.064087711    0.063695303    0.063799206   -630.2565       872.79216      872.79216      872.79216      6.6486353e+08  0.75409186    -17090980      -17090980       993.21394     -17089986      -632.49653     -628.62377     -629.64921      0.90321424    -1.2409789      5.7319259      12116.812    
    795100   333.49321      0.39755        0.064078607    0.063691235    0.063790257   -630.18373      872.82339      872.82339      872.82339      6.6493489e+08  0.75401093    -17090346      -17090346       993.08585     -17089353      -632.40668     -628.58362     -629.56089      0.83257048    -1.2216674      5.8193945      11963.772    
    795200   333.4527       0.3976         0.064068886    0.063686384    0.063781762   -630.10784      872.85461      872.85461      872.85461      6.6500626e+08  0.75393001    -17089713      -17089713       992.96519     -17088720      -632.31074     -628.53574     -629.47705      0.76138982    -1.192987       5.9061647      12082.011    
    795300   333.41472      0.39765        0.064058559    0.063680762    0.063773728   -630.02895      872.88584      872.88584      872.88584      6.6507764e+08  0.7538491     -17089079      -17089079       992.8521      -17088087      -632.20882     -628.48025     -629.39776      0.69089152    -1.1548791      5.9916658      12070.051    
    795400   333.37925      0.3977         0.064047692    0.063674435    0.063766163   -629.9475       872.91707      872.91707      872.91707      6.6514902e+08  0.7537682     -17088446      -17088446       992.74647     -17087453      -632.10157     -628.41781     -629.3231       0.62215966    -1.1076283      6.075334       12136.567    
    795500   333.34618      0.39775        0.064036348    0.063667503    0.063759091   -629.8641       872.94829      872.94829      872.94829      6.6522041e+08  0.75368731    -17087813      -17087813       992.64799     -17086820      -631.98962     -628.3494      -629.2533       0.55598931    -1.0516208      6.156653       12022.799    
    795600   333.31535      0.3978         0.064024534    0.063660065    0.063752591   -629.77939      872.97952      872.97952      872.97952      6.652918e+08   0.75360643    -17087180      -17087180       992.55621     -17086187      -631.87303     -628.276       -629.18916      0.49290388    -0.98726825     6.2352695      11968.347    
    795700   333.2866       0.39785        0.064012238    0.06365222     0.063746749   -629.69391      873.01075      873.01075      873.01075      6.6536319e+08  0.75352557    -17086546      -17086546       992.47059     -17085554      -631.75167     -628.19857     -629.13149      0.43338211    -0.91508666     6.3110462      11992.747    
    795800   333.25973      0.3979         0.063999424    0.063644057    0.063741607   -629.60799      873.04198      873.04198      873.04198      6.6543459e+08  0.75344471    -17085913      -17085913       992.39057     -17084921      -631.6252      -628.118       -629.08075      0.37778419    -0.83573842     6.3835919      11977.62     
    795900   333.23454      0.39795        0.063986075    0.063635652    0.063737201   -629.52193      873.0732       873.0732       873.0732       6.65506e+08    0.75336387    -17085280      -17085280       992.31556     -17084287      -631.49346     -628.03505     -629.03727      0.32633722    -0.7502714      6.4520613      12089.345    
    796000   333.21084      0.398          0.063972194    0.063627079    0.063733533   -629.43599      873.10443      873.10443      873.10443      6.6557741e+08  0.75328304    -17084646      -17084646       992.24498     -17083654      -631.35647     -627.95045     -629.00106      0.27918573    -0.66008361     6.5153824      12014.087    
    796100   333.18843      0.39805        0.063957789    0.063618383    0.063730551   -629.35019      873.13566      873.13566      873.13566      6.6564883e+08  0.75320222    -17084013      -17084013       992.17826     -17083021      -631.2143      -627.86463     -628.97164      0.23641073    -0.56666132     6.5725848      11987.846    
    796200   333.16716      0.3981         0.063942869    0.063609596    0.063728191   -629.26443      873.16688      873.16688      873.16688      6.6572025e+08  0.75312142    -17083380      -17083380       992.1149      -17082388      -631.06706     -627.7779      -628.94835      0.19789531    -0.47146839     6.6229247      11547.92     
    796300   333.14685      0.39815        0.063927425    0.063600704    0.063726367   -629.17837      873.19811      873.19811      873.19811      6.6579168e+08  0.75304062    -17082747      -17082747       992.05443     -17081755      -630.91463     -627.69015     -628.93034      0.16342784    -0.37583883     6.6658472      11734.146    
    796400   333.12739      0.3982         0.063911445    0.063591706    0.063724975   -629.09162      873.22934      873.22934      873.22934      6.6586311e+08  0.75295984    -17082114      -17082114       991.99648     -17081122      -630.75692     -627.60134     -628.91661      0.13282563    -0.28093056     6.7010167      12143.233    
    796500   333.10867      0.39825        0.063894917    0.063582591    0.063723905   -629.00374      873.26056      873.26056      873.26056      6.6593454e+08  0.75287906    -17081480      -17081480       991.94073     -17080488      -630.5938      -627.51138     -628.90604      0.1058443     -0.18784436     6.7282475      12129.596    
    796600   333.09061      0.3983         0.063877843    0.063573327    0.063723027   -628.91421      873.29179      873.29179      873.29179      6.6600599e+08  0.7527983     -17080847      -17080847       991.88697     -17079855      -630.42529     -627.41995     -628.89738      0.081965522   -0.097713016    6.7473582      12047.283    
    796700   333.0732       0.39835        0.063860235    0.063563835    0.0637222     -628.82234      873.32302      873.32302      873.32302      6.6607743e+08  0.75271755    -17080214      -17080214       991.83512     -17079222      -630.25152     -627.32627     -628.88921      0.0604946     -0.011841883    6.758137       12043.104    
    796800   333.05646      0.3984         0.063842116    0.063553994    0.06372127    -628.7273       873.35424      873.35424      873.35424      6.6614889e+08  0.75263682    -17079581      -17079581       991.78526     -17078589      -630.0727      -627.22916     -628.88004      0.040779011    0.068604031    6.7604425      12152.39     
    796900   333.04046      0.39845        0.063823516    0.063543681    0.063720108   -628.62836      873.38547      873.38547      873.38547      6.6622034e+08  0.75255609    -17078948      -17078948       991.73762     -17077956      -629.88913     -627.12737     -628.86857      0.022126027    0.14268898     6.7543359      11977.591    
    797000   333.02534      0.3985         0.063804441    0.063532785    0.063718597   -628.52479      873.4167       873.4167       873.4167       6.6629181e+08  0.75247538    -17078315      -17078315       991.69261     -17077324      -629.70088     -627.01984     -628.85366      0.0040840431   0.20968286     6.7400679      12051.253    
    797100   333.01131      0.39855        0.063784876    0.063521247    0.063716628   -628.41599      873.44793      873.44793      873.44793      6.6636327e+08  0.75239467    -17077682      -17077682       991.6508      -17076691      -629.50779     -626.90597     -628.83423     -0.013565564    0.26908674     6.7181487      12084.154    
    797200   332.9986       0.3986         0.063764788    0.063509054    0.063714078   -628.30141      873.47915      873.47915      873.47915      6.6643475e+08  0.75231398    -17077050      -17077050       991.61296     -17076058      -629.30953     -626.78563     -628.80906     -0.031048488    0.320589       6.689208       12057.446    
    797300   332.98753      0.39865        0.063744163    0.06349622     0.063710815   -628.1806       873.51038      873.51038      873.51038      6.6650622e+08  0.7522333     -17076417      -17076417       991.58001     -17075426      -629.10597     -626.65897     -628.77685     -0.048459254    0.36382617     6.6539284      12049.553    
    797400   332.97847      0.3987         0.06372302     0.063482778    0.06370672    -628.05335      873.54161      873.54161      873.54161      6.6657771e+08  0.75215263    -17075785      -17075785       991.55303     -17074793      -628.89731     -626.5263      -628.73645     -0.065651467    0.39839067     6.61305        12149.567    
    797500   332.97183      0.39875        0.063701377    0.063468794    0.063701712   -627.91968      873.57283      873.57283      873.57283      6.6664919e+08  0.75207198    -17075152      -17075152       991.53324     -17074161      -628.68371     -626.3883      -628.68702     -0.081996843    0.42414182     6.5675712      11805.103    
    797600   332.96804      0.3988         0.063679266    0.063454315    0.063695729   -627.77962      873.60406      873.60406      873.60406      6.6672069e+08  0.75199133    -17074520      -17074520       991.52197     -17073529      -628.46549     -626.24539     -628.62797     -0.096599682    0.44116763     6.5187624      12097.964    
    797700   332.96758      0.39885        0.063656713    0.063439366    0.063688711   -627.63316      873.63529      873.63529      873.63529      6.6679219e+08  0.7519107     -17073888      -17073888       991.52058     -17072897      -628.24291     -626.09786     -628.5587      -0.10860329     0.44953539     6.468077       11983.686    
    797800   332.97087      0.3989         0.063633741    0.06342398     0.063680615   -627.48034      873.66651      873.66651      873.66651      6.6686369e+08  0.75183007    -17073256      -17073256       991.5304      -17072265      -628.01619     -625.94601     -628.47881     -0.11715728     0.44962465     6.4169674      11995.669    
    797900   332.97837      0.39895        0.063610386    0.063408211    0.063671413   -627.32136      873.69774      873.69774      873.69774      6.669352e+08   0.75174946    -17072625      -17072625       991.55272     -17071633      -627.7857      -625.79039     -628.38799     -0.12148808     0.44210899     6.3666967      12065.209    
    798000   332.99043      0.399          0.063586731    0.063392155    0.063661108   -627.15682      873.72897      873.72897      873.72897      6.6700671e+08  0.75166886    -17071993      -17071993       991.58863     -17071002      -627.55224     -625.63193     -628.28629     -0.12116467     0.42762144     6.3183227      12058.304    
    798100   333.00736      0.39905        0.063562909    0.063375928    0.063649725   -626.98762      873.76019      873.76019      873.76019      6.6707823e+08  0.75158828    -17071362      -17071362       991.63904     -17070370      -627.31714     -625.47178     -628.17395     -0.11606247     0.40667436     6.2728631      11903.158    
    798200   333.02936      0.3991         0.06353907     0.063359639    0.063637301   -626.81474      873.79142      873.79142      873.79142      6.6714975e+08  0.7515077     -17070731      -17070731       991.70456     -17069739      -627.08187     -625.31101     -628.05133     -0.10609984     0.37972013     6.2312662      11998.286    
    798300   333.05655      0.39915        0.063515392    0.063343367    0.063623898   -626.63922      873.82265      873.82265      873.82265      6.6722128e+08  0.75142714    -17070100      -17070100       991.78555     -17069108      -626.84818     -625.15042     -627.91905     -0.091207939    0.34727627     6.1944318      12113.285    
    798400   333.08896      0.3992         0.063492076    0.063327204    0.063609646   -626.46246      873.85388      873.85388      873.85388      6.6729282e+08  0.75134658    -17069469      -17069469       991.88205     -17068478      -626.61807     -624.99091     -627.7784      -0.071440765    0.30993451     6.1630182      12077.887    
    798500   333.12648      0.39925        0.06346934     0.063311273    0.063594745   -626.28624      873.8851       873.8851       873.8851       6.6736436e+08  0.75126604    -17068839      -17068839       991.99377     -17067847      -626.39369     -624.83369     -627.63134     -0.047037266    0.26835641     6.1374953      12078.411    
    798600   333.16886      0.3993      