LAMMPS (23 Jun 2022 - Update 1)
OMP_NUM_THREADS environment is not set. Defaulting to 1 thread. (src/comm.cpp:98)
  using 1 OpenMP thread(s) per MPI task
###

# Read restart info
read_restart ${read_res}
read_restart ./200800/equpmf81.res
Reading restart file ...
  restart file = 23 Jun 2022, LAMMPS = 23 Jun 2022
WARNING: Restart file used different # of processors: 1 vs. 4 (src/read_restart.cpp:654)
  restoring atom style atomic from restart
  orthogonal box = (2135.8202 2135.8202 2135.8202) to (2864.1798 2864.1798 2864.1798)
  1 by 2 by 2 MPI processor grid
  restoring pair style table from restart
  1000 atoms
  read_restart CPU = 0.239 seconds

# Settings
pair_style table/pgn spline 9941
pair_coeff 1 1 N20.txt DE_GNP 147.89 72.9   # 1.35 * r
pair_coeff 2 2 N100.txt DE_GNP 473.9 111.78
WARNING: 3 of 9941 force values in table DE_GNP are inconsistent with -dE/dr.
WARNING:  Should only be flagged at inflection points (src/pair_table_pgn.cpp:478)
pair_coeff 1 2 mixed_potential.txt DE_GNP 391.2 92.95
WARNING: 1562 of 9941 force values in table DE_GNP are inconsistent with -dE/dr.
WARNING:  Should only be flagged at inflection points (src/pair_table_pgn.cpp:478)

# Neighbor list
neighbor 2.0 bin
neigh_modify delay 0 every 1 check no once yes

# Temperature
variable T equal ${Temp}
variable T equal 300

# Deformation
reset_timestep 0
variable tmp equal "lx"
variable L0 equal ${tmp}
variable L0 equal 728.359608914386
variable strain equal "(lx - v_L0)/v_L0"
variable stp equal "step"
variable tmpe equal "temp"
variable p1 equal "v_strain"
variable p2 equal "-pxx*1.01325/10000"
variable p3 equal "-pyy*1.01325/10000"
variable p4 equal "-pzz*1.01325/10000"
variable p5 equal "lx"
variable p6 equal "ly"
variable p7 equal "lz"
variable p8 equal "press"
variable p9 equal "epair"
variable p10 equal "etotal"

# Thermo
thermo_style custom step temp v_p1 v_p2 v_p3 v_p4 press lx ly lz vol density epair pe ke etotal pxx pyy pzz pxy pxz pyz spcpu
thermo ${ts_save}
thermo 100

# Dump
# dump 1 all custom 2000 ./${N20}${N100}/tensile/trajectory/trajectory_${usic}_${trial}_*.tensile.custom id type x y z ix iy iz
# dump_modify 1 sort id
dump 2 all cfg 20000 ./${N20}${N100}/tensile/trajectory/dumpten.tens_${usic}_${trial}_*.cfg mass type xs ys zs fx fy fz
dump 2 all cfg 20000 ./200${N100}/tensile/trajectory/dumpten.tens_${usic}_${trial}_*.cfg mass type xs ys zs fx fy fz
dump 2 all cfg 20000 ./200800/tensile/trajectory/dumpten.tens_${usic}_${trial}_*.cfg mass type xs ys zs fx fy fz
dump 2 all cfg 20000 ./200800/tensile/trajectory/dumpten.tens_2_${trial}_*.cfg mass type xs ys zs fx fy fz
dump 2 all cfg 20000 ./200800/tensile/trajectory/dumpten.tens_2_5_*.cfg mass type xs ys zs fx fy fz
dump_modify 2 element N20 N100

fix 1 all nvt temp ${T} ${T} 100
fix 1 all nvt temp 300 ${T} 100
fix 1 all nvt temp 300 300 100
fix 2 all deform 1 x erate ${strain_rate} y erate ${strain_rate} z erate ${strain_rate} units box
fix 2 all deform 1 x erate 5e-6 y erate ${strain_rate} z erate ${strain_rate} units box
fix 2 all deform 1 x erate 5e-6 y erate 5e-6 z erate ${strain_rate} units box
fix 2 all deform 1 x erate 5e-6 y erate 5e-6 z erate 5e-6 units box
fix             def1 all print ${ts_save} "${p1} ${p2} ${p3} ${p4}" file ./tensile/tensile${N20}${N100}_${usic}_${trial}.txt screen no
fix             def1 all print 100 "${p1} ${p2} ${p3} ${p4}" file ./tensile/tensile${N20}${N100}_${usic}_${trial}.txt screen no
fix             def1 all print 100 "${p1} ${p2} ${p3} ${p4}" file ./tensile/tensile200${N100}_${usic}_${trial}.txt screen no
fix             def1 all print 100 "${p1} ${p2} ${p3} ${p4}" file ./tensile/tensile200800_${usic}_${trial}.txt screen no
fix             def1 all print 100 "${p1} ${p2} ${p3} ${p4}" file ./tensile/tensile200800_2_${trial}.txt screen no
fix             def1 all print 100 "${p1} ${p2} ${p3} ${p4}" file ./tensile/tensile200800_2_5.txt screen no

timestep       		${ts}
timestep       		0.1
run				${steps_tensile}
run				6000000
Generated 0 of 1 mixed pair_coeff terms from geometric mixing rule
Unused restart file global fix info:
  fix style: npt, fix ID: 5
Neighbor list info ...
  update every 1 steps, delay 0 steps, check no
  max neighbors/atom: 2000, page size: 100000
  master list distance cutoff = 113.78
  ghost atom cutoff = 113.78
  binsize = 56.89, bins = 13 13 13
  1 neighbor lists, perpetual/occasional/extra = 1 0 0
  (1) pair table/pgn, perpetual
      attributes: half, newton on
      pair build: half/bin/atomonly/newton
      stencil: half/bin/3d
      bin: standard
Per MPI rank memory allocation (min/avg/max) = 3.85 | 3.851 | 3.852 Mbytes
   Step          Temp           v_p1           v_p2           v_p3           v_p4          Press            Lx             Ly             Lz           Volume        Density         E_pair         PotEng         KinEng         TotEng          Pxx            Pyy            Pzz            Pxy            Pxz            Pyz           S/CPU     
         0   305.17726     -3.1217227e-16  0.0022750567  -0.00092625408  0.0043111466  -18.619785      728.35961      728.35961      728.35961      3.864004e+08   1.6416757     -46879964      -46879964       908.76577     -46879055      -22.453063      9.141417      -42.547709     -16.863405      35.816732     -29.697028      0            
       100   315.04663      5e-05          0.0030873282  -0.00012030724  0.0051144054  -26.585825      728.39603      728.39603      728.39603      3.8645836e+08  1.6414295     -46879976      -46879976       938.15507     -46879037      -30.46956       1.1873401     -50.475256     -16.879201      35.76038      -29.646541      12261.344    
       200   325.34794      0.0001         0.0039062656   0.00069166066  0.005924441   -34.615897      728.43244      728.43244      728.43244      3.8651633e+08  1.6411833     -46879982      -46879982       968.8306      -46879014      -38.551844     -6.8261599     -58.469686     -16.88556       35.704888     -29.593649      12281.424    
       300   335.81066      0.00015        0.0047231668   0.0015011798   0.0067328952  -42.626012      728.46886      728.46886      728.46886      3.865743e+08   1.6409372     -46879984      -46879984       999.9868      -46878985      -46.614032     -14.815493     -66.448509     -16.882482      35.650092     -29.539204      12301.223    
       400   346.12818      0.0002         0.0055375336   0.0023079149   0.0075394922  -50.61252       728.50528      728.50528      728.50528      3.8663228e+08  1.6406911     -46879982      -46879982       1030.7106     -46878951      -54.651207     -22.77735      -74.409002     -16.870166      35.595427     -29.483393      12334.741    
       500   356.00577      0.00025        0.006348906    0.0031115557   0.0083439658  -58.572013      728.5417       728.5417       728.5417       3.8669027e+08  1.640445      -46879975      -46879975       1060.1244     -46878915      -62.658831     -30.708668     -82.34854      -16.848991      35.540447     -29.426546      12346.979    
       600   365.30193      0.0003         0.0071569153   0.0039118441   0.0091459997  -66.501387      728.57812      728.57812      728.57812      3.8674826e+08  1.6401991     -46879963      -46879963       1087.8068     -46878875      -70.633262     -38.6069       -90.263999     -16.819614      35.484949     -29.369292      12330.763    
       700   374.24412      0.00035        0.007961252    0.004708591    0.0099452743  -74.397952      728.61453      728.61453      728.61453      3.8680626e+08  1.6399531     -46879946      -46879946       1114.4351     -46878831      -78.571449     -46.47018      -98.152226     -16.782779      35.428654     -29.312709      12326.222    
       800   383.43242      0.0004         0.0087616591   0.0055016812   0.010741558   -82.259718      728.65095      728.65095      728.65095      3.8686426e+08  1.6397072     -46879924      -46879924       1141.7963     -46878782      -86.470852     -54.297372     -106.01093     -16.73915       35.370689     -29.257775      12358.703    
       900   393.34581      0.00045        0.0095578933   0.0062910245   0.011534709   -90.085127      728.68737      728.68737      728.68737      3.8692227e+08  1.6394614     -46879898      -46879898       1171.3167     -46878726      -94.329073     -62.087584     -113.83872     -16.689401      35.310142     -29.204948      12334.955    
      1000   403.87431      0.0005         0.010349786    0.0070766068   0.012324642   -97.873293      728.72379      728.72379      728.72379      3.8698029e+08  1.6392156     -46879866      -46879866       1202.6687     -46878663      -102.14444     -69.840679     -121.63476     -16.634351      35.24601      -29.154737      12084.227    
      1100   414.49468      0.00055        0.011137305    0.0078585562   0.013111355   -105.62453      728.76021      728.76021      728.76021      3.8703831e+08  1.6389699     -46879830      -46879830       1234.2944     -46878596      -109.91665     -77.55792      -129.39901     -16.574973      35.177391     -29.107506      12278.767    
      1200   424.6992       0.0006         0.011920611    0.0086371395   0.013894893   -113.34038      728.79662      728.79662      728.79662      3.8709633e+08  1.6387242     -46879789      -46879789       1264.6817     -46878524      -117.64728     -85.241939     -137.13193     -16.512075      35.103861     -29.063428      12357.174    
      1300   434.24951      0.00065        0.012700003    0.0094126712   0.014675295   -121.02301      728.83304      728.83304      728.83304      3.8715437e+08  1.6384786     -46879743      -46879743       1293.1209     -46878450      -125.33929     -92.895842     -144.8339      -16.446764      35.025516     -29.02276       12273.598    
      1400   443.20475      0.0007         0.013475773    0.010185465    0.015452576   -128.67444      728.86946      728.86946      728.86946      3.872124e+08   1.638233      -46879692      -46879692       1319.7881     -46878372      -132.99554     -100.52272     -152.50507     -16.380546      34.942697     -28.985633      12341.92     
      1500   451.74575      0.00075        0.014248196    0.010955803    0.016226792   -136.29671      728.90588      728.90588      728.90588      3.8727045e+08  1.6379874     -46879635      -46879635       1345.2217     -46878290      -140.61876     -108.12537     -160.14599     -16.314589      34.855724     -28.951938      12402.932    
      1600   459.97328      0.0008         0.015017494    0.011723944    0.016997997   -143.89155      728.9423       728.9423       728.9423       3.873285e+08   1.637742      -46879574      -46879574       1369.7219     -46878204      -148.21115     -115.70633     -167.75719     -16.249674      34.764862     -28.921612      12227.42     
      1700   467.87196      0.00085        0.015783843    0.012490114    0.017766229   -151.46043      728.97871      728.97871      728.97871      3.8738655e+08  1.6374965     -46879508      -46879508       1393.2428     -46878114      -155.77442     -123.26784     -175.33904     -16.186572      34.670068     -28.89463       12330.16     
      1800   475.3905       0.0009         0.016547396    0.013254546    0.018531565   -159.00488      729.01513      729.01513      729.01513      3.8744462e+08  1.6372511     -46879436      -46879436       1415.6317     -46878021      -163.3101      -130.8122      -182.89233     -16.125817      34.57089      -28.870945      12373.598    
      1900   482.49925      0.00095        0.017308347    0.014017493    0.019294109   -166.52669      729.05155      729.05155      729.05155      3.8750268e+08  1.6370058     -46879359      -46879359       1436.8004     -46877923      -170.82011     -138.3419      -190.41806     -16.067693      34.466831     -28.850719      12362.894    
      2000   489.19153      0.001          0.018066845    0.01477914     0.02005398    -174.02735      729.08797      729.08797      729.08797      3.8756076e+08  1.6367605     -46879277      -46879277       1456.7288     -46877821      -178.30589     -145.85877     -197.91739     -16.012627      34.357481     -28.834344      12235.846    
      2100   495.46777      0.00105        0.018822935    0.015539594    0.020811274   -181.5077       729.12439      729.12439      729.12439      3.8761884e+08  1.6365152     -46879190      -46879190       1475.4184     -46877714      -185.76792     -153.36387     -205.39131     -15.961252      34.242851     -28.822245      12205.325    
      2200   501.32855      0.0011         0.019576623    0.016298932    0.021566062   -188.96823      729.1608       729.1608       729.1608       3.8767692e+08  1.6362701     -46879097      -46879097       1492.8708     -46877604      -193.20624     -160.85795     -212.84048     -15.914435      34.123088     -28.814322      12369.196    
      2300   506.77524      0.00115        0.020327885    0.017057298    0.022318375   -196.40943      729.19722      729.19722      729.19722      3.8773501e+08  1.6360249     -46878999      -46878999       1509.0901     -46877490      -200.62063     -168.34244     -220.26523     -15.872679      33.998536     -28.810092      12277.775    
      2400   511.81125      0.0012         0.021076693    0.017814898    0.023068203   -203.83187      729.23364      729.23364      729.23364      3.8779311e+08  1.6357798     -46878895      -46878895       1524.0865     -46877371      -208.01079     -175.81937     -227.66546     -15.836218      33.869212     -28.809033      12314.46     
      2500   516.44217      0.00125        0.021823123    0.018571979    0.02381558    -211.23672      729.27006      729.27006      729.27006      3.8785121e+08  1.6355348     -46878786      -46878786       1537.8766     -46877249      -215.37748     -183.29118     -235.0415      -15.805192      33.73463      -28.810737      12343.634    
      2600   520.67543      0.0013         0.02256732     0.019328823    0.024560549   -218.62552      729.30648      729.30648      729.30648      3.8790932e+08  1.6352898     -46878672      -46878672       1550.4825     -46877121      -222.72214     -190.76066     -242.39377     -15.779904      33.594441     -28.815233      12300.577    
      2700   524.52002      0.00135        0.023309381    0.020085654    0.025303088   -225.99925      729.34289      729.34289      729.34289      3.8796743e+08  1.6350448     -46878552      -46878552       1561.931      -46876990      -230.0457      -198.23        -249.72206     -15.760492      33.448641     -28.822623      12355.189    
      2800   527.9863       0.0014         0.024049336    0.020842608    0.026043134   -233.35826      729.37931      729.37931      729.37931      3.8802555e+08  1.6347999     -46878426      -46878426       1572.253      -46876854      -237.34849     -205.70055     -257.02575     -15.746654      33.297084     -28.832931      12344.35     
      2900   531.08582      0.00145        0.024787219    0.02159968     0.026780562   -240.70223      729.41573      729.41573      729.41573      3.8808368e+08  1.6345551     -46878294      -46878294       1581.4829     -46876713      -244.63083     -213.17227     -264.3036      -15.73755       33.139336     -28.846253      12363.21     
      3000   533.83116      0.0015         0.025523116    0.022356796    0.02751521    -248.03067      729.45215      729.45215      729.45215      3.8814181e+08  1.6343103     -46878157      -46878157       1589.658      -46876567      -251.89357     -220.64442     -271.55401     -15.732104      32.975016     -28.862422      12340.213    
      3100   536.23569      0.00155        0.026257133    0.023113858    0.028247016   -255.34339      729.48857      729.48857      729.48857      3.8819994e+08  1.6340655     -46878014      -46878014       1596.8183     -46876417      -259.13776     -228.11605     -278.77638     -15.729812      32.804273     -28.881273      12305.083    
      3200   538.31342      0.0016         0.026989375    0.023870748    0.028975999   -262.64042      729.52498      729.52498      729.52498      3.8825809e+08  1.6338208     -46877865      -46877865       1603.0054     -46876262      -266.36442     -235.58597     -285.97087     -15.730342      32.627829     -28.902627      12368.735    
      3300   540.0788       0.00165        0.027719885    0.024627352    0.029702193   -269.92164      729.5614       729.5614       729.5614       3.8831624e+08  1.6335761     -46877711      -46877711       1608.2624     -46876103      -273.57399     -243.05306     -293.13785     -15.732835      32.44651      -28.926148      12315.062    
      3400   541.54655      0.0017         0.028448655    0.025383557    0.030425689   -277.18694      729.59782      729.59782      729.59782      3.8837439e+08  1.6333315     -46877550      -46877550       1612.6332     -46875938      -280.76639     -250.51623     -300.2782      -15.736215      32.26146      -28.9513        12345.364    
      3500   542.73157      0.00175        0.029175685    0.026139203    0.031146597   -284.43617      729.63424      729.63424      729.63424      3.8843255e+08  1.633087      -46877384      -46877384       1616.1619     -46875768      -287.94162     -257.97388     -307.39301     -15.73919       32.074345     -28.978028      12370.737    
      3600   543.64877      0.0018         0.029901016    0.026894124    0.031865036   -291.6693       729.67066      729.67066      729.67066      3.8849072e+08  1.6328425     -46877212      -46877212       1618.8932     -46875593      -295.10009     -265.42436     -314.48346     -15.740647      31.886929     -29.006663      12390.548    
      3700   544.31305      0.00185        0.030624684    0.027648105    0.032581178   -298.88631      729.70707      729.70707      729.70707      3.8854889e+08  1.632598      -46877034      -46877034       1620.8713     -46875413      -302.24213     -272.86558     -321.55123     -15.739932      31.701086     -29.037818      12324.201    
      3800   544.73914      0.0019         0.03134667     0.028400897    0.033295247   -306.08706      729.74349      729.74349      729.74349      3.8860707e+08  1.6323536     -46876849      -46876849       1622.1402     -46875227      -309.36758     -280.29506     -328.59854     -15.736409      31.518795     -29.072187      12387.868    
      3900   544.94161      0.00195        0.032066849    0.029152241    0.034007455   -313.27098      729.77991      729.77991      729.77991      3.8866525e+08  1.6321092     -46876659      -46876659       1622.7431     -46875037      -316.4752      -287.71025     -335.62749     -15.729899      31.341808     -29.110183      12317.558    
      4000   544.93479      0.002          0.032785076    0.029901917    0.034718023   -320.43759      729.81633      729.81633      729.81633      3.8872344e+08  1.6318649     -46876463      -46876463       1622.7228     -46874840      -323.56354     -295.10897     -342.64025     -15.720607      31.171262     -29.152016      12350.16     
      4100   544.73274      0.00205        0.033501225    0.03064979     0.035427171   -327.58676      729.85275      729.85275      729.85275      3.8878163e+08  1.6316206     -46876261      -46876261       1622.1211     -46874639      -330.63138     -302.48991     -349.639       -15.708741      31.007702     -29.198004      12387.104    
      4200   544.34916      0.0021         0.034215185    0.031395768    0.036135116   -334.71854      729.88916      729.88916      729.88916      3.8883983e+08  1.6313764     -46876053      -46876053       1620.9789     -46874432      -337.67762     -309.85214     -356.62586     -15.694434      30.851252     -29.248655      12382.217    
      4300   543.7974       0.00215        0.034926837    0.032139793    0.036842083   -341.83309      729.92558      729.92558      729.92558      3.8889804e+08  1.6311322     -46875838      -46875838       1619.3358     -46874219      -344.70108     -317.19509     -363.60309     -15.677849      30.702154     -29.304429      12405.958    
      4400   543.09034      0.0022         0.035636026    0.032881803    0.03754828    -348.93037      729.962        729.962        729.962        3.8895625e+08  1.6308881     -46875618      -46875618       1617.2303     -46874000      -351.70023     -324.51817     -370.57271     -15.659177      30.560939     -29.365046      12373.936    
      4500   542.24039      0.00225        0.036342602    0.033621747    0.038253896   -356.01034      729.99842      729.99842      729.99842      3.8901447e+08  1.6306441     -46875391      -46875391       1614.6993     -46873776      -358.67359     -331.82084     -377.5366      -15.63852       30.427858     -29.429876      12238.308    
      4600   541.25949      0.0023         0.037046438    0.034359561    0.038959145   -363.0731       730.03484      730.03484      730.03484      3.8907269e+08  1.6304        -46875158      -46875158       1611.7783     -46873547      -365.61992     -339.1025      -384.49687     -15.616247      30.302702     -29.498309      12361.541    
      4700   540.15907      0.00235        0.037747438    0.035095203    0.039664214   -370.11877      730.07125      730.07125      730.07125      3.8913092e+08  1.6301561     -46874920      -46874920       1608.5015     -46873311      -372.53824     -346.36272     -391.45535     -15.593252      30.185177     -29.569736      12369.878    
      4800   538.95007      0.0024         0.038445616    0.035828566    0.040369243   -377.14755      730.10767      730.10767      730.10767      3.8918916e+08  1.6299121     -46874675      -46874675       1604.9013     -46873070      -379.42873     -353.60046     -398.41345     -15.570372      30.074944     -29.643454      12332.853    
      4900   537.64289      0.00245        0.039141066    0.036559517    0.041074387   -384.15978      730.14409      730.14409      730.14409      3.892474e+08   1.6296683     -46874424      -46874424       1601.0087     -46872823      -386.29229     -360.81438     -405.37268     -15.548038      29.9717       -29.718698      12296.525    
      5000   536.24739      0.0025         0.039833906    0.03728795     0.041779797   -391.15603      730.18051      730.18051      730.18051      3.8930565e+08  1.6294244     -46874166      -46874166       1596.8532     -46872570      -393.13009     -368.00345     -412.33454     -15.526513      29.875014     -29.794788      9441.519     
      5100   534.77285      0.00255        0.040524325    0.038013838    0.042485653   -398.1374       730.21693      730.21693      730.21693      3.893639e+08   1.6291806     -46873903      -46873903       1592.4622     -46872311      -399.94399     -375.16741     -419.30079     -15.505778      29.784174     -29.871072      12249.463    
      5200   533.22797      0.0026         0.04121256     0.038737174    0.043192127   -405.10523      730.25334      730.25334      730.25334      3.8942216e+08  1.6289369     -46873634      -46873634       1587.8618     -46872046      -406.73635     -382.30618     -426.27315     -15.485954      29.698156     -29.946507      12311.561    
      5300   531.6209       0.00265        0.041898896    0.039457965    0.043899371   -412.06097      730.28976      730.28976      730.28976      3.8948043e+08  1.6286932     -46873358      -46873358       1583.0763     -46871775      -413.50995     -389.41983     -433.25311     -15.467352      29.61611      -30.020069      12312.37     
      5400   529.95922      0.0027         0.042583647    0.040176135    0.044607467   -419.00567      730.32618      730.32618      730.32618      3.895387e+08   1.6284496     -46873077      -46873077       1578.1281     -46871498      -420.26792     -396.50763     -440.24147     -15.449937      29.537339     -30.090926      12370.149    
      5500   528.25004      0.00275        0.043267179    0.040891564    0.045316467   -425.94032      730.3626       730.3626       730.3626       3.8959697e+08  1.628206      -46872789      -46872789       1573.0384     -46871216      -427.01386     -403.56836     -447.23875     -15.433743      29.461536     -30.158389      12364.311    
      5600   526.49993      0.0028         0.043949942    0.041604222    0.046026481   -432.86667      730.39902      730.39902      730.39902      3.8965526e+08  1.6279625     -46872495      -46872495       1567.8269     -46870927      -433.75221     -410.60174     -454.24605     -15.418745      29.388364     -30.221911      12354.248    
      5700   524.71496      0.00285        0.04463249     0.042314172    0.046737649   -439.78719      730.43543      730.43543      730.43543      3.8971354e+08  1.627719      -46872195      -46872195       1562.5115     -46870633      -440.48843     -417.60841     -461.26473     -15.405229      29.317396     -30.281008      12368.842    
      5800   522.90066      0.0029         0.045315383    0.043021606    0.047450148   -446.70495      730.47185      730.47185      730.47185      3.8977184e+08  1.6274755     -46871889      -46871889       1557.1089     -46870332      -447.22806     -424.59024     -468.29655     -15.393865      29.248332     -30.335185      12320.691    
      5900   521.0621       0.00295        0.045999153    0.043726769    0.048164128   -453.623        730.50827      730.50827      730.50827      3.8983014e+08  1.6272322     -46871577      -46871577       1551.634      -46870026      -453.97635     -431.54966     -475.34298     -15.38532       29.180977     -30.383892      12315.171    
      6000   519.20386      0.003          0.046684297    0.044429912    0.048879726   -460.54424      730.54469      730.54469      730.54469      3.8988844e+08  1.6269888     -46871259      -46871259       1546.1004     -46869713      -460.73819     -438.48914     -482.40539     -15.380419      29.115037     -30.426548      12341.92     
      6100   517.33014      0.00305        0.047371202    0.045131194    0.049596968   -467.47056      730.58111      730.58111      730.58111      3.8994675e+08  1.6267455     -46870935      -46870935       1540.5208     -46869394      -467.51742     -445.41026     -489.48402     -15.380104      29.050403     -30.462883      12318.035    
      6200   515.44479      0.0031         0.048060193    0.045830783    0.050315742   -474.40322      730.61752      730.61752      730.61752      3.9000507e+08  1.6265023     -46870605      -46870605       1534.9066     -46869070      -474.31722     -452.31466     -496.57777     -15.385574      28.986921     -30.492819      12332.719    
      6300   513.55138      0.00315        0.048751483    0.04652879     0.051035813   -481.3425       730.65394      730.65394      730.65394      3.9006339e+08  1.6262591     -46870268      -46870268       1529.2683     -46868739      -481.13973     -459.20346     -503.68431     -15.398346      28.924334     -30.516461      12333.878    
      6400   511.65318      0.0032         0.049445244    0.047225261    0.051756925   -488.28828      730.69036      730.69036      730.69036      3.9012172e+08  1.6260159     -46869926      -46869926       1523.6158     -46868402      -487.98662     -466.07708     -510.80113     -15.419805      28.862534     -30.534264      12323.532    
      6500   509.75326      0.00325        0.050141605    0.047920268    0.052478864   -495.24052      730.72678      730.72678      730.72678      3.9018006e+08  1.6257728     -46869577      -46869577       1517.9582     -46868059      -494.85916     -472.93628     -517.92611     -15.450706      28.80133      -30.546073      12343.431    
      6600   507.85441      0.0033         0.050840598    0.048613914    0.053201401   -502.19891      730.7632       730.7632       730.7632       3.902384e+08   1.6255298     -46869222      -46869222       1512.3037     -46867710      -501.75769     -479.78202     -525.057       -15.491862      28.740586     -30.55184       12249.64     
      6700   505.95923      0.00335        0.051542187    0.049306329    0.053924299   -509.16297      730.79961      730.79961      730.79961      3.9029674e+08  1.6252868     -46868861      -46868861       1506.6602     -46867355      -508.68183     -486.61563     -532.19146     -15.543953      28.680175     -30.551991      12382.628    
      6800   504.07015      0.0034         0.052246262    0.0499976      0.054647281   -516.13173      730.83603      730.83603      730.83603      3.9035509e+08  1.6250438     -46868494      -46868494       1501.0348     -46866993      -515.63051     -493.43795     -539.32673     -15.607266      28.619946     -30.547108      12341.658    
      6900   502.18946      0.00345        0.0529526      0.050687743    0.055370075   -523.10361      730.87245      730.87245      730.87245      3.9041345e+08  1.6248009     -46868121      -46868121       1495.4345     -46866625      -522.60153     -500.24913     -546.46015     -15.682218      28.55944      -30.537828      12060.138    
      7000   500.31936      0.0035         0.05366083     0.051376758    0.056092433   -530.07655      730.90887      730.90887      730.90887      3.9047182e+08  1.6245581     -46867741      -46867741       1489.8656     -46866251      -529.59121     -507.04918     -553.58927     -15.768907      28.498036     -30.525046      12388.491    
      7100   498.46194      0.00355        0.054370581    0.05206475     0.056814081   -537.04881      730.94529      730.94529      730.94529      3.9053019e+08  1.6243152     -46867356      -46867356       1484.3345     -46865871      -536.59592     -513.83913     -560.71138     -15.86699       28.435262     -30.509607      12372.769    
      7200   496.61921      0.0036         0.055081499    0.052751913    0.057534698   -544.01878      730.9817       730.9817       730.9817       3.9058856e+08  1.6240725     -46866964      -46866964       1478.8472     -46865485      -543.61213     -520.6209      -567.82332     -15.975489      28.370922     -30.492272      12407.374    
      7300   494.79304      0.00365        0.055793246    0.053438477    0.058254018   -550.98525      731.01812      731.01812      731.01812      3.9064694e+08  1.6238298     -46866566      -46866566       1473.4092     -46865093      -550.63653     -527.39676     -574.92246     -16.093014      28.304742     -30.473872      12432.125    
      7400   492.98515      0.0037         0.056505496    0.054124662    0.058971879   -557.94732      731.05454      731.05454      731.05454      3.9070533e+08  1.6235871     -46866162      -46866162       1468.0256     -46864694      -557.66588     -534.16889     -582.00719     -16.217711      28.236702     -30.45527       12377.676    
      7500   491.1971       0.00375        0.057217943    0.054810655    0.059688221   -564.90441      731.09096      731.09096      731.09096      3.9076372e+08  1.6233445     -46865752      -46865752       1462.7011     -46864289      -564.69719     -540.93911     -589.07694     -16.347483      28.166483     -30.437199      12377.731    
      7600   489.4302       0.0038         0.05793033     0.055496632    0.060403036   -571.85624      731.12738      731.12738      731.12738      3.9082212e+08  1.6231019     -46865335      -46865335       1457.4396     -46863878      -571.72791     -547.70918     -596.13162     -16.480556      28.09362      -30.420109      12366.894    
      7700   487.68558      0.00385        0.058642381    0.056182803    0.061116235   -578.80227      731.16379      731.16379      731.16379      3.9088052e+08  1.6228594     -46864913      -46864913       1452.2444     -46863460      -578.7553      -554.48116     -603.17034     -16.615301      28.017493     -30.404425      12349.07     
      7800   485.96412      0.0039         0.059353802    0.056869351    0.061827659   -585.74163      731.20021      731.20021      731.20021      3.9093893e+08  1.6226169     -46864484      -46864484       1447.1182     -46863037      -585.77648     -561.25686     -610.19155     -16.750113      27.937254     -30.390653      12370.317    
      7900   484.26646      0.00395        0.060064311    0.05755643     0.062537213   -592.67359      731.23663      731.23663      731.23663      3.9099735e+08  1.6223745     -46864049      -46864049       1442.0628     -46862607      -592.78866     -568.0378      -617.19431     -16.88313       27.85214      -30.379505      11910.205    
      8000   482.59298      0.004          0.060773598    0.058244143    0.063244871   -599.59737      731.27305      731.27305      731.27305      3.9105577e+08  1.6221321     -46863608      -46863608       1437.0795     -46862171      -599.78878     -574.825       -624.17835     -17.012398      27.761916     -30.371702      12361.419    
      8100   480.9438       0.00405        0.061481342    0.058932522    0.063950603   -606.51194      731.30947      731.30947      731.30947      3.911142e+08   1.6218898     -46863161      -46863161       1432.1685     -46861729      -606.77367     -581.61877     -631.14338     -17.136129      27.666821     -30.367913      12323.451    
      8200   479.31882      0.0041         0.062187271    0.059621554    0.064654319   -613.41605      731.34588      731.34588      731.34588      3.9117263e+08  1.6216475     -46862708      -46862708       1427.3296     -46861281      -613.74064     -588.41899     -638.08852     -17.252424      27.567273     -30.368502      12320.909    
      8300   477.71779      0.00415        0.062891164    0.060311184    0.065355897   -620.3084       731.3823       731.3823       731.3823       3.9123107e+08  1.6214053     -46862249      -46862249       1422.562      -46860826      -620.68753     -595.2251      -645.01256     -17.359309      27.46409      -30.373222      11981.927    
      8400   476.1403       0.0042         0.063592789    0.061001335    0.066055243   -627.18766      731.41872      731.41872      731.41872      3.9128952e+08  1.6211631     -46861784      -46861784       1417.8645     -46860366      -627.61203     -602.03637     -651.91457     -17.455187      27.358189     -30.381559      12016.383    
      8500   474.58588      0.00425        0.064291922    0.061691862    0.066752227   -634.05218      731.45514      731.45514      731.45514      3.9134797e+08  1.620921      -46861312      -46861312       1413.2357     -46859899      -634.51194     -608.85133     -658.79326     -17.538943      27.250318     -30.392777      12371.531    
      8600   473.05397      0.0043         0.06498839     0.062382556    0.067446657   -640.90008      731.49156      731.49156      731.49156      3.9140642e+08  1.6206789     -46860835      -46860835       1408.6739     -46859426      -641.38555     -615.66796     -665.64675     -17.60955       27.141151     -30.405918      12395.07     
      8700   471.54394      0.00435        0.065681956    0.063073169    0.068138323   -647.72908      731.52797      731.52797      731.52797      3.9146489e+08  1.6204369     -46860352      -46860352       1404.1773     -46858947      -648.2305      -622.48378     -672.47296     -17.666018      27.031238     -30.420084      12401.649    
      8800   470.05516      0.0044         0.0663723      0.063763403    0.068826988   -654.53636      731.56439      731.56439      731.56439      3.9152336e+08  1.6201949     -46859862      -46859862       1399.744      -46858462      -655.04367     -629.29586     -679.26956     -17.707954      26.920583     -30.434607      12408.012    
      8900   468.58708      0.00445        0.067059056    0.064452913    0.069512328   -661.31852      731.60081      731.60081      731.60081      3.9158183e+08  1.6199529     -46859366      -46859366       1395.3723     -46857971      -661.82142     -636.1008      -686.03334     -17.735654      26.809079     -30.448715      12390.424    
      9000   467.13932      0.0045         0.067741924    0.065141326    0.070194041   -668.07234      731.63723      731.63723      731.63723      3.9164031e+08  1.619711      -46858865      -46858865       1391.0611     -46857474      -668.56081     -642.8949      -692.76132     -17.749614      26.696422     -30.46177       12365.429    
      9100   465.7116       0.00455        0.068420733    0.065828309    0.070871989   -674.79572      731.67365      731.67365      731.67365      3.916988e+08   1.6194692     -46858357      -46858357       1386.8096     -46856970      -675.26013     -649.67489     -699.45215     -17.7505        26.58212      -30.473013      12316.709    
      9200   464.30371      0.0046         0.0690954      0.066513611    0.071546183   -681.4876       731.71006      731.71006      731.71006      3.9175729e+08  1.6192274     -46857843      -46857843       1382.6172     -46856461      -681.91858     -656.4383      -706.10592     -17.739633      26.465639     -30.481662      12356.876    
      9300   462.91553      0.00465        0.069765905    0.067196988    0.072216723   -688.14743      731.74648      731.74648      731.74648      3.9181578e+08  1.6189857     -46857324      -46857324       1378.4834     -46855945      -688.53595     -663.18271     -712.72364     -17.718612      26.346744     -30.486969      12368.419    
      9400   461.54696      0.0047         0.070432256    0.067878227    0.072883805   -694.77519      731.7829       731.7829       731.7829       3.9187429e+08  1.618744      -46856798      -46856798       1374.408      -46855423      -695.11232     -669.90602     -719.30723     -17.689219      26.225362     -30.488396      12319.281    
      9500   460.19796      0.00475        0.071094381    0.068557113    0.073547576   -701.37041      731.81932      731.81932      731.81932      3.919328e+08   1.6185023     -46856266      -46856266       1370.3909     -46854896      -701.64698     -676.6061      -725.85814     -17.653308      26.101278     -30.485885      12342.785    
      9600   458.86855      0.0048         0.071752154    0.069233412    0.074208082   -707.93206      731.85574      731.85574      731.85574      3.9199131e+08  1.6182607     -46855728      -46855728       1366.4322     -46854362      -708.1387      -683.28065     -732.37682     -17.612957      25.974135     -30.479644      12346.174    
      9700   457.55883      0.00485        0.072405571    0.069907025    0.074865431   -714.46016      731.89215      731.89215      731.89215      3.9204983e+08  1.6180191     -46855184      -46855184       1362.5321     -46853822      -714.58743     -689.9287      -738.86436     -17.570533      25.843488     -30.470124      12337.62     
      9800   456.26886      0.0049         0.073054821    0.070578006    0.07551988    -720.95635      731.92857      731.92857      731.92857      3.9210836e+08  1.6177776     -46854635      -46854635       1358.6908     -46853276      -720.99502     -696.55077     -745.32326     -17.528293      25.709328     -30.458081      12337.498    
      9900   454.99863      0.00495        0.073700155    0.071246488    0.07617172    -727.42286      731.96499      731.96499      731.96499      3.9216689e+08  1.6175362     -46854079      -46854079       1354.9082     -46852724      -727.36397     -703.14817     -751.75643     -17.48799       25.571508     -30.444615      12380.319    
     10000   453.74802      0.005          0.074341771    0.071912583    0.076821203   -733.86152      732.00141      732.00141      732.00141      3.9222543e+08  1.6172948     -46853518      -46853518       1351.1841     -46852166      -733.69624     -709.72201     -758.16633     -17.451048      25.429315     -30.430831      12380.208    
     10100   452.51689      0.00505        0.074979808    0.072576379    0.077468521   -740.27373      732.03782      732.03782      732.03782      3.9228397e+08  1.6170534     -46852950      -46852950       1347.518      -46851603      -739.99317     -716.27317     -764.55486     -17.418833      25.282116     -30.417334      12328.699    
     10200   451.30504      0.0051         0.075614407    0.073237915    0.078113898   -746.66081      732.07424      732.07424      732.07424      3.9234252e+08  1.6168121     -46852377      -46852377       1343.9094     -46851033      -746.25618     -722.80203     -770.92424     -17.392558      25.13008      -30.404439      12388.367    
     10300   450.1123       0.00515        0.076245676    0.073897162    0.078757568   -753.02379      732.11066      732.11066      732.11066      3.9240108e+08  1.6165708     -46851798      -46851798       1340.3576     -46850457      -752.48632     -729.30828     -777.27677     -17.373289      24.973621     -30.392608      12350.772    
     10400   448.93844      0.0052         0.07687375     0.074554164    0.079399746   -759.36396      732.14708      732.14708      732.14708      3.9245964e+08  1.6163296     -46851213      -46851213       1336.862      -46849876      -758.68493     -735.79239     -783.61457     -17.361885      24.813236     -30.382025      12401.389    
     10500   447.78322      0.00525        0.077498893    0.075209091    0.080040628   -765.6834       732.1835       732.1835       732.1835       3.9251821e+08  1.6160884     -46850622      -46850622       1333.422      -46849289      -764.85461     -742.25602     -789.93958     -17.359065      24.64963      -30.372473      12335.244    
     10600   446.64636      0.0053         0.078121362    0.07586215     0.080680337   -771.98404      732.21991      732.21991      732.21991      3.9257678e+08  1.6158473     -46850026      -46850026       1330.0366     -46848696      -770.9979      -748.70121     -796.25301     -17.365552      24.483301     -30.363552      12295.801    
     10700   445.52757      0.00535        0.078741374    0.076513468    0.081318917   -778.26716      732.25633      732.25633      732.25633      3.9263536e+08  1.6156062     -46849423      -46849423       1326.705      -46848097      -777.11694     -755.12922     -802.55532     -17.381631      24.314438     -30.354914      12282.913    
     10800   444.42658      0.0054         0.079359122    0.077163094    0.081956364   -784.53353      732.29275      732.29275      732.29275      3.9269394e+08  1.6153652     -46848816      -46848816       1323.4265     -46847492      -783.21364     -761.54053     -808.84642     -17.407223      24.143111     -30.346045      12344.44     
     10900   443.3431       0.00545        0.079974773    0.077811047    0.082592618   -790.78357      732.32917      732.32917      732.32917      3.9275254e+08  1.6151242     -46848202      -46848202       1320.2001     -46846882      -789.28964     -767.93533     -815.12576     -17.442407      23.969387     -30.336909      12348.939    
     11000   442.2769       0.0055         0.080588553    0.078457301    0.083227632   -797.0178       732.36559      732.36559      732.36559      3.9281113e+08  1.6148833     -46847583      -46847583       1317.0251     -46846266      -795.34718     -774.31336     -821.39286     -17.486799      23.793387     -30.327972      12347.737    
     11100   441.22773      0.00555        0.081200725    0.079101869    0.083861354   -803.23694      732.402        732.402        732.402        3.9286973e+08  1.6146424     -46846959      -46846959       1313.9008     -46845645      -801.38884     -780.67475     -827.64722     -17.539476      23.615152     -30.319908      12349.867    
     11200   440.19537      0.0056         0.0818116      0.079744856    0.084493747   -809.44223      732.43842      732.43842      732.43842      3.9292834e+08  1.6144016     -46846329      -46846329       1310.8266     -46845018      -807.41771     -787.02054     -833.88845     -17.599492      23.434779     -30.313287      12342.158    
     11300   439.17956      0.00565        0.082421478    0.080386408    0.085124795   -815.63511      732.47484      732.47484      732.47484      3.9298696e+08  1.6141608     -46845693      -46845693       1307.8017     -46844385      -813.43674     -793.35217     -840.11641     -17.665642      23.252559     -30.308199      12319.844    
     11400   438.18004      0.0057         0.083030602    0.081026718    0.085754533   -821.8171       732.51126      732.51126      732.51126      3.9304558e+08  1.61392       -46845052      -46845052       1304.8253     -46843747      -819.44833     -799.67153     -846.33143     -17.73669       23.068871     -30.304239      12337.551    
     11500   437.19647      0.00575        0.083639168    0.08166603     0.086382986   -827.98975      732.54768      732.54768      732.54768      3.931042e+08   1.6136794     -46844405      -46844405       1301.8964     -46843103      -825.45441     -805.98105     -852.53379     -17.811528      22.884091     -30.300934      12324.738    
     11600   436.22849      0.0058         0.084247353    0.082304574    0.087010153   -834.15439      732.58409      732.58409      732.58409      3.9316283e+08  1.6134387     -46843753      -46843753       1299.014      -46842454      -831.45673     -812.28299     -858.72344     -17.889052      22.698936     -30.297545      12373.461    
     11700   435.27572      0.00585        0.084855256    0.082942459    0.087636018   -840.31165      732.62051      732.62051      732.62051      3.9322147e+08  1.6131981     -46843095      -46843095       1296.1768     -46841799      -837.45627     -818.57842     -864.90025     -17.968254      22.514383     -30.292946      12345.892    
     11800   434.33777      0.0059         0.085462896    0.083579728    0.088260481   -846.4614       732.65693      732.65693      732.65693      3.9328011e+08  1.6129576     -46842432      -46842432       1293.3837     -46841138      -843.4532      -824.86779     -871.06322     -18.048013      22.331232     -30.285945      12404.604    
     11900   433.41429      0.00595        0.086070279    0.084216413    0.088883439   -852.60344      732.69335      732.69335      732.69335      3.9333876e+08  1.6127171     -46841763      -46841763       1290.6338     -46840472      -849.44761     -831.15137     -877.21134     -18.127132      22.149716     -30.275391      12412.646    
     12000   432.50495      0.006          0.086677393    0.08485255     0.089504849   -858.7377       732.72977      732.72977      732.72977      3.9339742e+08  1.6124766     -46841089      -46841089       1287.9259     -46839801      -855.43936     -837.42956     -883.34418     -18.204299      21.969799     -30.260762      12372.494    
     12100   431.60943      0.00605        0.087284171    0.085488113    0.090124613   -864.86355      732.76618      732.76618      732.76618      3.9345608e+08  1.6122362     -46840409      -46840409       1285.2592     -46839124      -861.42779     -843.70208     -889.46077     -18.278372      21.791174     -30.242401      12359.674    
     12200   430.7275       0.0061         0.087890543    0.086123012    0.090742594   -870.98001      732.8026       732.8026       732.8026       3.9351474e+08  1.6119958     -46839724      -46839724       1282.6329     -46838441      -867.41221     -849.96805     -895.55977     -18.348518      21.613526     -30.221002      12362.552    
     12300   429.85894      0.00615        0.088496447    0.086757089    0.091358664   -877.08594      732.83902      732.83902      732.83902      3.9357342e+08  1.6117555     -46839033      -46839033       1280.0465     -46837753      -873.39203     -856.22589     -901.63991     -18.413948      21.436603     -30.197656      12339.894    
     12400   429.0036       0.0062         0.089101792    0.087390092    0.091972691   -883.17979      732.87544      732.87544      732.87544      3.9363209e+08  1.6115153     -46838336      -46838336       1277.4995     -46837059      -879.36631     -862.47315     -907.69989     -18.474047      21.260616     -30.173725      12334.677    
     12500   428.1614       0.00625        0.089706478    0.088021818    0.092584617   -889.26034      732.91186      732.91186      732.91186      3.9369078e+08  1.6112751     -46837635      -46837635       1274.9915     -46836360      -885.3341      -868.7078      -913.73913     -18.52821       21.086012     -30.150426      12342.179    
     12600   427.33232      0.0063         0.090310451    0.088652193    0.093194426   -895.32715      732.94827      732.94827      732.94827      3.9374947e+08  1.6110349     -46836928      -46836928       1272.5227     -46835655      -891.29486     -874.92912     -919.75747     -18.576011      20.913047     -30.128919      12337.736    
     12700   426.51639      0.00635        0.090913671    0.08928122     0.093802156   -901.3802       732.98469      732.98469      732.98469      3.9380816e+08  1.6107948     -46836215      -46836215       1270.093      -46834945      -897.24817     -881.13713     -925.7553      -18.617264      20.74199      -30.110285      12365.409    
     12800   425.71367      0.0064         0.091516054    0.089908908    0.094407874   -907.41948      733.02111      733.02111      733.02111      3.9386687e+08  1.6105547     -46835497      -46835497       1267.7026     -46834229      -903.19323     -887.33193     -931.73327     -18.652127      20.573427     -30.095758      12345.557    
     12900   424.9243       0.00645        0.092117528    0.090535297    0.095011718   -913.44533      733.05753      733.05753      733.05753      3.9392557e+08  1.6103147     -46834773      -46834773       1265.352      -46833508      -909.12932     -893.51392     -937.69275     -18.680636      20.408081     -30.086641      12342.726    
     13000   424.1484       0.0065         0.092718065    0.091160502    0.095613888   -919.45869      733.09395      733.09395      733.09395      3.9398429e+08  1.6100747     -46834045      -46834045       1263.0415     -46832782      -915.05616     -899.6842      -943.6357      -18.702574      20.246505     -30.083678      12329.026    
     13100   423.38608      0.00655        0.093317673    0.091784668    0.096214655   -925.46096      733.13036      733.13036      733.13036      3.94043e+08    1.6098348     -46833310      -46833310       1260.7715     -46832050      -920.97382     -905.84424     -949.56482     -18.717722      20.089024     -30.087077      12406.565    
     13200   422.63744      0.0066         0.093916331    0.09240786     0.096814277   -931.45314      733.16678      733.16678      733.16678      3.9410173e+08  1.6095949     -46832571      -46832571       1258.5421     -46831312      -926.88213     -911.99467     -955.48262     -18.72568       19.936239     -30.097112      12355.638    
     13300   421.90256      0.00665        0.094514017    0.093030071    0.09741296    -937.43581      733.2032       733.2032       733.2032       3.9416046e+08  1.6093551     -46831826      -46831826       1256.3538     -46830569      -932.78083     -918.13542     -961.39117     -18.726208      19.788831     -30.114049      12405.697    
     13400   421.18153      0.0067         0.095110716    0.093651272    0.09801088    -943.40939      733.23962      733.23962      733.23962      3.942192e+08   1.6091153     -46831076      -46831076       1254.2067     -46829821      -938.66979     -924.2662      -967.29218     -18.719137      19.647243     -30.138073      12412.558    
     13500   420.47444      0.00675        0.095706452    0.094271415    0.098608235   -949.37447      733.27604      733.27604      733.27604      3.9427794e+08  1.6088755     -46830320      -46830320       1252.1011     -46829068      -944.54925     -930.38653     -973.18762     -18.704802      19.511784     -30.169057      12449.243    
     13600   419.7814       0.0068         0.096301342    0.094890464    0.09920521    -955.33191      733.31245      733.31245      733.31245      3.9433669e+08  1.6086359     -46829559      -46829559       1250.0373     -46828309      -950.42035     -936.49607     -979.0793      -18.683916      19.382649     -30.206206      12413.782    
     13700   419.10249      0.00685        0.096895551    0.095508341    0.099801899   -961.28231      733.34887      733.34887      733.34887      3.9439544e+08  1.6083962     -46828793      -46828793       1248.0157     -46827545      -956.28474     -942.59404     -984.96816     -18.657079      19.259776     -30.247996      12343.989    
     13800   418.43776      0.0069         0.097489234    0.096124897    0.10039834    -967.22583      733.38529      733.38529      733.38529      3.944542e+08   1.6081566     -46828022      -46828022       1246.0362     -46826776      -962.14393     -948.67897     -990.8546      -18.624988      19.143125     -30.292643      12298.418    
     13900   417.78722      0.00695        0.098082553    0.096739945    0.10099467    -973.16281      733.42171      733.42171      733.42171      3.9451297e+08  1.6079171     -46827246      -46827246       1244.099      -46826001      -967.99954     -954.74903     -996.73986     -18.588049      19.032988     -30.338402      12349.311    
     14000   417.15084      0.007          0.098675686    0.09735335     0.10159103    -979.09391      733.45813      733.45813      733.45813      3.9457174e+08  1.6076776     -46826464      -46826464       1242.204      -46825222      -973.8533      -960.80286     -1002.6256     -18.546402      18.929994     -30.383773      12359.873    
     14100   416.52855      0.00705        0.099268757    0.097965062    0.10218753    -985.01965      733.49454      733.49454      733.49454      3.9463051e+08  1.6074381     -46825677      -46825677       1240.3509     -46824437      -979.70646     -966.83999     -1008.5125     -18.500225      18.835129     -30.427731      12348.803    
     14200   415.92019      0.0071         0.099861864    0.098575041    0.10278418    -990.94033      733.53096      733.53096      733.53096      3.946893e+08   1.6071987     -46824885      -46824885       1238.5393     -46823646      -985.55997     -972.86002     -1014.401      -18.449953      18.749388     -30.469203      12377.051    
     14300   415.32559      0.00715        0.10045502     0.099183225    0.10338095    -996.85566      733.56738      733.56738      733.56738      3.9474809e+08  1.6069594     -46824087      -46824087       1236.7687     -46822851      -991.41401     -978.86232     -1020.2907     -18.395916      18.673328     -30.50692       12363.657    
     14400   414.74452      0.0072         0.10104825     0.099789523    0.10397776    -1002.7651      733.6038       733.6038       733.6038       3.9480688e+08  1.6067201     -46823285      -46823285       1235.0384     -46822050      -997.26867     -984.84602     -1026.1807     -18.338453      18.607222     -30.539985      12359.172    
     14500   414.17675      0.00725        0.10164152     0.1003939      0.10457453    -1008.6683      733.64022      733.64022      733.64022      3.9486568e+08  1.6064808     -46822477      -46822477       1233.3476     -46821244      -1003.1238     -990.81076     -1032.0704     -18.278213      18.55072      -30.568318      12379.87     
     14600   413.62197      0.0073         0.1022349      0.10099641     0.10517128    -1014.5656      733.67663      733.67663      733.67663      3.9492449e+08  1.6062416     -46821664      -46821664       1231.6956     -46820433      -1008.98       -996.75708     -1037.9598     -18.215386      18.502844     -30.592237      12335.077    
     14700   413.07984      0.00735        0.10282855     0.10159714     0.10576802    -1020.458       733.71305      733.71305      733.71305      3.949833e+08   1.6060024     -46820846      -46820846       1230.0812     -46819616      -1014.8389     -1002.6858     -1043.8492     -18.150133      18.462364     -30.612522      12353.622    
     14800   412.54992      0.0074         0.10342262     0.1021962      0.10636471    -1026.346       733.74947      733.74947      733.74947      3.9504212e+08  1.6057633     -46820023      -46820023       1228.5032     -46818795      -1020.7019     -1008.5981     -1049.738      -18.082897      18.428131     -30.630291      12331.908    
     14900   412.03173      0.00745        0.10401715     0.10279365     0.10696124    -1032.2298      733.78589      733.78589      733.78589      3.9510094e+08  1.6055242     -46819195      -46819195       1226.9601     -46817968      -1026.5695     -1014.4945     -1055.6254     -18.013848      18.399383     -30.64626       12386.285    
     15000   411.52475      0.0075         0.10461218     0.10338959     0.10755758    -1038.1095      733.82231      733.82231      733.82231      3.9515977e+08  1.6052852     -46818361      -46818361       1225.4504     -46817136      -1032.4419     -1020.376      -1061.5108     -17.942886      18.3755       -30.660806      12409.413    
     15100   411.0284       0.00755        0.10520774     0.10398413     0.10815371    -1043.9858      733.85872      733.85872      733.85872      3.9521861e+08  1.6050462     -46817522      -46817522       1223.9724     -46816298      -1038.3197     -1026.2436     -1067.3941     -17.870268      18.355541     -30.673874      12346.144    
     15200   410.54211      0.0076         0.10580392     0.10457737     0.10874965    -1049.8592      733.89514      733.89514      733.89514      3.9527745e+08  1.6048073     -46816678      -46816678       1222.5243     -46815456      -1044.2035     -1032.0984     -1073.2756     -17.796581      18.338567     -30.685465      12325.927    
     15300   410.06526      0.00765        0.10640074     0.10516941     0.10934544    -1055.7302      733.93156      733.93156      733.93156      3.953363e+08   1.6045684     -46815829      -46815829       1221.1043     -46814608      -1050.0937     -1037.9414     -1079.1556     -17.722453      18.32402      -30.695894      12319.269    
     15400   409.59718      0.0077         0.10699823     0.10576036     0.10994117    -1061.5997      733.96798      733.96798      733.96798      3.9539515e+08  1.6043296     -46814974      -46814974       1219.7105     -46813755      -1055.9905     -1043.7736     -1085.035      -17.649085      18.311508     -30.70547       12326.605    
     15500   409.13715      0.00775        0.10759643     0.10635027     0.11053685    -1067.4679      734.0044       734.0044       734.0044       3.9545401e+08  1.6040908     -46814115      -46814115       1218.3406     -46812896      -1061.8942     -1049.5955     -1090.9139     -17.577559      18.300443     -30.714391      12344.641    
     15600   408.6844       0.0078         0.10819539     0.10693919     0.11113244    -1073.3351      734.04081      734.04081      734.04081      3.9551287e+08  1.6038521     -46813250      -46813250       1216.9924     -46812033      -1067.8055     -1055.4078     -1096.7919     -17.508827      18.290477     -30.722858      12345.149    
     15700   408.23816      0.00785        0.1087951      0.10752716     0.1117279     -1079.2011      734.07723      734.07723      734.07723      3.9557174e+08  1.6036134     -46812380      -46812380       1215.6635     -46811164      -1073.7241     -1061.2106     -1102.6687     -17.444232      18.281413     -30.731158      12329.012    
     15800   407.79771      0.0079         0.1093954      0.10811421     0.11232318    -1085.0655      734.11365      734.11365      734.11365      3.9563062e+08  1.6033747     -46811504      -46811504       1214.3519     -46810290      -1079.6486     -1067.0043     -1108.5436     -17.385564      18.272641     -30.739669      12318.297    
     15900   407.36238      0.00795        0.10999605     0.10870034     0.1129182     -1090.9272      734.15007      734.15007      734.15007      3.956895e+08   1.6031361     -46810624      -46810624       1213.0556     -46809411      -1085.5767     -1072.7889     -1114.416      -17.334162      18.263366     -30.748584      12338.733    
     16000   406.93163      0.008          0.11059674     0.10928548     0.11351284    -1096.7845      734.18649      734.18649      734.18649      3.9574839e+08  1.6028976     -46809738      -46809738       1211.7729     -46808526      -1091.505      -1078.5639     -1120.2846     -17.290784      18.253139     -30.757908      12344.938    
     16100   406.505        0.00805        0.11119718     0.10986959     0.11410706    -1102.6362      734.2229       734.2229       734.2229       3.9580729e+08  1.6026591     -46808847      -46808847       1210.5025     -46807636      -1097.4309     -1084.3285     -1126.1491     -17.256041      18.241739     -30.767634      12326.813    
     16200   406.08211      0.0081         0.11179716     0.11045264     0.11470081    -1108.4814      734.25932      734.25932      734.25932      3.9586619e+08  1.6024206     -46807951      -46807951       1209.2432     -46806741      -1103.3522     -1090.0828     -1132.009      -17.230548      18.229078     -30.778045      12357.263    
     16300   405.66266      0.00815        0.11239645     0.11103458     0.11529399    -1114.3187      734.29574      734.29574      734.29574      3.9592509e+08  1.6021822     -46807049      -46807049       1207.9941     -46805841      -1109.2668     -1095.8261     -1137.8632     -17.214594      18.215144     -30.789387      12342.423    
     16400   405.24646      0.0082         0.11299473     0.11161533     0.1158864     -1120.1462      734.33216      734.33216      734.33216      3.95984e+08    1.6019438     -46806142      -46806142       1206.7547     -46804935      -1115.1713     -1101.5576     -1143.7098     -17.208538      18.199648     -30.801615      12317.604    
     16500   404.83343      0.00825        0.11359158     0.11219482     0.11647784    -1125.9618      734.36858      734.36858      734.36858      3.9604292e+08  1.6017055     -46805230      -46805230       1205.5248     -46804025      -1121.0618     -1107.2768     -1149.5469     -17.212487      18.182        -30.814432      12308.176    
     16600   404.42365      0.0083         0.11418654     0.11277296     0.11706807    -1131.7627      734.40499      734.40499      734.40499      3.9610184e+08  1.6014673     -46804313      -46804313       1204.3046     -46803109      -1126.9336     -1112.9825     -1155.3721     -17.226145      18.161657     -30.827672      12258.393    
     16700   404.01728      0.00835        0.11477923     0.11334961     0.11765691    -1137.5467      734.44141      734.44141      734.44141      3.9616077e+08  1.601229      -46803391      -46803391       1203.0945     -46802188      -1132.783      -1118.6737     -1161.1834     -17.249352      18.138027     -30.841297      12332.505    
     16800   403.61459      0.0084         0.1153694      0.11392466     0.1182442     -1143.312       734.47783      734.47783      734.47783      3.9621971e+08  1.6009909     -46802463      -46802463       1201.8953     -46801261      -1138.6074     -1124.349      -1166.9795     -17.281876      18.110241     -30.854951      12309.682    
     16900   403.21592      0.00845        0.11595675     0.11449796     0.11882977    -1149.0566      734.51425      734.51425      734.51425      3.9627865e+08  1.6007527     -46801531      -46801531       1200.7082     -46800330      -1144.4042     -1130.007      -1172.7587     -17.323498      18.077177     -30.868316      12331.592    
     17000   402.82167      0.0085         0.11654102     0.11506931     0.11941339    -1154.7783      734.55067      734.55067      734.55067      3.963376e+08   1.6005147     -46800593      -46800593       1199.5341     -46799393      -1150.1704     -1135.6458     -1178.5186     -17.37363       18.037255     -30.881216      12331.591    
     17100   402.43231      0.00855        0.11712199     0.11563854     0.11999484    -1160.475       734.58708      734.58708      734.58708      3.9639655e+08  1.6002766     -46799650      -46799650       1198.3747     -46798452      -1155.9042     -1141.2637     -1184.257      -17.431175      17.989194     -30.893523      12347.792    
     17200   402.04838      0.0086         0.11769952     0.11620546     0.12057394    -1166.145       734.6235       734.6235       734.6235       3.9645551e+08  1.6000387     -46798703      -46798703       1197.2314     -46797505      -1161.6039     -1146.8588     -1189.9723     -17.495075      17.932345     -30.905179      12347.423    
     17300   401.67044      0.00865        0.11827354     0.11677        0.12115054    -1171.7874      734.65992      734.65992      734.65992      3.9651447e+08  1.5998007     -46797750      -46797750       1196.106      -46796554      -1167.2691     -1152.4303     -1195.6629     -17.564395      17.866213     -30.915918      12328.754    
     17400   401.2991       0.0087         0.11884411     0.1173322      0.12172445    -1177.4019      734.69634      734.69634      734.69634      3.9657344e+08  1.5995628     -46796792      -46796792       1195.0002     -46795597      -1172.9001     -1157.9788     -1201.3269     -17.637895      17.790531     -30.924939      12363.625    
     17500   400.93494      0.00875        0.1194113      0.11789218     0.12229543    -1182.9884      734.73276      734.73276      734.73276      3.9663242e+08  1.599325      -46795830      -46795830       1193.9158     -46794636      -1178.4979     -1163.5054     -1206.962      -17.714013      17.704997     -30.93125       12315.456    
     17600   400.57847      0.0088         0.11997519     0.11845006     0.12286329    -1188.5469      734.76917      734.76917      734.76917      3.966914e+08   1.5990872     -46794862      -46794862       1192.8543     -46793669      -1184.0631     -1169.0112     -1212.5664     -17.791037      17.609082     -30.934299      12372.687    
     17700   400.23015      0.00885        0.12053584     0.11900598     0.12342793    -1194.0776      734.80559      734.80559      734.80559      3.9675039e+08  1.5988494     -46793890      -46793890       1191.817      -46792698      -1189.5962     -1174.4977     -1218.139      -17.867354      17.502332     -30.93412       12367.872    
     17800   399.89028      0.0089         0.1210933      0.11956013     0.12398933    -1199.5814      734.84201      734.84201      734.84201      3.9680938e+08  1.5986117     -46792912      -46792912       1190.805      -46791722      -1195.0979     -1179.9668     -1223.6796     -17.941133      17.384372     -30.930742      12370.005    
     17900   399.5591       0.00895        0.1216476      0.12011276     0.12454758    -1205.0594      734.87843      734.87843      734.87843      3.9686838e+08  1.5983741     -46791931      -46791931       1189.8188     -46790741      -1200.5685     -1185.4208     -1229.1891     -18.010419      17.255275     -30.924109      12370.701    
     18000   399.23671      0.009          0.1221987      0.12066399     0.12510278    -1210.5123      734.91485      734.91485      734.91485      3.9692738e+08  1.5981365     -46790944      -46790944       1188.8587     -46789755      -1206.0074     -1190.861      -1234.6685     -18.073758      17.115282     -30.914117      12317.461    
     18100   398.92319      0.00905        0.12274658     0.12121403     0.12565506    -1215.941       734.95126      734.95126      734.95126      3.9698639e+08  1.5978989     -46789952      -46789952       1187.9251     -46788764      -1211.4145     -1196.2895     -1240.1191     -18.130376      16.964546     -30.900307      12293.563    
     18200   398.61853      0.0091         0.12329123     0.12176319     0.1262046     -1221.3472      734.98768      734.98768      734.98768      3.9704541e+08  1.5976614     -46788956      -46788956       1187.0179     -46787769      -1216.7899     -1201.7093     -1245.5426     -18.180053      16.803206     -30.882181      12372.797    
     18300   398.32265      0.00915        0.12383274     0.12231183     0.12675159    -1226.733       735.0241       735.0241       735.0241       3.9710443e+08  1.597424      -46787955      -46787955       1186.1368     -46786769      -1222.1341     -1207.1239     -1250.9409     -18.222798      16.631221     -30.859374      12310.492    
     18400   398.03535      0.0092         0.12437115     0.12286034     0.12729623    -1232.1004      735.06052      735.06052      735.06052      3.9716346e+08  1.5971865     -46786949      -46786949       1185.2813     -46785764      -1227.4478     -1212.5373     -1256.3161     -18.258734      16.448466     -30.83164       12326.495    
     18500   397.75636      0.00925        0.12490654     0.12340903     0.12783865    -1237.4512      735.09694      735.09694      735.09694      3.972225e+08   1.5969492     -46785938      -46785938       1184.4505     -46784754      -1232.7317     -1217.9524     -1261.6694     -18.288022      16.255009     -30.799089      12308.306    
     18600   397.48534      0.0093         0.12543897     0.12395811     0.12837901    -1242.7867      735.13335      735.13335      735.13335      3.9728154e+08  1.5967118     -46784923      -46784923       1183.6435     -46783740      -1237.9864     -1223.3714     -1267.0023     -18.31085       16.05136      -30.762246      12317.882    
     18700   397.22193      0.00935        0.12596858     0.12450779     0.1289175     -1248.1088      735.16977      735.16977      735.16977      3.9734058e+08  1.5964746     -46783903      -46783903       1182.8591     -46782720      -1243.2132     -1228.7964     -1272.3168     -18.327874      15.838672     -30.722029      12324.852    
     18800   396.96569      0.0094         0.12649554     0.12505822     0.12945431    -1253.4191      735.20619      735.20619      735.20619      3.9739963e+08  1.5962373     -46782878      -46782878       1182.096      -46781696      -1248.4139     -1234.2286     -1277.6147     -18.339836      15.618595     -30.679251      12330.405    
     18900   396.71618      0.00945        0.12702003     0.12560944     0.12998954    -1258.7187      735.24261      735.24261      735.24261      3.9745869e+08  1.5960002     -46781849      -46781849       1181.353      -46780668      -1253.5902     -1239.6688     -1282.8971     -18.347291      15.393512     -30.63454       12365.869    
     19000   396.47291      0.0095         0.12754227     0.1261614      0.13052323    -1264.0082      735.27903      735.27903      735.27903      3.9751776e+08  1.595763      -46780815      -46780815       1180.6286     -46779634      -1258.7443     -1245.1163     -1288.1642     -18.350944      15.165977     -30.588832      12393.435    
     19100   396.23546      0.00955        0.1280624      0.12671391     0.13105531    -1269.2873      735.31544      735.31544      735.31544      3.9757683e+08  1.5955259     -46779776      -46779776       1179.9215     -46778596      -1263.8776     -1250.5691     -1293.4153     -18.35116       14.938286     -30.543013      12371.206    
     19200   396.00346      0.0096         0.12858052     0.12726675     0.13158572    -1274.5554      735.35186      735.35186      735.35186      3.976359e+08   1.5952889     -46778732      -46778732       1179.2307     -46777553      -1268.991      -1256.0251     -1298.6501     -18.348397      14.712529     -30.498224      12379.054    
     19300   395.77661      0.00965        0.12909671     0.12781975     0.13211456    -1279.8126      735.38828      735.38828      735.38828      3.9769498e+08  1.5950519     -46777684      -46777684       1178.5552     -46776505      -1274.0855     -1261.4828     -1303.8693     -18.343134      14.490846     -30.455602      12387.015    
     19400   395.55464      0.0097         0.12961105     0.12837277     0.13264205    -1285.0592      735.4247       735.4247       735.4247       3.9775407e+08  1.5948149     -46776630      -46776630       1177.8942     -46775452      -1279.1616     -1266.9407     -1309.0752     -18.33602       14.275463     -30.416193      12367.903    
     19500   395.33735      0.00975        0.1301235      0.12892559     0.13316841    -1290.2953      735.46112      735.46112      735.46112      3.9781316e+08  1.594578      -46775572      -46775572       1177.2471     -46774395      -1284.2191     -1272.3967     -1314.2701     -18.327905      14.068699     -30.380987      12313.072    
     19600   395.12459      0.0098         0.13063404     0.12947796     0.13369384    -1295.5205      735.49753      735.49753      735.49753      3.9787226e+08  1.5943412     -46774509      -46774509       1176.6136     -46773333      -1289.2577     -1277.8481     -1319.4556     -18.319789      13.873225     -30.350829      12313.14     
     19700   394.91634      0.00985        0.13114263     0.1300296      0.13421846    -1300.7342      735.53395      735.53395      735.53395      3.9793136e+08  1.5941044     -46773442      -46773442       1175.9934     -46772266      -1294.2771     -1283.2924     -1324.6332     -18.313167      13.691305     -30.326488      12381.639    
     19800   394.71267      0.0099         0.13164925     0.13058021     0.13474241    -1305.9359      735.57037      735.57037      735.57037      3.9799048e+08  1.5938676     -46772369      -46772369       1175.3869     -46771194      -1299.2771     -1288.7265     -1329.8042     -18.30936       13.524476     -30.308335      12319.096    
     19900   394.51372      0.00995        0.13215393     0.13112949     0.1352658     -1311.125       735.60679      735.60679      735.60679      3.9804959e+08  1.5936309     -46771292      -46771292       1174.7945     -46770117      -1304.2578     -1294.1475     -1334.9696     -18.309159      13.374026     -30.296291      12318.524    
     20000   394.31967      0.01           0.13265678     0.1316772      0.13578866    -1316.3011      735.64321      735.64321      735.64321      3.9810871e+08  1.5933942     -46770210      -46770210       1174.2166     -46769036      -1309.2206     -1299.5529     -1340.1299     -18.31326       13.240659     -30.290262      4472.0839    
     20100   394.13067      0.01005        0.133158       0.13222319     0.13631112    -1321.465       735.67962      735.67962      735.67962      3.9816784e+08  1.5931576     -46769124      -46769124       1173.6538     -46767950      -1314.1673     -1304.9414     -1345.2862     -18.322221      13.124609     -30.289926      12265.37     
     20200   393.94689      0.0101         0.13365784     0.13276734     0.13683342    -1326.6176      735.71604      735.71604      735.71604      3.9822698e+08  1.5929211     -46768032      -46768032       1173.1066     -46766859      -1319.1003     -1310.3118     -1350.4408     -18.336734      13.025927     -30.294805      12339.183    
     20300   393.76841      0.01015        0.13415655     0.13330955     0.13735582    -1331.7606      735.75246      735.75246      735.75246      3.9828612e+08  1.5926845     -46766936      -46766936       1172.5751     -46765764      -1324.0222     -1315.663      -1355.5965     -18.357636      12.943992     -30.304364      12345.373    
     20400   393.59529      0.0102         0.1346544      0.13384973     0.13787859    -1336.8952      735.78888      735.78888      735.78888      3.9834526e+08  1.592448      -46765835      -46765835       1172.0596     -46764663      -1328.9356     -1320.9941     -1360.7559     -18.38572       12.8775       -30.317963      12366.664    
     20500   393.42753      0.01025        0.13515164     0.13438788     0.13840191    -1342.023       735.82529      735.82529      735.82529      3.9840441e+08  1.5922116     -46764730      -46764730       1171.56       -46763559      -1333.843      -1326.3053     -1365.9207     -18.421496      12.824614     -30.334879      12321.278    
     20600   393.26512      0.0103         0.13564852     0.13492408     0.13892597    -1347.1456      735.86171      735.86171      735.86171      3.9846357e+08  1.5919752     -46763620      -46763620       1171.0764     -46762449      -1338.7468     -1331.5971     -1371.0927     -18.465049      12.783187     -30.354021      12325        
     20700   393.10803      0.01035        0.13614519     0.13545841     0.13945092    -1352.2642      735.89813      735.89813      735.89813      3.9852273e+08  1.5917389     -46762505      -46762505       1170.6086     -46761335      -1343.6485     -1336.8705     -1376.2736     -18.516023      12.750932     -30.374464      12361.039    
     20800   392.95617      0.0104         0.13664181     0.13599097     0.13997689    -1357.3803      735.93455      735.93455      735.93455      3.985819e+08   1.5915026     -46761386      -46761386       1170.1564     -46760216      -1348.5498     -1342.1265     -1381.4645     -18.574022      12.725617     -30.39543       12345.469    
     20900   392.80942      0.01045        0.13713847     0.13652186     0.14050396    -1362.4946      735.97097      735.97097      735.97097      3.9864108e+08  1.5912664     -46760262      -46760262       1169.7194     -46759093      -1353.4515     -1347.366      -1386.6662     -18.638227      12.705061     -30.416351      12317.226    
     21000   392.66762      0.0105         0.1376353      0.13705118     0.14103216    -1367.608       736.00738      736.00738      736.00738      3.9870026e+08  1.5910302     -46759134      -46759134       1169.2971     -46757965      -1358.3548     -1352.59       -1391.8792     -18.707478      12.687507     -30.436994      12363.25     
     21100   392.53056      0.01055        0.13813249     0.13757905     0.14156153    -1372.7217      736.0438       736.0438       736.0438       3.9875944e+08  1.590794      -46758001      -46758001       1168.889      -46756832      -1363.2617     -1357.7997     -1397.1037     -18.780483      12.671528     -30.457456      12356.374    
     21200   392.39798      0.0106         0.13863018     0.13810562     0.14209202    -1377.8364      736.08022      736.08022      736.08022      3.9881864e+08  1.5905579     -46756863      -46756863       1168.4942     -46755695      -1368.1735     -1362.9965     -1402.3392     -18.855783      12.655586     -30.477551      12337.148    
     21300   392.26958      0.01065        0.13912843     0.13863094     0.14262343    -1382.9519      736.11664      736.11664      736.11664      3.9887783e+08  1.5903218     -46755721      -46755721       1168.1118     -46754553      -1373.0908     -1368.181      -1407.5838     -18.931292      12.638144     -30.496804      12337.347    
     21400   392.14501      0.0107         0.13962719     0.13915506     0.14315547    -1388.0672      736.15306      736.15306      736.15306      3.9893704e+08  1.5900858     -46754574      -46754574       1167.7409     -46753407      -1378.0132     -1373.3537     -1412.8347     -19.004798      12.617611     -30.51477       12342.391    
     21500   392.02396      0.01075        0.14012641     0.13967801     0.14368777    -1393.181       736.18947      736.18947      736.18947      3.9899625e+08  1.5898499     -46753423      -46753423       1167.3804     -46752256      -1382.9401     -1378.5148     -1418.088      -19.073947      12.592184     -30.530996      12387.228    
     21600   391.90615      0.0108         0.14062603     0.14019986     0.14421995    -1398.2921      736.22589      736.22589      736.22589      3.9905546e+08  1.589614      -46752267      -46752267       1167.0296     -46751100      -1387.871      -1383.665      -1423.3403     -19.136354      12.560423     -30.545266      12381.012    
     21700   391.79125      0.01085        0.141126       0.14072068     0.14475174    -1403.3997      736.26231      736.26231      736.26231      3.9911469e+08  1.5893781     -46751107      -46751107       1166.6874     -46749940      -1392.8054     -1388.8052     -1428.5886     -19.189977      12.521523     -30.55678       12371.808    
     21800   391.67896      0.0109         0.14162624     0.14124059     0.14528286    -1408.503       736.29873      736.29873      736.29873      3.9917391e+08  1.5891423     -46749942      -46749942       1166.353      -46748776      -1397.7423     -1393.9363     -1433.8304     -19.23315       12.47486      -30.564837      12324.013    
[...]
    871800   329.43675      0.4359         0.0666727      0.066247246    0.066646173   -656.52149      1045.8516      1045.8516      1045.8516      1.1439582e+09  0.55451689    -34547343      -34547343       981.0064      -34546362      -658.00839     -653.80948     -657.74659     -0.042142659    0.80578788     1.7699935      11940.695    
    871900   329.4448       0.43595        0.066669616    0.066242626    0.066635907   -656.46237      1045.888       1045.888       1045.888       1.1440777e+09  0.55445897    -34546218      -34546218       981.03035     -34545237      -657.97795     -653.76389     -657.64527     -0.014318588    0.80238049     1.7568206      11972.843    
    872000   329.452        0.436          0.066666022    0.066238139    0.066625096   -656.40022      1045.9244      1045.9244      1045.9244      1.1441972e+09  0.55440105    -34545094      -34545094       981.0518      -34544113      -657.94248     -653.71961     -657.53857      0.016172453    0.80097572     1.744411       11907.822    
    872100   329.45823      0.43605        0.06666185     0.066233751    0.06661377    -656.3348       1045.9608      1045.9608      1045.9608      1.1443167e+09  0.55434315    -34543969      -34543969       981.07035     -34542988      -657.90131     -653.6763      -657.4268       0.04879987     0.80160353     1.7329039      11998.242    
    872200   329.4634       0.4361         0.066657054    0.066229423    0.066601959   -656.26593      1045.9972      1045.9972      1045.9972      1.1444363e+09  0.55428525    -34542844      -34542844       981.08575     -34541863      -657.85398     -653.63359     -657.31023      0.082831508    0.80432767     1.7223909      12011.852    
    872300   329.46751      0.43615        0.066651593    0.066225105    0.066589684   -656.19338      1046.0337      1046.0337      1046.0337      1.1445558e+09  0.55422736    -34541720      -34541720       981.098       -34540739      -657.80008     -653.59097     -657.18908      0.11759882     0.80921846     1.7129745      11972.19     
    872400   329.47062      0.4362         0.066645448    0.066220741    0.066576973   -656.11699      1046.0701      1046.0701      1046.0701      1.1446753e+09  0.55416947    -34540595      -34540595       981.10724     -34539614      -657.73944     -653.5479      -657.06364      0.15252454     0.81639621     1.7048064      11918.644    
    872500   329.47282      0.43625        0.066638623    0.066216284    0.066563875   -656.03679      1046.1065      1046.1065      1046.1065      1.1447949e+09  0.5541116     -34539471      -34539471       981.11379     -34538490      -657.67207     -653.50391     -656.93437      0.18712826     0.82595138     1.6981421      11849.671    
    872600   329.47424      0.4363         0.06663114     0.066211712    0.066550463   -655.95301      1046.1429      1046.1429      1046.1429      1.1449145e+09  0.55405373    -34538346      -34538346       981.11801     -34537365      -657.59822     -653.45879     -656.802        0.22094313     0.83795882     1.6932627      12047.042    
    872700   329.47499      0.43635        0.066623035    0.066207046    0.066536836   -655.86616      1046.1793      1046.1793      1046.1793      1.145034e+09   0.55399587    -34537222      -34537222       981.12027     -34536241      -657.51823     -653.41274     -656.66752      0.25355248     0.85251909     1.6904128      12017.337    
    872800   329.47519      0.4364         0.066614341    0.066202325    0.066523103   -655.77685      1046.2157      1046.2157      1046.2157      1.1451536e+09  0.55393802    -34536097      -34536097       981.12087     -34535116      -657.43243     -653.36614     -656.53198      0.28468208     0.86974461     1.6898253      11994.291    
    872900   329.47494      0.43645        0.066605069    0.066197574    0.066509351   -655.68548      1046.2522      1046.2522      1046.2522      1.1452732e+09  0.55388018    -34534973      -34534973       981.12011     -34533992      -657.34092     -653.31926     -656.39626      0.31426877     0.88971152     1.6916574      11943.295    
    873000   329.47434      0.4365         0.066595225    0.066192799    0.066495666   -655.59237      1046.2886      1046.2886      1046.2886      1.1453928e+09  0.55382235    -34533848      -34533848       981.11831     -34532867      -657.24377     -653.27213     -656.2612       0.34236609     0.91231817     1.6960279      11954.044    
    873100   329.47348      0.43655        0.066584832    0.066188001    0.066482134   -655.49788      1046.325       1046.325       1046.325       1.1455124e+09  0.55376452    -34532724      -34532724       981.11577     -34531743      -657.1412      -653.22478     -656.12765      0.36899545     0.93727264     1.7030621      11989.644    
    873200   329.47249      0.4366         0.06657393     0.066183176    0.066468842   -655.40241      1046.3614      1046.3614      1046.3614      1.145632e+09   0.5537067     -34531600      -34531600       981.11281     -34530619      -657.0336      -653.17716     -655.99647      0.39412931     0.96428652     1.7127948      11971.569    
    873300   329.47146      0.43665        0.06656256     0.066178331    0.066455864   -655.30638      1046.3978      1046.3978      1046.3978      1.1457517e+09  0.55364889    -34530476      -34530476       981.10976     -34529495      -656.9214      -653.12934     -655.86839      0.4176667      0.99308162     1.7250908      11969.91     
    873400   329.47049      0.4367         0.066550765    0.066173467    0.066443266   -655.21012      1046.4343      1046.4343      1046.4343      1.1458713e+09  0.55359109    -34529352      -34529352       981.10685     -34528371      -656.80498     -653.08135     -655.74405      0.43954425     1.02326        1.7397878      11997.334    
    873500   329.46963      0.43675        0.066538602    0.066168581    0.066431118   -655.11408      1046.4707      1046.4707      1046.4707      1.1459909e+09  0.55353329    -34528228      -34528228       981.1043      -34527247      -656.68494     -653.03312     -655.62416      0.45977203     1.0543664      1.756783       12011.172    
    873600   329.46895      0.4368         0.066526151    0.066163663    0.066419487   -655.01867      1046.5071      1046.5071      1046.5071      1.1461106e+09  0.55347551    -34527104      -34527104       981.10228     -34526123      -656.56207     -652.98458     -655.50937      0.4782947      1.0858909      1.7760734      12019.069    
    873700   329.46849      0.43685        0.066513489    0.06615871     0.066408431   -654.92435      1046.5435      1046.5435      1046.5435      1.1462302e+09  0.55341773    -34525980      -34525980       981.1009      -34524999      -656.4371      -652.9357      -655.40026      0.4949168      1.117413       1.7976459      12039.891    
    873800   329.46828      0.4369         0.066500704    0.066153728    0.066398011   -654.83162      1046.5799      1046.5799      1046.5799      1.1463499e+09  0.55335996    -34524856      -34524856       981.10028     -34523875      -656.31092     -652.88653     -655.29742      0.50944661     1.1484783      1.821459       12056.377    
    873900   329.46834      0.43695        0.066487898    0.066148722    0.066388306   -654.7411       1046.6163      1046.6163      1046.6163      1.1464696e+09  0.5533022     -34523733      -34523733       981.10044     -34522752      -656.18454     -652.83713     -655.20164      0.52166385     1.1786056      1.8473581      12029.569    
    874000   329.46863      0.437          0.066475163    0.06614366     0.066379383   -654.6532       1046.6528      1046.6528      1046.6528      1.1465893e+09  0.55324444    -34522609      -34522609       981.10133     -34521628      -656.05885     -652.78717     -655.11358      0.53128055     1.2074275      1.8751789      11998.323    
    874100   329.46913      0.43705        0.066462583    0.066138504    0.066371295   -654.56824      1046.6892      1046.6892      1046.6892      1.1467089e+09  0.5531867     -34521486      -34521486       981.10282     -34520505      -655.93469     -652.73628     -655.03375      0.53798088     1.2347036      1.9047411      11934.882    
    874200   329.46979      0.4371         0.066450259    0.066133228    0.066364067   -654.48657      1046.7256      1046.7256      1046.7256      1.1468286e+09  0.55312896    -34520363      -34520363       981.10478     -34519382      -655.81307     -652.68422     -654.96242      0.54161861     1.2601392      1.9358295      12022.712    
    874300   329.47054      0.43715        0.066438299    0.066127817    0.066357703   -654.40848      1046.762       1046.762       1046.762       1.1469483e+09  0.55307123    -34519240      -34519240       981.107       -34518258      -655.69503     -652.63081     -654.89961      0.54226811     1.2833038      1.9682347      11991.001    
    874400   329.47129      0.4372         0.066426807    0.066122262    0.066352195   -654.33429      1046.7984      1046.7984      1046.7984      1.1470681e+09  0.55301351    -34518117      -34518117       981.10924     -34517135      -655.58161     -652.57599     -654.84525      0.54001451     1.3037545      2.0017658      11997.041    
    874500   329.47197      0.43725        0.066415867    0.066116565    0.066347515   -654.26416      1046.8348      1046.8348      1046.8348      1.1471878e+09  0.5529558     -34516994      -34516994       981.11126     -34516012      -655.47365     -652.51977     -654.79906      0.53478466     1.3211126      2.0360713      12020.596    
    874600   329.47249      0.4373         0.066405552    0.066110725    0.066343613   -654.19818      1046.8713      1046.8713      1046.8713      1.1473075e+09  0.55289809    -34515871      -34515871       981.11282     -34514890      -655.37184     -652.46213     -654.76056      0.52639243     1.3352096      2.0707677      11973.25     
    874700   329.4728       0.43735        0.066395936    0.066104745    0.066340436   -654.13642      1046.9077      1046.9077      1046.9077      1.1474273e+09  0.55284039    -34514748      -34514748       981.11375     -34513767      -655.27694     -652.40311     -654.7292       0.51476532     1.3461181      2.1054978      11980.599    
    874800   329.47286      0.4374         0.06638707     0.066098631    0.06633792    -654.07886      1046.9441      1046.9441      1046.9441      1.147547e+09   0.5527827     -34513625      -34513625       981.1139      -34512644      -655.18944     -652.34277     -654.70436      0.49996131     1.3539478      2.1399176      11988.372    
    874900   329.47263      0.43745        0.066378972    0.066092404    0.066335984   -654.02536      1046.9805      1046.9805      1046.9805      1.1476668e+09  0.55272502    -34512502      -34512502       981.11323     -34511521      -655.10952     -652.28132     -654.68526      0.48212572     1.3588337      2.1736326      11944.918    
    875000   329.47214      0.4375         0.066371642    0.06608609     0.066334537   -653.97572      1047.0169      1047.0169      1047.0169      1.1477865e+09  0.55266735    -34511380      -34511380       981.11178     -34510399      -655.03718     -652.219       -654.67098      0.46148126     1.3609916      2.206228       11964.102    
    875100   329.47142      0.43755        0.06636511     0.066079717    0.066333485   -653.9298       1047.0534      1047.0534      1047.0534      1.1479063e+09  0.55260968    -34510257      -34510257       981.10964     -34509276      -654.97271     -652.1561      -654.6606       0.43833004     1.3607958      2.237384       12037.307    
    875200   329.47053      0.4376         0.066359416    0.066073326    0.066332735   -653.88758      1047.0898      1047.0898      1047.0898      1.1480261e+09  0.55255202    -34509134      -34509134       981.10698     -34508153      -654.91652     -652.09303     -654.6532       0.41298265     1.3586336      2.2667922      12050.988    
    875300   329.46952      0.43765        0.0663546      0.066066968    0.066332208   -653.84909      1047.1262      1047.1262      1047.1262      1.1481459e+09  0.55249437    -34508012      -34508012       981.10398     -34507031      -654.86898     -652.03028     -654.648        0.38585288     1.3549013      2.2941574      12030.88     
    875400   329.46846      0.4377         0.066350683    0.066060718    0.066331855   -653.81448      1047.1626      1047.1626      1047.1626      1.1482657e+09  0.55243673    -34506889      -34506889       981.1008      -34505908      -654.83033     -651.96859     -654.64451      0.35749294     1.3500853      2.3192596      12011.869    
    875500   329.46739      0.43775        0.066347659    0.066054647    0.066331633   -653.78383      1047.199       1047.199       1047.199       1.1483855e+09  0.5523791     -34505766      -34505766       981.09763     -34504785      -654.80049     -651.90868     -654.64232      0.32839119     1.3447274      2.3419938      12050.05     
    875600   329.46639      0.4378         0.0663455      0.066048824    0.066331486   -653.75708      1047.2354      1047.2354      1047.2354      1.1485053e+09  0.55232147    -34504643      -34504643       981.09465     -34503662      -654.77917     -651.85121     -654.64087      0.29890666     1.3392231      2.3623569      12047.579    
    875700   329.46551      0.43785        0.066344173    0.066043303    0.066331371   -653.73418      1047.2719      1047.2719      1047.2719      1.1486251e+09  0.55226386    -34503521      -34503521       981.09202     -34502540      -654.76608     -651.79673     -654.63973      0.26940521     1.3337307      2.3803205      11999.492    
    875800   329.46481      0.4379         0.066343655    0.066038133    0.066331267   -653.71513      1047.3083      1047.3083      1047.3083      1.1487449e+09  0.55220625    -34502398      -34502398       981.08994     -34501417      -654.76097     -651.7457      -654.63871      0.24017497     1.3283698      2.3957872      11985.276    
    875900   329.46435      0.43795        0.066343924    0.066033348    0.066331167   -653.69994      1047.3447      1047.3447      1047.3447      1.1488648e+09  0.55214864    -34501275      -34501275       981.08858     -34500294      -654.76362     -651.69848     -654.63772      0.21146832     1.3232473      2.4085447      11971.128    
    876000   329.46419      0.438          0.066344963    0.066028959    0.066331059   -653.68856      1047.3811      1047.3811      1047.3811      1.1489846e+09  0.55209105    -34500152      -34500152       981.08809     -34499171      -654.77388     -651.65516     -654.63665      0.18356523     1.3183509      2.4184094      11982.085    
    876100   329.46437      0.43805        0.066346746    0.066024938    0.066330923   -653.68076      1047.4175      1047.4175      1047.4175      1.1491045e+09  0.55203347    -34499029      -34499029       981.08864     -34498048      -654.79148     -651.61548     -654.63531      0.15676788     1.3135043      2.425389       12027.838    
    876200   329.46498      0.4381         0.066349214    0.066021243    0.066330745   -653.67613      1047.454       1047.454       1047.454       1.1492244e+09  0.55197589    -34497906      -34497906       981.09045     -34496925      -654.81583     -651.57901     -654.63355      0.13143102     1.3084654      2.4296588      12006.17     
    876300   329.46609      0.43815        0.066352285    0.066017835    0.066330504   -653.67423      1047.4904      1047.4904      1047.4904      1.1493442e+09  0.55191832    -34496782      -34496782       981.09375     -34495801      -654.84613     -651.54537     -654.63118      0.10798391     1.303126       2.4315033      12002.973    
    876400   329.46779      0.4382         0.066355852    0.066014663    0.066330179   -653.67446      1047.5268      1047.5268      1047.5268      1.1494641e+09  0.55186076    -34495659      -34495659       981.09882     -34494678      -654.88134     -651.51407     -654.62797      0.086818577    1.2974298      2.4311668      12062.694    
    876500   329.47017      0.43825        0.066359785    0.066011693    0.066329747   -653.67621      1047.5632      1047.5632      1047.5632      1.149584e+09   0.5518032     -34494536      -34494536       981.10591     -34493554      -654.92016     -651.48476     -654.62371      0.068224678    1.29129        2.4288331      11982.731    
    876600   329.47332      0.4383         0.066363946    0.066008879    0.066329181   -653.67878      1047.5996      1047.5996      1047.5996      1.1497039e+09  0.55174566    -34493412      -34493412       981.11528     -34492431      -654.96122     -651.45699     -654.61812      0.052433953    1.2846453      2.4245949      11975.392    
    876700   329.47731      0.43835        0.066368185    0.06600615     0.066328448   -653.68133      1047.636       1047.636       1047.636       1.1498238e+09  0.55168812    -34492288      -34492288       981.12717     -34491307      -655.00306     -651.43005     -654.61089      0.039527413    1.2774226      2.4184589      11973.339    
    876800   329.48222      0.4384         0.066372355    0.066003434    0.066327517   -653.68305      1047.6725      1047.6725      1047.6725      1.1499437e+09  0.55163059    -34491165      -34491165       981.1418      -34490184      -655.04422     -651.40324     -654.60169      0.029430003    1.2694843      2.4104066      11969.467    
    876900   329.48811      0.43845        0.066376339    0.066000683    0.066326362   -653.68331      1047.7089      1047.7089      1047.7089      1.1500636e+09  0.55157307    -34490041      -34490041       981.15931     -34489060      -655.08353     -651.37609     -654.5903       0.021956983    1.260698       2.4004613      11989.644    
    877000   329.495        0.4385         0.066380023    0.065997847    0.066324938   -653.68141      1047.7453      1047.7453      1047.7453      1.1501836e+09  0.55151556    -34488917      -34488917       981.17984     -34487936      -655.11989     -651.34811     -654.57625      0.016976251    1.2509836      2.3886831      11979.896    
    877100   329.50292      0.43855        0.066383307    0.06599488     0.066323189   -653.67671      1047.7817      1047.7817      1047.7817      1.1503035e+09  0.55145805    -34487793      -34487793       981.20344     -34486812      -655.1523      -651.31883     -654.55899      0.014439675    1.2403526      2.3751173      11956.358    
    877200   329.51186      0.4386         0.066386094    0.065991733    0.066321064   -653.66853      1047.8181      1047.8181      1047.8181      1.1504235e+09  0.55140055    -34486669      -34486669       981.23006     -34485688      -655.17981     -651.28777     -654.53802      0.014257644    1.2287929      2.3598238      12000.886    
    877300   329.52178      0.43865        0.066388277    0.065988328    0.066318504   -653.65609      1047.8546      1047.8546      1047.8546      1.1505434e+09  0.55134306    -34485545      -34485545       981.2596      -34484564      -655.20136     -651.25416     -654.51274      0.016126502    1.2163284      2.3427094      12015.773    
    877400   329.5326       0.4387         0.066389752    0.065984589    0.066315466   -653.63865      1047.891       1047.891       1047.891       1.1506634e+09  0.55128558    -34484421      -34484421       981.29182     -34483440      -655.21591     -651.21726     -654.48276      0.019602305    1.2029665      2.3235228      11980.557    
    877500   329.54423      0.43875        0.066390422    0.065980459    0.066311921   -653.6156       1047.9274      1047.9274      1047.9274      1.1507834e+09  0.55122811    -34483297      -34483297       981.32645     -34482315      -655.22252     -651.1765      -654.44777      0.024264813    1.1887272      2.3020305      12032.023    
    877600   329.55657      0.4388         0.066390201    0.065975869    0.066307823   -653.58629      1047.