LAMMPS (23 Jun 2022 - Update 1)
OMP_NUM_THREADS environment is not set. Defaulting to 1 thread. (src/comm.cpp:98)
  using 1 OpenMP thread(s) per MPI task
###

# Read restart info
read_restart ${read_res}
read_restart ./500500/equpmf71.res
Reading restart file ...
  restart file = 23 Jun 2022, LAMMPS = 23 Jun 2022
  restoring atom style atomic from restart
  orthogonal box = (2174.6326 2174.6326 2174.6326) to (2825.3674 2825.3674 2825.3674)
  1 by 2 by 2 MPI processor grid
  restoring pair style table from restart
  1000 atoms
  read_restart CPU = 0.401 seconds

# Settings
pair_style table/pgn spline 9941
pair_coeff 1 1 N20.txt DE_GNP 147.89 72.9   # 1.35 * r
pair_coeff 2 2 N100.txt DE_GNP 473.9 111.78
WARNING: 3 of 9941 force values in table DE_GNP are inconsistent with -dE/dr.
WARNING:  Should only be flagged at inflection points (src/pair_table_pgn.cpp:478)
pair_coeff 1 2 mixed_potential.txt DE_GNP 391.2 92.95
WARNING: 1562 of 9941 force values in table DE_GNP are inconsistent with -dE/dr.
WARNING:  Should only be flagged at inflection points (src/pair_table_pgn.cpp:478)

# Neighbor list
neighbor 2.0 bin
neigh_modify delay 0 every 1 check no once yes

# Temperature
variable T equal ${Temp}
variable T equal 300

# Deformation
reset_timestep 0
variable tmp equal "lx"
variable L0 equal ${tmp}
variable L0 equal 650.734842525819
variable strain equal "(lx - v_L0)/v_L0"
variable stp equal "step"
variable tmpe equal "temp"
variable p1 equal "v_strain"
variable p2 equal "-pxx*1.01325/10000"
variable p3 equal "-pyy*1.01325/10000"
variable p4 equal "-pzz*1.01325/10000"
variable p5 equal "lx"
variable p6 equal "ly"
variable p7 equal "lz"
variable p8 equal "press"
variable p9 equal "epair"
variable p10 equal "etotal"

# Thermo
thermo_style custom step temp v_p1 v_p2 v_p3 v_p4 press lx ly lz vol density epair pe ke etotal pxx pyy pzz pxy pxz pyz spcpu
thermo ${ts_save}
thermo 100

# Dump
# dump 1 all custom 2000 ./${N20}${N100}/tensile/trajectory/trajectory_${usic}_${trial}_*.tensile.custom id type x y z ix iy iz
# dump_modify 1 sort id
dump 2 all cfg 20000 ./${N20}${N100}/tensile/trajectory/dumpten.tens_${usic}_${trial}_*.cfg mass type xs ys zs fx fy fz
dump 2 all cfg 20000 ./500${N100}/tensile/trajectory/dumpten.tens_${usic}_${trial}_*.cfg mass type xs ys zs fx fy fz
dump 2 all cfg 20000 ./500500/tensile/trajectory/dumpten.tens_${usic}_${trial}_*.cfg mass type xs ys zs fx fy fz
dump 2 all cfg 20000 ./500500/tensile/trajectory/dumpten.tens_2_${trial}_*.cfg mass type xs ys zs fx fy fz
dump 2 all cfg 20000 ./500500/tensile/trajectory/dumpten.tens_2_5_*.cfg mass type xs ys zs fx fy fz
dump_modify 2 element N20 N100

fix 1 all nvt temp ${T} ${T} 100
fix 1 all nvt temp 300 ${T} 100
fix 1 all nvt temp 300 300 100
fix 2 all deform 1 x erate ${strain_rate} y erate ${strain_rate} z erate ${strain_rate} units box
fix 2 all deform 1 x erate 5e-6 y erate ${strain_rate} z erate ${strain_rate} units box
fix 2 all deform 1 x erate 5e-6 y erate 5e-6 z erate ${strain_rate} units box
fix 2 all deform 1 x erate 5e-6 y erate 5e-6 z erate 5e-6 units box
fix             def1 all print ${ts_save} "${p1} ${p2} ${p3} ${p4}" file ./tensile/tensile${N20}${N100}_${usic}_${trial}.txt screen no
fix             def1 all print 100 "${p1} ${p2} ${p3} ${p4}" file ./tensile/tensile${N20}${N100}_${usic}_${trial}.txt screen no
fix             def1 all print 100 "${p1} ${p2} ${p3} ${p4}" file ./tensile/tensile500${N100}_${usic}_${trial}.txt screen no
fix             def1 all print 100 "${p1} ${p2} ${p3} ${p4}" file ./tensile/tensile500500_${usic}_${trial}.txt screen no
fix             def1 all print 100 "${p1} ${p2} ${p3} ${p4}" file ./tensile/tensile500500_2_${trial}.txt screen no
fix             def1 all print 100 "${p1} ${p2} ${p3} ${p4}" file ./tensile/tensile500500_2_5.txt screen no

timestep       		${ts}
timestep       		0.1
run				${steps_tensile}
run				6000000
Generated 0 of 1 mixed pair_coeff terms from geometric mixing rule
Unused restart file global fix info:
  fix style: npt, fix ID: 5
Neighbor list info ...
  update every 1 steps, delay 0 steps, check no
  max neighbors/atom: 2000, page size: 100000
  master list distance cutoff = 113.78
  ghost atom cutoff = 113.78
  binsize = 56.89, bins = 12 12 12
  1 neighbor lists, perpetual/occasional/extra = 1 0 0
  (1) pair table/pgn, perpetual
      attributes: half, newton on
      pair build: half/bin/atomonly/newton
      stencil: half/bin/3d
      bin: standard
Per MPI rank memory allocation (min/avg/max) = 3.85 | 3.851 | 3.852 Mbytes
   Step          Temp           v_p1           v_p2           v_p3           v_p4          Press            Lx             Ly             Lz           Volume        Density         E_pair         PotEng         KinEng         TotEng          Pxx            Pyy            Pzz            Pxy            Pxz            Pyz           S/CPU     
         0   296.74884     -3.4941064e-16  0.0060903213   0.016146116    0.018818865   -135.06144      650.73484      650.73484      650.73484      2.7555747e+08  1.9401113     -29647758      -29647758       883.66737     -29646874      -60.106798     -159.34977     -185.72776      35.56436       59.953794      0.38321616     0            
       100   297.92536      5e-05          0.007056868    0.017116472    0.019790919   -144.63117      650.76738      650.76738      650.76738      2.755988e+08   1.9398204     -29647678      -29647678       887.17084     -29646791      -69.645872     -168.92644     -195.32118      35.501605      59.972759      0.63642718     7334.6703    
       200   300.03907      0.0001         0.0080301203   0.018093112    0.020770253   -154.26757      650.79992      650.79992      650.79992      2.7564014e+08  1.9395294     -29647595      -29647595       893.46512     -29646702      -79.251126     -178.56514     -204.98646      35.433657      59.97155       0.89584183     8255.6586    
       300   303.04374      0.00015        0.0089988219   0.019064843    0.021745276   -163.85867      650.83245      650.83245      650.83245      2.7568149e+08  1.9392386     -29647508      -29647508       902.4125      -29646606      -88.811467     -188.15537     -214.60919      35.360218      59.946315      1.1548414      8839.2719    
       400   306.87248      0.0002         0.0099616907   0.020030584    0.022714516   -173.39186      650.86499      650.86499      650.86499      2.7572283e+08  1.9389477     -29647418      -29647418       913.81385     -29646505      -98.314244     -197.68649     -224.17484      35.280729      59.893697      1.4095177      9227.2978    
       500   311.4345       0.00025        0.010917631    0.020989373    0.023676665   -182.85605      650.89753      650.89753      650.89753      2.7576419e+08  1.938657      -29647325      -29647325       927.39875     -29646398      -107.74864     -207.14901     -233.67051      35.194604      59.810795      1.6556316      9843.7095    
       600   316.61045      0.0003         0.011865668    0.021940282    0.024630517   -192.24103      650.93006      650.93006      650.93006      2.7580554e+08  1.9383663     -29647229      -29647229       942.81186     -29646286      -117.10504     -216.53375     -243.0843       35.101167      59.696206      1.8885336      10287.717    
       700   322.24731      0.00035        0.012805019    0.022882457    0.025574991   -201.53784      650.9626       650.9626       650.9626       2.758469e+08   1.9380757     -29647129      -29647129       959.59745     -29646170      -126.37571     -225.83229     -252.40553      34.999784      59.549337      2.1037328      10950.79     
       800   328.15569      0.0004         0.01373519     0.02381513     0.026509204   -210.73945      650.99514      650.99514      650.99514      2.7588827e+08  1.9377851     -29647026      -29647026       977.19159     -29646049      -135.55579     -235.03706     -261.6255       34.890774      59.370283      2.297036       11350.697    
       900   334.1211       0.00045        0.014655787    0.024737673    0.027432277   -219.83959      651.02767      651.02767      651.02767      2.7592964e+08  1.9374945     -29646920      -29646920       994.95558     -29645925      -144.64138     -244.14185     -270.73553      34.775162      59.160207      2.464844       11673.343    
      1000   339.95486      0.0005         0.015566438    0.025649613    0.028343343   -228.83262      651.06021      651.06021      651.06021      2.7597101e+08  1.9372041     -29646811      -29646811       1012.3275     -29645799      -153.6288      -253.142       -279.72705      34.654254      58.921409      2.6042837      11214.203    
      1100   345.61474      0.00055        0.016466811    0.026550651    0.029241607   -237.71385      651.09275      651.09275      651.09275      2.7601239e+08  1.9369137     -29646699      -29646699       1029.1817     -29645670      -162.51479     -262.03456     -288.59222      34.529603      58.657508      2.7128592      12130.01     
      1200   351.35447      0.0006         0.017356689    0.027440538    0.030126475   -246.47982      651.12528      651.12528      651.12528      2.7605377e+08  1.9366233     -29646584      -29646584       1046.2736     -29645537      -171.2972      -270.81705     -297.32519      34.403237      58.373442      2.7890053      12178.452    
      1300   357.69358      0.00065        0.018236058    0.028319197    0.0309976     -255.12906      651.15782      651.15782      651.15782      2.7609515e+08  1.936333      -29646465      -29646465       1065.1504     -29645400      -179.9759      -279.48874     -305.92252      34.277236      58.074771      2.8317577      12019.271    
      1400   365.05356      0.0007         0.019104977    0.029186735    0.031854926   -263.66194      651.19036      651.19036      651.19036      2.7613654e+08  1.9360428     -29646344      -29646344       1087.0672     -29645257      -188.55146     -288.05068     -314.38367      34.153359      57.767505      2.8408733      12266.832    
      1500   373.409        0.00075        0.01996355     0.030043248    0.032698571   -272.07951      651.22289      651.22289      651.22289      2.7617794e+08  1.9357526     -29646219      -29646219       1111.9482     -29645107      -197.02492     -296.5038      -322.7098       34.032485      57.457668      2.8167804      12132.855    
      1600   382.36571      0.0008         0.02081199     0.030888788    0.033528714   -280.38323      651.25543      651.25543      651.25543      2.7621933e+08  1.9354625     -29646091      -29646091       1138.6198     -29644953      -205.39837     -304.84864     -330.90268      33.914907      57.150534      2.7605536      12244.356    
      1700   391.45152      0.00085        0.021650625    0.031723307    0.03434568    -288.57509      651.28797      651.28797      651.28797      2.7626074e+08  1.9351725     -29645961      -29645961       1165.6758     -29644795      -213.67505     -313.08469     -338.96551      33.800806      56.8509        2.6742222      12155.841    
      1800   400.31332      0.0009         0.022479828    0.032546674    0.03514995    -296.65746      651.3205       651.3205       651.3205       2.7630214e+08  1.9348825     -29645827      -29645827       1192.0647     -29644635      -221.85865     -321.2107      -346.90303      33.690451      56.56297       2.5609013      12130.74     
      1900   408.80886      0.00095        0.02330001     0.033358882    0.035942152   -304.63375      651.35304      651.35304      651.35304      2.7634355e+08  1.9345925     -29645691      -29645691       1217.363      -29644474      -229.95322     -329.22657     -354.72146      33.584261      56.289861      2.4238861      12191.812    
      2000   417.0001       0.001          0.02411156     0.034160137    0.036723047   -312.50841      651.38558      651.38558      651.38558      2.7638497e+08  1.9343026     -29645551      -29645551       1241.7551     -29644310      -237.9626      -337.13434     -362.42829      33.483494      56.034051      2.2669049      12163.482    
      2100   425.03008      0.00105        0.024914921    0.034950703    0.037493419   -320.28635      651.41811      651.41811      651.41811      2.7642638e+08  1.9340128     -29645409      -29645409       1265.667      -29644143      -245.89116     -344.93662     -370.03128      33.389464      55.79743       2.0943595      12124.219    
      2200   432.97749      0.0011         0.025710701    0.035730942    0.038254132   -327.9736       651.45065      651.45065      651.45065      2.7646781e+08  1.933723      -29645264      -29645264       1289.333      -29643974      -253.74489     -352.63698     -377.53893      33.303539      55.580767      1.911071       12252.288    
      2300   440.81771      0.00115        0.026499659    0.036501332    0.03900622    -335.57763      651.48319      651.48319      651.48319      2.7650923e+08  1.9334333     -29645115      -29645115       1312.6799     -29643802      -261.5313      -360.24014     -384.96146      33.226759      55.383608      1.7215755      12133.809    
      2400   448.48031      0.0012         0.027282531    0.03726253     0.039750846   -343.10686      651.51572      651.51572      651.51572      2.7655066e+08  1.9331437     -29644964      -29644964       1335.4978     -29643628      -269.25765     -367.75257     -392.31035      33.159789      55.204461      1.5302572      12235.453    
      2500   455.90759      0.00125        0.028059889    0.038015291    0.040489126   -350.56931      651.54826      651.54826      651.54826      2.765921e+08   1.9328541     -29644809      -29644809       1357.615      -29643451      -276.92958     -375.18176     -399.59661      33.102831      55.040616      1.3416378      12067.906    
      2600   463.06858      0.0013         0.028832201    0.03876037     0.041222009   -357.97214      651.5808       651.5808       651.5808       2.7663354e+08  1.9325645     -29644651      -29644651       1378.9392     -29643272      -284.5517      -382.53511     -406.8296       33.055721      54.888739      1.1601031      12253.114    
      2700   469.94613      0.00135        0.029600015    0.039498538    0.041950426   -365.32274      651.61333      651.61333      651.61333      2.7667498e+08  1.9322751     -29644490      -29644490       1399.4193     -29643091      -292.12943     -389.82026     -414.01851      33.017638      54.745799      0.98900145     12109.892    
      2800   476.52544      0.0014         0.030363979    0.040230693    0.042675417   -372.62962      651.64587      651.64587      651.64587      2.7671643e+08  1.9319856     -29644326      -29644326       1419.0114     -29642907      -299.66917     -397.04606     -421.17362      32.986922      54.609234      0.83046591     12265.018    
      2900   482.79185      0.00145        0.031124791    0.040957855    0.043398069   -379.90201      651.67841      651.67841      651.67841      2.7675788e+08  1.9316963     -29644159      -29644159       1437.6717     -29642722      -307.1778      -404.2226      -428.30564      32.961447      54.477297      0.68629064     12299.193    
      3000   488.73259      0.0015         0.031883113    0.041680958    0.044119364   -387.1484       651.71094      651.71094      651.71094      2.7679934e+08  1.931407      -29643989      -29643989       1455.3622     -29642533      -314.66186     -411.35907     -435.42427      32.939483      54.348616      0.55866312     12014.229    
      3100   494.33791      0.00155        0.032639558    0.042400918    0.044840165   -394.37665      651.74348      651.74348      651.74348      2.768408e+08   1.9311177     -29643815      -29643815       1472.0539     -29642343      -322.12739     -418.46453     -442.53803      32.919346      54.222401      0.44882112     12261.915    
      3200   499.60105      0.0016         0.033394762    0.043118811    0.045561133   -401.59456      651.77602      651.77602      651.77602      2.7688226e+08  1.9308285     -29643638      -29643638       1487.7266     -29642150      -329.58068     -425.54958     -449.65343      32.899159      54.098497      0.35693428     12268.442    
      3300   504.51796      0.00165        0.034149403    0.043835768    0.046282629   -408.80928      651.80856      651.80856      651.80856      2.7692373e+08  1.9305394     -29643457      -29643457       1502.3683     -29641955      -337.02841     -432.62539     -456.77404      32.877139      53.976958      0.28175776     12091.407    
      3400   509.08707      0.0017         0.034904039    0.04455299     0.047005001   -416.02773      651.84109      651.84109      651.84109      2.769652e+08   1.9302503     -29643273      -29643273       1515.9744     -29641757      -344.47608     -439.70382     -463.90329      32.852069      53.85746       0.22122711     12249.699    
      3500   513.30915      0.00175        0.035659024    0.045271659    0.047728484   -423.25575      651.87363      651.87363      651.87363      2.7700668e+08  1.9299613     -29643086      -29643086       1528.547      -29641557      -351.92721     -446.79653     -471.04351      32.822648      53.739273      0.17331556     12222.738    
      3600   517.18707      0.0018         0.036414604    0.045992745    0.048453261   -430.49793      651.90617      651.90617      651.90617      2.7704816e+08  1.9296723     -29642894      -29642894       1540.0948     -29641354      -359.3842      -453.9131      -478.1965       32.787501      53.621666      0.13625265     12212.185    
      3700   520.72562      0.00185        0.037170927    0.046717075    0.049179475   -437.75797      651.9387       651.9387       651.9387       2.7708964e+08  1.9293834     -29642699      -29642699       1550.632      -29641149      -366.84853     -461.06169     -485.36369      32.745725      53.50416       0.1079468      12219.264    
      3800   523.93134      0.0019         0.037928124    0.047445344    0.049907253   -445.03897      651.97124      651.97124      651.97124      2.7713113e+08  1.9290946     -29642500      -29642500       1560.1781     -29640940      -374.32148     -468.24914     -492.54629      32.696701      53.386092      0.085813775    12157.588    
      3900   526.81226      0.00195        0.038686367    0.048178003    0.050636675   -452.34327      652.00378      652.00378      652.00378      2.7717262e+08  1.9288058     -29642298      -29642298       1568.757      -29640729      -381.80476     -475.47992     -499.74513      32.640195      53.266196      0.06683805     12138.914    
      4000   529.37776      0.002          0.03944588     0.048915344    0.051367779   -459.67268      652.03631      652.03631      652.03631      2.7721412e+08  1.9285171     -29642091      -29642091       1576.3966     -29640514      -389.30057     -482.75691     -506.96056      32.575384      53.142782      0.048402233    12072.432    
      4100   531.63827      0.00205        0.040206993    0.049657586    0.052100555   -467.02898      652.06885      652.06885      652.06885      2.7725562e+08  1.9282284     -29641880      -29641880       1583.128      -29640297      -396.81217     -490.08227     -514.1925       32.501518      53.014139      0.027632611    12163.558    
      4200   533.60514      0.0021         0.040970022    0.05040485     0.052835002   -474.4136       652.10139      652.10139      652.10139      2.7729713e+08  1.9279398     -29641665      -29641665       1588.985      -29640076      -404.34268     -497.4572      -521.44093      32.417766      52.879441      0.00082429483  12182.175    
      4300   535.29038      0.00215        0.041735227    0.051157196    0.053571184   -481.82781      652.13392      652.13392      652.13392      2.7733864e+08  1.9276512     -29641446      -29641446       1594.0033     -29639852      -411.89467     -504.88227     -528.70648      32.323727      52.738903     -0.034911978    12059.823    
      4400   536.70655      0.0022         0.042502916    0.051914736    0.05430927    -489.27353      652.16646      652.16646      652.16646      2.7738015e+08  1.9273627     -29641223      -29641223       1598.2205     -29639625      -419.47116     -512.35861     -535.99082      32.220431      52.592889     -0.081350014    12208.58     
      4500   537.86651      0.00225        0.043273395    0.052677567    0.055049569   -496.75312      652.199        652.199        652.199        2.7742167e+08  1.9270743     -29640996      -29640996       1601.6746     -29639394      -427.0752      -519.88716     -543.29701      32.109118      52.44141      -0.13985507     12172.705    
      4600   538.78326      0.0023         0.044046974    0.053445836    0.055792476   -504.26939      652.23153      652.23153      652.23153      2.7746319e+08  1.9267859     -29640764      -29640764       1604.4045     -29639160      -434.70984     -527.46939     -550.62893      31.990391      52.284468     -0.21150829     12008.56     
      4700   539.46976      0.00235        0.044824014    0.054219739    0.056538342   -511.8253       652.26407      652.26407      652.26407      2.7750472e+08  1.9264976     -29640528      -29640528       1606.4488     -29638922      -442.37863     -535.10722     -557.99005      31.864115      52.122335     -0.29666248     12188.167    
      4800   539.93875      0.0024         0.0456049      0.054999481    0.057287531   -519.424        652.29661      652.29661      652.29661      2.7754625e+08  1.9262093     -29640288      -29640288       1607.8454     -29638680      -450.08536     -542.80267     -565.38398      31.730362      51.955565     -0.39541595     12182.126    
      4900   540.20263      0.00245        0.046389983    0.055785165    0.058040421   -527.06824      652.32914      652.32914      652.32914      2.7758778e+08  1.9259211     -29640043      -29640043       1608.6312     -29638434      -457.83354     -550.55678     -572.81442      31.589079      51.785243     -0.50786347     12189.408    
      5000   540.27344      0.0025         0.047179467    0.056576664    0.058797257   -534.75907      652.36168      652.36168      652.36168      2.7762932e+08  1.925633      -29639793      -29639793       1608.842      -29638184      -465.62513     -558.36826     -580.28381      31.440729      51.612951     -0.63379779     11856.497    
      5100   540.16282      0.00255        0.047973325    0.057373662    0.05955804    -542.49536      652.39422      652.39422      652.39422      2.7767086e+08  1.9253449     -29639539      -29639539       1608.5126     -29637930      -473.4599      -566.23402     -587.79215      31.286068      51.440208     -0.77196272     9663.8012    
      5200   539.88199      0.0026         0.048771346    0.058175797    0.060322729   -550.27509      652.42675      652.42675      652.42675      2.7771241e+08  1.9250568     -29639280      -29639280       1607.6764     -29637672      -481.33576     -574.15047     -595.33904      31.125229      51.268064     -0.9206735      12119.32     
      5300   539.44174      0.00265        0.049573178    0.058982639    0.061091185   -558.09524      652.45929      652.45929      652.45929      2.7775396e+08  1.9247688     -29639016      -29639016       1606.3654     -29637410      -489.24923     -582.11338     -602.92312      30.958453      51.098017     -1.0771976      12144.292    
      5400   538.85238      0.0027         0.050378437    0.059793784    0.061863257   -565.95272      652.49183      652.49183      652.49183      2.7779551e+08  1.9244809     -29638748      -29638748       1604.6104     -29637144      -497.19652     -590.11877     -610.54287      30.785854      50.932244     -1.2381254      12243.203    
      5500   538.12376      0.00275        0.051186791    0.060608907    0.062638779   -573.84481      652.52436      652.52436      652.52436      2.7783707e+08  1.9241931     -29638475      -29638475       1602.4407     -29636873      -505.17435     -598.16341     -618.19668      30.607351      50.773272     -1.4003973      12216.669    
      5600   537.26524      0.0028         0.05199791     0.061427745    0.063417497   -581.76874      652.5569       652.5569       652.5569       2.7787864e+08  1.9239052     -29638197      -29638197       1599.8841     -29636597      -513.17947     -606.24471     -625.88203      30.422738      50.62337      -1.5615109      12229.659    
      5700   536.28573      0.00285        0.052811417    0.062250065    0.064199053   -589.72131      652.58944      652.58944      652.58944      2.779202e+08   1.9236175     -29637914      -29637914       1596.9673     -29636317      -521.20816     -614.36037     -633.59539      30.232367      50.484361     -1.7188996      12093.191    
      5800   535.19375      0.0029         0.053626806    0.063075509    0.064983001   -597.69822      652.62197      652.62197      652.62197      2.7796178e+08  1.9233298     -29637627      -29637627       1593.7156     -29636033      -529.25543     -622.50687     -641.33236      30.0365        50.357581     -1.8695177      12147.153    
      5900   533.99746      0.00295        0.054443516    0.063903594    0.065768888   -605.69454      652.65451      652.65451      652.65451      2.7800335e+08  1.9230422     -29637334      -29637334       1590.1533     -29635744      -537.31572     -630.67943     -649.08845      29.835103      50.243202     -2.0109672      12234.936    
      6000   532.70474      0.003          0.055261029    0.064733832    0.06655636    -613.7058       652.68705      652.68705      652.68705      2.7804493e+08  1.9227546     -29637036      -29637036       1586.3038     -29635450      -545.38395     -638.87324     -656.8602       29.628563      50.140563     -2.141452       12122.033    
      6100   531.32314      0.00305        0.056078745    0.065565675    0.067344931   -621.72663      652.71958      652.71958      652.71958      2.7808652e+08  1.9224671     -29636733      -29636733       1582.1896     -29635151      -553.45419     -647.0829      -664.64279      29.417322      50.048682     -2.2591417      12254.998    
      6200   529.85997      0.0031         0.056895922    0.066398529    0.068133959   -629.7505       652.75212      652.75212      652.75212      2.781281e+08   1.9221796     -29636425      -29636425       1577.8325     -29634847      -561.51909     -655.30253     -672.42989      29.201338      49.966806     -2.362781       12055.401    
      6300   528.32231      0.00315        0.057711594    0.067231689    0.068922688   -637.76946      652.78466      652.78466      652.78466      2.781697e+08   1.9218922     -29636112      -29636112       1573.2536     -29634538      -569.56915     -663.52519     -680.21404      28.98044       49.894409     -2.4510921      11432.802    
      6400   526.7171       0.0032         0.05852476     0.068064439    0.069710358   -645.77533      652.81719      652.81719      652.81719      2.7821129e+08  1.9216048     -29635794      -29635794       1568.4736     -29634225      -577.59448     -671.74378     -687.98774      28.754472      49.830862     -2.5231136      12119.423    
      6500   525.05114      0.00325        0.059334496    0.068896077    0.070496298   -653.76058      652.84973      652.84973      652.84973      2.7825289e+08  1.9213175     -29635470      -29635470       1563.5126     -29633907      -585.58594     -679.95142     -695.74437      28.523995      49.775684     -2.5780715      12227.181    
      6600   523.33109      0.0033         0.060139975    0.069725855    0.071279945   -661.71815      652.88227      652.88227      652.88227      2.782945e+08   1.9210303     -29635142      -29635142       1558.3906     -29633583      -593.5354      -688.14068     -703.47836      28.290558      49.728647     -2.614812       12238.16     
      6700   521.56345      0.00335        0.060940489    0.070553068    0.072060878   -669.64203      652.9148       652.9148       652.9148       2.7833611e+08  1.9207431     -29634808      -29634808       1553.1269     -29633255      -601.43587     -696.30465     -711.18557      28.056805      49.689427     -2.6325156      12254.061    
      6800   519.75456      0.0034         0.061735493    0.071376973    0.072838804   -677.527        652.94734      652.94734      652.94734      2.7837772e+08  1.920456      -29634470      -29634470       1547.7403     -29632922      -609.28194     -704.43595     -718.8631       27.825695      49.657438     -2.6311317      12204.67     
      6900   517.91047      0.00345        0.062524477    0.072196838    0.073613506   -685.36828      652.97988      652.97988      652.97988      2.7841934e+08  1.920169      -29634126      -29634126       1542.249      -29632584      -617.06861     -712.5274      -726.50882      27.599484      49.63166      -2.6106593      12186.777    
      7000   516.03703      0.0035         0.063307098    0.073012026    0.07438482    -693.16208      653.01241      653.01241      653.01241      2.7846096e+08  1.9198819     -29633777      -29633777       1536.6701     -29632240      -624.79248     -720.57267     -734.12109      27.380157      49.610762     -2.5711109      12099.306    
      7100   514.13975      0.00355        0.064083359    0.073822069    0.075152579   -700.90634      653.04495      653.04495      653.04495      2.7850258e+08  1.919595      -29633423      -29633423       1531.0204     -29631892      -632.45358     -728.56717     -741.69829      27.169583      49.594043     -2.5126948      12166.158    
      7200   512.22386      0.0036         0.064853481    0.0746267      0.075916581   -708.60026      653.07749      653.07749      653.07749      2.7854421e+08  1.9193081     -29633065      -29633065       1525.3152     -29631539      -640.0541      -736.50827     -749.23841      26.968977      49.581471     -2.4361202      12232.688    
      7300   510.29424      0.00365        0.065617805    0.075425711    0.076676609   -716.24352      653.11002      653.11002      653.11002      2.7858585e+08  1.9190213     -29632701      -29632701       1519.5691     -29631181      -647.59738     -744.39389     -756.7393       26.779779      49.57357      -2.3431788      12223.875    
      7400   508.35547      0.0037         0.066376793    0.076218917    0.077432489   -723.8365       653.14256      653.14256      653.14256      2.7862749e+08  1.9187345     -29632332      -29632332       1513.7958     -29630819      -655.08801     -752.22222     -764.19925      26.603173      49.570848     -2.2367854      12140.046    
      7500   506.41176      0.00375        0.067130984    0.077006198    0.078184082   -731.38009      653.1751       653.1751       653.1751       2.7866913e+08  1.9184478     -29631959      -29631959       1508.0078     -29630451      -662.5313      -759.99209     -771.6169       26.439641      49.57365      -2.1208975      12271.45     
      7600   504.46695      0.0038         0.067880987    0.077787596    0.078931461   -738.8767       653.20763      653.20763      653.20763      2.7871077e+08  1.9181611     -29631580      -29631580       1502.2164     -29630078      -669.93325     -767.70388     -778.99296      26.290206      49.58193      -2.0001386      11827.275    
      7700   502.52441      0.00385        0.068627555    0.078563305    0.079674848   -746.33015      653.24017      653.24017      653.24017      2.7875242e+08  1.9178745     -29631197      -29631197       1496.4319     -29629701      -677.30131     -775.35954     -786.32962      26.156076      49.594977     -1.8792926      12212.227    
      7800   500.58711      0.0039         0.069371564    0.079333533    0.080414541   -753.74501      653.27271      653.27271      653.27271      2.7879408e+08  1.917588      -29630809      -29630809       1490.6629     -29629318      -684.64411     -782.9611      -793.62982      26.038101      49.611189     -1.7628645      12201.595    
      7900   498.65768      0.00395        0.070113856    0.080098539    0.081150922   -761.12614      653.30525      653.30525      653.30525      2.7883574e+08  1.9173015     -29630416      -29630416       1484.9174     -29628931      -691.96995     -790.51112     -800.89733      25.935936      49.628693     -1.6544917      12213.678    
      8000   496.7384       0.004          0.070855245    0.08085864     0.081884443   -768.47875      653.33778      653.33778      653.33778      2.788774e+08   1.917015      -29630018      -29630018       1479.2021     -29628539      -699.2869      -798.01273     -808.13662      25.848838      49.646112     -1.5573816      12216.131    
      8100   494.83131      0.00405        0.071596595    0.081614221    0.082615674   -775.80883      653.37032      653.37032      653.37032      2.7891907e+08  1.9167286     -29629615      -29629615       1473.5231     -29628142      -706.60345     -805.46974     -815.35331      25.776429      49.662521     -1.4747438      11873.529    
      8200   492.93813      0.0041         0.07233886     0.08236573     0.083345297   -783.12324      653.40286      653.40286      653.40286      2.7896074e+08  1.9164423     -29629208      -29629208       1467.8856     -29627740      -713.92904     -812.88655     -822.55413      25.718312      49.676704     -1.4104266      12089.552    
      8300   491.06027      0.00415        0.073082962    0.083113629    0.084074009   -790.42882      653.43539      653.43539      653.43539      2.7900241e+08  1.9161561     -29628795      -29628795       1462.2936     -29627333      -721.27276     -820.26774     -829.74596      25.673774      49.686767     -1.3676171      12144.969    
      8400   489.19884      0.0042         0.073829755    0.083858336    0.084802523   -797.7321       653.46793      653.46793      653.46793      2.7904409e+08  1.9158699     -29628378      -29628378       1456.7506     -29626922      -728.64303     -827.61743     -836.93583      25.642051      49.690281     -1.3477935      12256.054    
      8500   487.35468      0.00425        0.074580031    0.084600211    0.085531521   -805.03911      653.50047      653.50047      653.50047      2.7908578e+08  1.9155837     -29627956      -29627956       1451.259      -29626505      -736.04768     -834.93916     -844.13048      25.622452      49.685865     -1.3511378      12193.745    
      8600   485.52844      0.0043         0.075334387    0.085339627    0.086261581   -812.35495      653.533        653.533        653.533        2.7912746e+08  1.9152976     -29627530      -29627530       1445.8208     -29626084      -743.4926      -842.23664     -851.33562      25.613458      49.672756     -1.3765545      12003.944    
      8700   483.72053      0.00435        0.076093238    0.086077102    0.086993224   -819.68439      653.56554      653.56554      653.56554      2.7916916e+08  1.9150116     -29627098      -29627098       1440.4371     -29625658      -750.98187     -849.51495     -858.55637      25.613062      49.64941      -1.4218862      12235.218    
      8800   481.9312       0.0044         0.076856798    0.086813266    0.087726852   -827.03155      653.59808      653.59808      653.59808      2.7921085e+08  1.9147256     -29626662      -29626662       1435.1088     -29625227      -758.51762     -856.78032     -865.79671      25.619623      49.613759     -1.4842762      12105.198    
      8900   480.16048      0.00445        0.077625149    0.087548592    0.088462684   -834.39896      653.63061      653.63061      653.63061      2.7925255e+08  1.9144397     -29626221      -29626221       1429.8359     -29624792      -766.10066     -864.03742     -873.05881      25.631785      49.564581     -1.5603519      12219.098    
      9000   478.40831      0.0045         0.078398311    0.088283426    0.089200741   -841.7879       653.66315      653.66315      653.66315      2.7929426e+08  1.9141538     -29625776      -29625776       1424.6182     -29624351      -773.73117     -871.28967     -880.34287      25.649263      49.501114     -1.646887       12207.742    
      9100   476.67449      0.00455        0.079176233    0.089018054    0.08994091    -849.19877      653.69569      653.69569      653.69569      2.7933597e+08  1.913868      -29625325      -29625325       1419.4552     -29623906      -781.40867     -878.53988     -887.64777      25.672484      49.422514     -1.7405723      12108.742    
      9200   474.95881      0.0046         0.079958603    0.08975267     0.090682931   -856.63033      653.72822      653.72822      653.72822      2.7937768e+08  1.9135822     -29624870      -29624870       1414.3462     -29623455      -789.13005     -885.78998     -894.97094      25.701996      49.327901     -1.8380654      12221.701    
      9300   473.26101      0.00465        0.080744945    0.090487356    0.091426462   -864.08015      653.76076      653.76076      653.76076      2.794194e+08   1.9132966     -29624409      -29624409       1409.2905     -29623000      -796.89065     -893.04077     -902.30902      25.738308      49.216773     -1.9363532      12180.292    
      9400   471.58085      0.0047         0.081534714    0.09122204     0.092170979   -871.54448      653.7933       653.7933       653.7933       2.7946112e+08  1.9130109     -29623944      -29623944       1404.2872     -29622540      -804.68506     -900.29153     -909.65684      25.781473      49.088919     -2.0327702      12087.562    
      9500   469.91816      0.00475        0.082327309    0.091956711    0.092915901   -879.0194       653.82583      653.82583      653.82583      2.7950284e+08  1.9127253     -29623474      -29623474       1399.336      -29622075      -812.50737     -907.54218     -917.00865      25.830747      48.944196     -2.1247203      12200.148    
      9600   468.27286      0.0048         0.083122007    0.092691371    0.093660724   -886.50087      653.85837      653.85837      653.85837      2.7954457e+08  1.9124398     -29622999      -29622999       1394.4366     -29621605      -820.35042     -914.79271     -924.35947      25.88476       48.781777     -2.2096598      12204.527    
      9700   466.64498      0.00485        0.083917862    0.093425772    0.094404997   -893.98349      653.89091      653.89091      653.89091      2.795863e+08   1.9121543     -29622520      -29622520       1389.5891     -29621130      -828.20491     -922.04068     -931.70488      25.941541      48.600553     -2.2860566      12237.567    
      9800   465.03469      0.0049         0.084713818    0.094159451    0.095148195   -901.46053      653.92344      653.92344      653.92344      2.7962804e+08  1.9118689     -29622035      -29622035       1384.7939     -29620650      -836.06038     -929.28153     -939.03968      25.999444      48.399606     -2.3531674      12114.259    
      9900   463.44231      0.00495        0.085508738    0.094891879    0.095889764   -908.92468      653.95598      653.95598      653.95598      2.7966978e+08  1.9115836     -29621545      -29621545       1380.0521     -29620165      -843.90563     -936.51003     -946.35839      26.057368      48.178239     -2.4110034      12231.725    
     10000   461.86833      0.005          0.086301484    0.095622601    0.096629194   -916.36904      653.98852      653.98852      653.98852      2.7971153e+08  1.9112983     -29621051      -29621051       1375.365      -29619676      -851.72943     -943.7217      -953.656        26.114233      47.935776     -2.4601324      12101.174    
     10100   460.31339      0.00505        0.087090921    0.09635116     0.097365943   -923.78657      654.02105      654.02105      654.02105      2.7975328e+08  1.911013      -29620552      -29620552       1370.7347     -29619181      -859.52057     -950.91202     -960.92714      26.168449      47.672699     -2.5009516      12184.486    
     10200   458.77833      0.0051         0.087875895    0.097077156    0.098099478   -931.17042      654.05359      654.05359      654.05359      2.7979503e+08  1.9107279     -29620048      -29620048       1366.1635     -29618682      -867.26765     -958.07704     -968.16657      26.218365      47.390709     -2.5337722      12217.589    
     10300   457.26411      0.00515        0.088655275    0.097800274    0.098829416   -938.51456      654.08613      654.08613      654.08613      2.7983679e+08  1.9104427     -29619539      -29619539       1361.6545     -29618178      -874.95954     -965.21366     -975.3705       26.262457      47.092987     -2.5585884      12235.168    
     10400   455.77184      0.0052         0.089428201    0.098520369    0.099555546   -945.81501      654.11866      654.11866      654.11866      2.7987855e+08  1.9101577     -29619026      -29619026       1357.2107     -29617669      -882.58773     -972.32045     -982.53685      26.299912      46.78353      -2.5756285      12186.363    
     10500   454.30261      0.00525        0.090193907    0.099237363    0.10027776    -953.0686       654.1512       654.1512       654.1512       2.7992032e+08  1.9098727     -29618508      -29618508       1352.8356     -29617155      -890.14465     -979.39663     -989.66453      26.329047      46.466673     -2.5851338      12264.881    
     10600   452.85752      0.0053         0.090951708    0.099951165    0.10099602    -960.27271      654.18374      654.18374      654.18374      2.7996209e+08  1.9095877     -29617985      -29617985       1348.5324     -29616636      -897.62357     -986.44131     -996.75325      26.347469      46.146948     -2.5873141      12050.506    
     10700   451.43757      0.00535        0.091701096    0.10066156     0.10171027    -967.42472      654.21627      654.21627      654.21627      2.8000387e+08  1.9093028     -29617457      -29617457       1344.304      -29616113      -905.01945     -993.45239     -1003.8023      26.353572      45.828941     -2.5824729      12189.039    
     10800   450.04368      0.0054         0.092441711    0.10136839     0.10242036    -974.52243      654.24881      654.24881      654.24881      2.8004565e+08  1.909018      -29616925      -29616925       1340.1532     -29615585      -912.32875     -1000.4282     -1010.8103      26.345704      45.517455     -2.5707653      12137.644    
     10900   448.67659      0.00545        0.093173304    0.10207143     0.10312609    -981.5637       654.28135      654.28135      654.28135      2.8008743e+08  1.9087332     -29616389      -29616389       1336.0823     -29615053      -919.54901     -1007.3667     -1017.7754      26.321529      45.215601     -2.5520833      12160.182    
     11000   447.33686      0.0055         0.093895781    0.10277045     0.10382741    -988.54723      654.31388      654.31388      654.31388      2.8012922e+08  1.9084484     -29615848      -29615848       1332.0928     -29614516      -926.67931     -1014.2655     -1024.6968      26.278656      44.925727     -2.5267188      12177.115    
     11100   446.0249       0.00555        0.094609218    0.10346538     0.10452434    -995.47312      654.34642      654.34642      654.34642      2.8017101e+08  1.9081638     -29615302      -29615302       1328.186      -29613974      -933.72039     -1021.1239     -1031.575       26.215126      44.650012     -2.4965185      12255.144    
     11200   444.74085      0.0056         0.095313745    0.10415629     0.10521682    -1002.3418      654.37896      654.37896      654.37896      2.802128e+08   1.9078791     -29614752      -29614752       1324.3623     -29613428      -940.67353     -1027.9426     -1038.4093      26.130042      44.390354     -2.4637959      12126.261    
     11300   443.48467      0.00565        0.096009454    0.10484334     0.10590481    -1009.154       654.41149      654.41149      654.41149      2.802546e+08   1.9075946     -29614198      -29614198       1320.6216     -29612877      -947.53964     -1034.7233     -1045.1992      26.023115      44.147553     -2.4311872      12165.088    
     11400   442.25613      0.0057         0.096696426    0.10552675     0.10658847    -1015.9113      654.44403      654.44403      654.44403      2.8029641e+08  1.9073101     -29613639      -29613639       1316.9632     -29612322      -954.31953     -1041.4681     -1051.9464      25.895195      43.921194     -2.4018286      12239.023    
     11500   441.05481      0.00575        0.097374878    0.10620679     0.10726807    -1022.6161      654.47657      654.47657      654.47657      2.8033822e+08  1.9070256     -29613076      -29613076       1313.3859     -29611763      -961.01532     -1048.1795     -1058.6535      25.74805       43.710037     -2.3787696      12262.865    
     11600   439.88009      0.0058         0.098045257    0.1068838      0.1079439     -1029.272       654.5091       654.5091       654.5091       2.8038003e+08  1.9067412     -29612509      -29612509       1309.8878     -29611199      -967.63145     -1054.8611     -1065.3235      25.583619      43.512846     -2.3650666      12251.895    
     11700   438.73118      0.00585        0.098708204    0.10755817     0.10861632    -1035.8835      654.54164      654.54164      654.54164      2.8042185e+08  1.9064569     -29611937      -29611937       1306.4665     -29610631      -974.17423     -1061.5166     -1071.9597      25.404054      43.328834     -2.362981       12270        
     11800   437.60716      0.0059         0.099364477    0.10823037     0.10928574    -1042.4561      654.57418      654.57418      654.57418      2.8046367e+08  1.9061726     -29611362      -29611362       1303.1194     -29610058      -980.65115     -1068.1507     -1078.5664      25.211576      43.157599     -2.3740439      12118.984    
     11900   436.50697      0.00595        0.10001484     0.1089008      0.10995249    -1048.9946      654.60671      654.60671      654.60671      2.8050549e+08  1.9058884     -29610782      -29610782       1299.8432     -29609482      -987.06977     -1074.7673     -1085.1467      25.008322      42.998314     -2.3990705      12120.088    
     12000   435.42948      0.006          0.10066015     0.10956978     0.11061688    -1055.5039      654.63925      654.63925      654.63925      2.8054732e+08  1.9056043     -29610197      -29610197       1296.6346     -29608901      -993.43841     -1081.3696     -1091.7037      24.796709      42.849937     -2.4381364      12175.857    
     12100   434.3735       0.00605        0.10130132     0.11023759     0.11127913    -1061.9888      654.67179      654.67179      654.67179      2.8058915e+08  1.9053201     -29609609      -29609609       1293.4901     -29608316      -999.76633     -1087.9604     -1098.2396      24.579563      42.71163      -2.4910944      12111.516    
     12200   433.33786      0.0061         0.10193934     0.11090442     0.11193945    -1068.4537      654.70433      654.70433      654.70433      2.8063099e+08  1.9050361     -29609017      -29609017       1290.4061     -29607726      -1006.063      -1094.5416     -1104.7565      24.359766      42.583197     -2.558206       12093.323    
     12300   432.32136      0.00615        0.10257518     0.11157047     0.112598      -1074.903       654.73686      654.73686      654.73686      2.8067283e+08  1.9047521     -29608420      -29608420       1287.3792     -29607133      -1012.3383     -1101.1149     -1111.2558      24.140446      42.464884     -2.6385373      12194.005    
     12400   431.32286      0.0062         0.10320979     0.11223586     0.11325485    -1081.3406      654.7694       654.7694       654.7694       2.8071468e+08  1.9044682     -29607819      -29607819       1284.4058     -29606535      -1018.6014     -1107.6818     -1117.7385      23.924223      42.357215     -2.7299945      12061.773    
     12500   430.34123      0.00625        0.10384403     0.11290059     0.11390999    -1087.7691      654.80194      654.80194      654.80194      2.8075653e+08  1.9041843     -29607214      -29607214       1281.4827     -29605933      -1024.8609     -1114.2422     -1124.2042      23.712987      42.260332     -2.8306089      12211.044    
     12600   429.37543      0.0063         0.10447874     0.11356451     0.11456331    -1094.1905      654.83447      654.83447      654.83447      2.8079838e+08  1.9039005     -29606605      -29606605       1278.6067     -29605327      -1031.125      -1120.7945     -1130.6519      23.509197      42.174473     -2.9389454      12175.856    
     12700   428.42449      0.00635        0.10511472     0.11422739     0.11521477    -1100.6066      654.86701      654.86701      654.86701      2.8084024e+08  1.9036167     -29605992      -29605992       1275.775      -29604716      -1037.4016     -1127.3367     -1137.0814      23.315431      42.100189     -3.0541545      12191.036    
     12800   427.48753      0.0064         0.10575265     0.11488896     0.11586458    -1107.0193      654.89955      654.89955      654.89955      2.808821e+08   1.903333      -29605375      -29605375       1272.9849     -29604102      -1043.6975     -1133.8659     -1143.4945      23.133502      42.038067     -3.1751942      12237.41     
     12900   426.56377      0.00645        0.10639317     0.11554897     0.11651316    -1113.4313      654.93208      654.93208      654.93208      2.8092397e+08  1.9030493     -29604753      -29604753       1270.2341     -29603483      -1050.0189     -1140.3796     -1149.8955      22.964401      41.988255     -3.3008452      12231.418    
     13000   425.65249      0.0065         0.10703685     0.1162073      0.11716094    -1119.8457      654.96462      654.96462      654.96462      2.8096584e+08  1.9027657     -29604128      -29604128       1267.5204     -29602860      -1056.3715     -1146.8768     -1156.2886      22.808755      41.950182     -3.4298805      12102.062    
     13100   424.75302      0.00655        0.10768417     0.11686391     0.11780847    -1126.2655      654.99716      654.99716      654.99716      2.8100771e+08  1.9024822     -29603498      -29603498       1264.842      -29602233      -1062.7601     -1153.3571     -1162.6792      22.667178      41.922938     -3.5611942      12238.849    
     13200   423.86476      0.0066         0.10833542     0.11751886     0.11845622    -1132.6935      655.02969      655.02969      655.02969      2.8104959e+08  1.9021987     -29602864      -29602864       1262.1969     -29601602      -1069.1875     -1159.821      -1169.072       22.539752      41.904825     -3.6932696      12198.578    
     13300   422.98721      0.00665        0.10899072     0.11817216     0.11910442    -1139.1308      655.06223      655.06223      655.06223      2.8109148e+08  1.9019153     -29602226      -29602226       1259.5837     -29600966      -1075.6548     -1166.2686     -1175.4692      22.425578      41.8929       -3.8241212      12178.059    
     13400   422.12         0.0067         0.10964993     0.11882372     0.11975313    -1145.5771      655.09477      655.09477      655.09477      2.8113336e+08  1.9016319     -29601584      -29601584       1257.0013     -29600327      -1082.1607     -1172.699      -1181.8715      22.323841      41.883572     -3.9518545      12174.253    
     13500   421.26295      0.00675        0.11031282     0.1194734      0.12040242    -1152.031       655.1273       655.1273       655.1273       2.8117525e+08  1.9013486     -29600937      -29600937       1254.4491     -29599683      -1088.7029     -1179.1108     -1188.2795      22.233777      41.873582     -4.0752953      12085.553    
     13600   420.41595      0.0068         0.11097917     0.12012114     0.1210525     -1158.4927      655.15984      655.15984      655.15984      2.8121715e+08  1.9010653     -29600286      -29600286       1251.9269     -29599034      -1095.2793     -1185.5034     -1194.6953      22.155018      41.860182     -4.1931332      11951.218    
     13700   419.57903      0.00685        0.11164874     0.12076709     0.12170352    -1164.9621      655.19238      655.19238      655.19238      2.8125905e+08  1.9007821     -29599631      -29599631       1249.4347     -29598382      -1101.8874     -1191.8785     -1201.1204      22.087269      41.841304     -4.3042596      12053.318    
     13800   418.75227      0.0069         0.1123211      0.12141146     0.1223555     -1171.4386      655.22491      655.22491      655.22491      2.8130095e+08  1.9004989     -29598972      -29598972       1246.9728     -29597725      -1108.5231     -1198.2379     -1207.5549      22.031141      41.815638     -4.4079631      12199.691    
     13900   417.93588      0.00695        0.11299564     0.12205451     0.12300842    -1177.9211      655.25745      655.25745      655.25745      2.8134286e+08  1.9002158     -29598309      -29598309       1244.5417     -29597064      -1115.1803     -1204.5844     -1213.9987      21.987151      41.782161     -4.5032733      11769.556    
     14000   417.1301       0.007          0.11367156     0.12269656     0.12366211    -1184.4074      655.28999      655.28999      655.28999      2.8138477e+08  1.8999328     -29597641      -29597641       1242.1422     -29596399      -1121.8511     -1210.9209     -1220.4501      21.956028      41.739489     -4.5892905      12118.706    
     14100   416.33528      0.00705        0.11434788     0.12333784     0.12431624    -1190.8938      655.32252      655.32252      655.32252      2.8142669e+08  1.8996498     -29596969      -29596969       1239.7754     -29595729      -1128.5258     -1217.2498     -1226.9059      21.938619      41.686559     -4.6652957      12140.519    
     14200   415.55186      0.0071         0.11502365     0.12397864     0.12497042    -1197.3771      655.35506      655.35506      655.35506      2.8146861e+08  1.8993669     -29596293      -29596293       1237.4425     -29595056      -1135.1951     -1223.5741     -1233.3622      21.935549      41.622923     -4.7306487      12166.337    
     14300   414.78031      0.00715        0.11569801     0.12461939     0.1256242     -1203.8543      655.3876       655.3876       655.3876       2.8151054e+08  1.899084      -29595613      -29595613       1235.1449     -29594378      -1141.8506     -1229.8978     -1239.8144      21.947295      41.548716     -4.7852765      12016.42     
     14400   414.02116      0.0072         0.1163702      0.12526049     0.12627705    -1210.3223      655.42013      655.42013      655.42013      2.8155247e+08  1.8988012     -29594928      -29594928       1232.8843     -29593695      -1148.4845     -1236.2249     -1246.2576      21.974028      41.464609     -4.829623       12203.52     
     14500   413.27495      0.00725        0.11703951     0.1259023      0.12692855    -1216.7789      655.45267      655.45267      655.45267      2.815944e+08   1.8985185     -29594239      -29594239       1230.6622     -29593009      -1155.0902     -1242.5591     -1252.6874      22.015501      41.37194      -4.8638461      12171.98     
     14600   412.54217      0.0073         0.1177055      0.12654522     0.12757847    -1223.2229      655.48521      655.48521      655.48521      2.8163634e+08  1.8982358     -29593547      -29593547       1228.4801     -29592318      -1161.663      -1248.9042     -1259.1016      22.071166      41.272597     -4.8881651      12224.791    
     14700   411.82321      0.00735        0.11836777     0.12718948     0.12822667    -1229.6535      655.51774      655.51774      655.51774      2.8167828e+08  1.8979531     -29592849      -29592849       1226.3392     -29591623      -1168.1991     -1255.2625     -1265.4988      22.140061      41.169259     -4.902605       12090.827    
     14800   411.11839      0.0074         0.11902599     0.12783533     0.12887307    -1236.07        655.55028      655.55028      655.55028      2.8172022e+08  1.8976705     -29592148      -29592148       1224.2404     -29590924      -1174.6952     -1261.6366     -1271.8783      22.221008      41.064463     -4.9071299      12165.469    
     14900   410.42791      0.00745        0.11967999     0.12848278     0.12951755    -1242.4716      655.58282      655.58282      655.58282      2.8176217e+08  1.897388      -29591443      -29591443       1222.1842     -29590220      -1181.1497     -1268.0265     -1278.2388      22.312443      40.959884     -4.901049       12150.239    
     15000   409.75192      0.0075         0.12032973     0.12913166     0.13015988    -1248.8569      655.61535      655.61535      655.61535      2.8180413e+08  1.8971055     -29590733      -29590733       1220.1712     -29589513      -1187.5621     -1274.4304     -1284.5781      22.412778      40.856982     -4.8829377      12216.016    
     15100   409.09051      0.00755        0.1209752      0.12978174     0.13079969    -1255.2237      655.64789      655.64789      655.64789      2.8184608e+08  1.8968231     -29590019      -29590019       1218.2017     -29588801      -1193.9324     -1280.8462     -1290.8926      22.520387      40.757095     -4.8515741      12122.164    
     15200   408.44379      0.0076         0.12161644     0.13043271     0.13143649    -1261.5697      655.68043      655.68043      655.68043      2.8188805e+08  1.8965407     -29589301      -29589301       1216.2759     -29588085      -1200.261      -1287.2708     -1297.1773      22.633551      40.661291     -4.8065448      12055.89     
     15300   407.81186      0.00765        0.12225366     0.13108426     0.13206972    -1267.8926      655.71296      655.71296      655.71296      2.8193001e+08  1.8962584     -29588579      -29588579       1214.3941     -29587364      -1206.5498     -1293.7011     -1303.4268      22.750756      40.570712     -4.7474298      12078.886    
     15400   407.19484      0.0077         0.12288719     0.13173611     0.13269898    -1274.1912      655.7455       655.7455       655.7455       2.8197198e+08  1.8959762     -29587853      -29587853       1212.5567     -29586640      -1212.8023     -1300.1344     -1309.6371      22.870491      40.486392     -4.674474       12127.755    
     15500   406.5928       0.00775        0.12351742     0.13238804     0.13332393    -1280.4651      655.77804      655.77804      655.77804      2.8201396e+08  1.895694      -29587122      -29587122       1210.7639     -29585911      -1219.0222     -1306.5684     -1315.8049      22.989991      40.408814     -4.5886374      11930.751    
     15600   406.00583      0.0078         0.12414459     0.13303978     0.13394429    -1286.7132      655.81057      655.81057      655.81057      2.8205594e+08  1.8954119     -29586388      -29586388       1209.016      -29585179      -1225.2119     -1313.0005     -1321.9273      23.106013      40.337738     -4.4910239      12168.492    
     15700   405.43402      0.00785        0.12476886     0.13369095     0.13455979    -1292.934       655.84311      655.84311      655.84311      2.8209792e+08  1.8951298     -29585649      -29585649       1207.3133     -29584442      -1231.3729     -1319.4271     -1328.0019      23.216108      40.272003     -4.3822829      12164.947    
     15800   404.87748      0.0079         0.12539054     0.13434116     0.13517033    -1299.1267      655.87565      655.87565      655.87565      2.8213991e+08  1.8948477     -29584907      -29584907       1205.656      -29583701      -1237.5084     -1325.8442     -1334.0274      23.31769       40.21035      -4.2634567      12180.433    
     15900   404.3363       0.00795        0.1260101      0.13499013     0.13577591    -1305.292       655.90818      655.90818      655.90818      2.821819e+08   1.8945658     -29584160      -29584160       1204.0445     -29582956      -1243.623      -1332.249      -1340.0041      23.407519      40.15167      -4.1357706      12107.479    
     16000   403.8105       0.008          0.12662808     0.13563766     0.13637649    -1311.431       655.94072      655.94072      655.94072      2.8222389e+08  1.8942839     -29583409      -29583409       1202.4787     -29582207      -1249.722      -1338.6396     -1345.9313      23.482233      40.094306     -4.0004472      12202.211    
     16100   403.30006      0.00805        0.127245       0.13628357     0.13697203    -1317.5445      655.97326      655.97326      655.97326      2.8226589e+08  1.894002      -29582655      -29582655       1200.9587     -29581454      -1255.8105     -1345.0143     -1351.8088      23.539032      40.036223     -3.8592469      12072.03     
     16200   402.80483      0.0081         0.12786151     0.13692784     0.13756276    -1323.6355      656.00579      656.00579      656.00579      2.823079e+08   1.8937202     -29581896      -29581896       1199.484      -29580697      -1261.895      -1351.3727     -1357.6389      23.575871      39.975619     -3.7134901      12226.052    
     16300   402.32452      0.00815        0.12847833     0.13757056     0.13814907    -1329.7079      656.03833      656.03833      656.03833      2.8234991e+08  1.8934384     -29581134      -29581134       1198.0537     -29579935      -1267.9826     -1357.7159     -1363.4253      23.590731      39.910806     -3.5640281      12245.698    
     16400   401.85861      0.0082         0.12909618     0.13821195     0.13873149    -1335.7665      656.07087      656.07087      656.07087      2.8239192e+08  1.8931568     -29580367      -29580367       1196.6663     -29579170      -1274.0803     -1364.0458     -1369.1734      23.581486      39.839332     -3.4116485      12081.224    
     16500   401.40641      0.00825        0.12971569     0.13885227     0.13931052    -1341.8159      656.1034       656.1034       656.1034       2.8243393e+08  1.8928751     -29579597      -29579597       1195.3197     -29578402      -1280.1943     -1370.3654     -1374.8879      23.546816      39.758868     -3.2573556      12115.022    
     16600   400.96703      0.0083         0.13033746     0.13949178     0.13988667    -1347.8605      656.13594      656.13594      656.13594      2.8247595e+08  1.8925935     -29578823      -29578823       1194.0113     -29577629      -1286.3307     -1376.6769     -1380.5741      23.486355      39.668058     -3.1021409      12175.602    
     16700   400.53945      0.00835        0.13096201     0.14013055     0.14046047    -1353.9042      656.16848      656.16848      656.16848      2.8251798e+08  1.892312      -29578045      -29578045       1192.7381     -29576852      -1292.4946     -1382.981      -1386.237       23.399862      39.565655     -2.947376       12101.613    
     16800   400.12255      0.0084         0.13158977     0.14076852     0.14103245    -1359.9498      656.20102      656.20102      656.20102      2.8256001e+08  1.8920305     -29577263      -29577263       1191.4966     -29576071      -1298.69       -1389.2773     -1391.8821      23.286422      39.450411     -2.7944068      12233.6      
     16900   399.71516      0.00845        0.13222102     0.14140564     0.14160313    -1365.9998      656.23355      656.23355      656.23355      2.8260204e+08  1.8917491     -29576477      -29576477       1190.2835     -29575287      -1304.92       -1395.5651     -1397.5142      23.145537      39.32168      -2.6442114      12186.865    
     17000   399.3161       0.0085         0.13285594     0.14204179     0.14217294    -1372.0558      656.26609      656.26609      656.26609      2.8264408e+08  1.8914678     -29575688      -29575688       1189.0952     -29574499      -1311.1862     -1401.8435     -1403.1379      22.977824      39.179548     -2.497355       12198.721    
     17100   398.92427      0.00855        0.13349454     0.14267685     0.14274233    -1378.119       656.29863      656.29863      656.29863      2.8268612e+08  1.8911865     -29574894      -29574894       1187.9283     -29573707      -1317.4887     -1408.111      -1408.7573      22.783908      39.024434     -2.3541956      11984.619    
     17200   398.53865      0.0086         0.13413672     0.1433106      0.14331174    -1384.1897      656.33116      656.33116      656.33116      2.8272816e+08  1.8909052     -29574097      -29574097       1186.78       -29572910      -1323.8265     -1414.3657     -1414.3769      22.564483      38.856689     -2.2159443      12044.968    
     17300   398.15839      0.00865        0.13478213     0.14394278     0.14388157    -1390.2673      656.3637       656.3637       656.3637       2.8277021e+08  1.890624      -29573296      -29573296       1185.6477     -29572111      -1330.1962     -1420.6048     -1420.0007      22.321058      38.677631     -2.0842317      12071.288    
     17400   397.78279      0.0087         0.13543029     0.144573       0.14445227    -1396.3502      656.39624      656.39624      656.39624      2.8281227e+08  1.8903429     -29572491      -29572491       1184.5292     -29571307      -1336.593      -1426.8245     -1425.6331      22.05543       38.489455     -1.9606335      12180.672    
     17500   397.41131      0.00875        0.13608066     0.1452009      0.14502437    -1402.4375      656.42877      656.42877      656.42877      2.8285433e+08  1.8900618     -29571682      -29571682       1183.423      -29570499      -1343.0117     -1433.0214     -1431.2793      21.769389      38.293881     -1.846127       12204.023    
     17600   397.04354      0.0088         0.13673263     0.14582612     0.1455983     -1408.5272      656.46131      656.46131      656.46131      2.8289639e+08  1.8897808     -29570870      -29570870       1182.3279     -29569687      -1349.4461     -1439.1919     -1436.9435      21.46489       38.09272      -1.7414194      12173.092    
     17700   396.6792       0.00885        0.13738548     0.14644835     0.14617451    -1414.6174      656.49385      656.49385      656.49385      2.8293846e+08  1.8894998     -29570053      -29570053       1181.2429     -29568872      -1355.8893     -1445.3329     -1442.6302      21.144551      37.887971     -1.6473153      12237.884    
     17800   396.31818      0.0089         0.13803864     0.14706733     0.14675341    -1420.7069      656.52638      656.52638      656.52638      2.8298053e+08  1.8892189     -29569233      -29569233       1180.1679     -29568053      -1362.3354     -1451.4417     -1448.3436      20.812028      37.681441     -1.5648393      12204.53     
     17900   395.96045      0.00895        0.1386915      0.14768272     0.14733537    -1426.7936      656.55892      656.55892      656.55892      2.830226e+08   1.8889381     -29568408      -29568408       1179.1026     -29567229      -1368.7787     -1457.5152     -1454.087       20.472164      37.475031     -1.4955214      12136.205    
     18000   395.60613      0.009          0.13934329     0.14829404     0.14792058    -1432.8741      656.59146      656.59146      656.59146      2.8306468e+08  1.8886573     -29567580      -29567580       1178.0475     -29566402      -1375.2114     -1463.5484     -1459.8626      20.130409      37.270383     -1.4418011      12134.216    
     18100   395.25546      0.00905        0.13999323     0.14890078     0.14850901    -1438.944       656.62399      656.62399      656.62399      2.8310676e+08  1.8883765     -29566748      -29566748       1177.0033     -29565571      -1381.6257     -1469.5364     -1465.6699      19.792315      37.069813     -1.40563        12218.252    
     18200   394.90878      0.0091         0.14064061     0.14950261     0.14910052    -1444.9996      656.65653      656.65653      656.65653      2.8314885e+08  1.8880958     -29565912      -29565912       1175.9709     -29564736      -1388.0149     -1475.4761     -1471.5077      19.463317      36.876297     -1.3876193      11917.281    
     18300   394.5665       0.00915        0.14128497     0.15009943     0.14969502    -1451.0385      656.68907      656.68907      656.68907      2.8319094e+08  1.8878152     -29565073      -29565073       1174.9517     -29563898      -1394.3743     -1481.3662     -1477.375       19.147795      36.69292      -1.3876564      12054.618    
     18400   394.22903      0.0092         0.14192611     0.15069126     0.15029239    -1457.0598      656.7216       656.7216       656.7216       2.8323304e+08  1.8875346     -29564229      -29564229       1173.9467     -29563055      -1400.7018     -1487.2071     -1483.2705      18.848863      36.521637     -1.4052934      12066.694    
     18500   393.89677      0.00925        0.14256374     0.15127814     0.15089236    -1463.0619      656.75414      656.75414      656.75414      2.8327514e+08  1.8872541     -29563382      -29563382       1172.9573     -29562209      -1406.9947     -1492.9992     -1489.1918      18.568885      36.363497     -1.4401979      12100.414    
     18600   393.57011      0.0093         0.14319753     0.15186019     0.15149461    -1469.043       656.78668      656.78668      656.78668      2.8331724e+08  1.8869736     -29562531      -29562531       1171.9846     -29561359      -1413.2498     -1498.7435     -1495.1356      18.309646      36.218861     -1.4924782      12202.738    
     18700   393.24943      0.00935        0.14382702     0.15243757     0.15209873    -1475.0006      656.81921      656.81921      656.81921      2.8335935e+08  1.8866932     -29561676      -29561676       1171.0297     -29560505      -1419.4623     -1504.4418     -1501.0978      18.072323      36.087206     -1.5622478      12067.571    
     18800   392.9351       0.0094         0.1444517      0.15301049     0.1527042     -1480.9323      656.85175      656.85175      656.85175      2.8340146e+08  1.8864129     -29560817      -29560817       1170.0936     -29559647      -1425.6274     -1510.0961     -1507.0733      17.85806       35.967613     -1.6488531      12172.257    
     18900   392.6275       0.00945        0.14507109     0.15357924     0.15331033    -1486.835       656.88429      656.88429      656.88429      2.8344358e+08  1.8861326     -29559955      -29559955       1169.1776     -29558786      -1431.7403     -1515.7093     -1513.0554      17.667476      35.859635     -1.7514618      12123.687    
     19000   392.32696      0.0095         0.14568491     0.15414412     0.15391653    -1492.7068      656.91682      656.91682      656.91682      2.834857e+08   1.8858523     -29559089      -29559089       1168.2827     -29557921      -1437.7983     -1521.2842     -1519.038       17.500419      35.762905     -1.8692861      12181.876    
     19100   392.03379      0.00955        0.14629303     0.15470538     0.15452223    -1498.5464      656.94936      656.94936      656.94936      2.8352782e+08  1.8855722     -29558219      -29558219       1167.4097     -29557052      -1443.7999     -1526.8234     -1525.0159      17.3559        35.676459     -2.0008669      12072.91     
     19200   391.74818      0.0096         0.14689544     0.15526327     0.15512708    -1504.3532      656.9819       656.9819       656.9819       2.8356995e+08  1.885292      -29557346      -29557346       1166.5592     -29556179      -1449.7452     -1532.3293     -1530.9852      17.232423      35.598732     -2.1450118      12204.904    
     19300   391.47025      0.00965        0.14749218     0.1558181      0.15573074    -1510.1276      657.01443      657.01443      657.01443      2.8361208e+08  1.8850119     -29556469      -29556469       1165.7316     -29555303      -1455.6347     -1537.8051     -1536.9429      17.127556      35.527781     -2.3005091      12160.272    
     19400   391.20002      0.0097         0.14808336     0.15637036     0.15633296    -1515.8703      657.04697      657.04697      657.04697      2.8365422e+08  1.8847319     -29555588      -29555588       1164.9269     -29554423      -1461.4691     -1543.2554     -1542.8864      17.037953      35.46139      -2.4651215      12253.942    
     19500   390.93744      0.00975        0.14866917     0.15692039     0.15693347    -1521.5825      657.07951      657.07951      657.07951      2.8369636e+08  1.884452      -29554703      -29554703       1164.1449     -29553539      -1467.2506     -1548.6839     -1548.8129      16.959867      35.398466     -2.6364287      12086.034    
     19600   390.68244      0.0098         0.14924991     0.15746846     0.15753207    -1527.2652      657.11204      657.11204      657.11204      2.8373851e+08  1.884172      -29553815      -29553815       1163.3856     -29552652      -1472.9821     -1554.0928     -1554.7207      16.888571      35.338579     -2.8127152      12247.564    
     19700   390.43485      0.00985        0.14982604     0.15801494     0.15812868    -1532.921       657.14458      657.14458      657.14458      2.8378066e+08  1.8838922     -29552923      -29552923       1162.6483     -29551761      -1478.668      -1559.4862     -1560.6087      16.819846      35.280232     -2.9923477      12112.142    
     19800   390.1944       0.0099         0.15039802     0.15856005     0.15872303    -1538.5512      657.17712      657.17712      657.17712      2.8382281e+08  1.8836124     -29552028      -29552028       1161.9323     -29550866      -1484.3131     -1564.866      -1566.4745      16.750682      35.221613     -3.1732452      12209.185    
     19900   389.96075      0.00995        0.15096633     0.15910401     0.15931479    -1544.157       657.20965      657.20965      657.20965      2.8386497e+08  1.8833326     -29551129      -29551129       1161.2365     -29549968      -1489.9218     -1570.2345     -1572.3148      16.679583      35.160874     -3.3530655      12186.481    
     20000   389.7335       0.01           0.15153136     0.15964716     0.15990359    -1549.7396      657.24219      657.24219      657.24219      2.8390713e+08  1.883053      -29550226      -29550226       1160.5598     -29549066      -1495.4982     -1575.5949     -1578.1258      16.605759      35.096258     -3.5287557      2555.9861    
     20100   389.51225      0.01005        0.15209344     0.16018991     0.16048903    -1555.3002      657.27473      657.27473      657.27473      2.839493e+08   1.8827733     -29549320      -29549320       1159.901      -29548160      -1501.0456     -1580.9515     -1583.9036      16.527764      35.026911     -3.6969372      12092.847    
     20200   389.29655      0.0101         0.15265293     0.16073273     0.16107065    -1560.8399      657.30726      657.30726      657.30726      2.8399147e+08  1.8824937     -29548411      -29548411       1159.2587     -29547251      -1506.5672     -1586.3087     -1589.6438      16.443981      34.952277     -3.8546676      12212.221    
     20300   389.08601      0.01015        0.15321017     0.16127595     0.16164799    -1566.3594      657.3398       657.3398       657.3398       2.8403365e+08  1.8822142     -29547497      -29547497       1158.6317     -29546339      -1512.0668     -1591.6699     -1595.3416      16.353683      34.871705     -3.9999327      12155.225    
     20400   388.88026      0.0102         0.15376565     0.16181981     0.16222061    -1571.8597      657.37234      657.37234      657.37234      2.8407582e+08  1.8819348     -29546581      -29546581       1158.019      -29545423      -1517.549      -1597.0374     -1600.9929      16.257535      34.785602     -4.1310609      12101.774    
     20500   388.67907      0.01025        0.15431985     0.16236452     0.16278819    -1577.3421      657.40487      657.40487      657.40487      2.8411801e+08  1.8816553     -29545660      -29545660       1157.4199     -29544503      -1523.0185     -1602.4132     -1606.5945      16.157302      34.694575     -4.2467341      12200.685    
     20600   388.48228      0.0103         0.15487316     0.1629102      0.16335055    -1582.8075      657.43741      657.43741      657.43741      2.8416019e+08  1.881376      -29544736      -29544736       1156.8339     -29543580      -1528.4793     -1607.7986     -1612.1446      16.054635      34.598713     -4.3460614      12013.755    
     20700   388.2898       0.01035        0.15542591     0.16345689     0.16390762    -1588.257       657.46995      657.46995      657.46995      2.8420239e+08  1.8810967     -29543809      -29543809       1156.2607     -29542653      -1533.9344     -1613.1941     -1617.6424      15.950704      34.498198     -4.4285999      12164.581    
     20800   388.10164      0.0104         0.15597835     0.16400456     0.16445942    -1593.6913      657.50248      657.50248      657.50248      2.8424458e+08  1.8808174     -29542878      -29542878       1155.7004     -29541722      -1539.3866     -1618.5992     -1623.0883      15.847449      34.393853     -4.4938461      12031.259    
     20900   387.91791      0.01045        0.15653066     0.16455324     0.16500619    -1599.1121      657.53502      657.53502      657.53502      2.8428678e+08  1.8805382     -29541943      -29541943       1155.1533     -29540788      -1544.8375     -1624.0142     -1628.4845      15.747183      34.286533     -4.5410345      12136.067    
     21000   387.73882      0.0105         0.15708303     0.16510306     0.16554825    -1604.5212      657.56756      657.56756      657.56756      2.8432899e+08  1.8802591     -29541005      -29541005       1154.62       -29539851      -1550.289      -1629.4405     -1633.8342      15.652905      34.176883     -4.5694253      12221.108    
     21100   387.56466      0.01055        0.15763562     0.16565414     0.16608588    -1609.9207      657.6001       657.6001       657.6001       2.8437119e+08  1.87998       -29540064      -29540064       1154.1014     -29538910      -1555.7426     -1634.8792     -1639.1402      15.568326      34.065451     -4.5783316      12062.84     
     21200   387.39578      0.0106         0.15818858     0.16620662     0.16661954    -1615.3129      657.63263      657.63263      657.63263      2.8441341e+08  1.879701      -29539119      -29539119       1153.5985     -29537965      -1561.1999     -1640.3318     -1644.407       15.496763      33.953447     -4.5674756      12066.225    
     21300   387.23253      0.01065        0.15874207     0.16676051     0.16714974    -1620.7001      657.66517      657.66517      657.66517      2.8445562e+08  1.879422      -29538170      -29538170       1153.1123     -29537017      -1566.6624     -1645.7983     -1649.6397      15.440482      33.84316      -4.5368691      12202.421    
     21400   387.07525      0.0107         0.15929629     0.16731572     0.16767693    -1626.0842      657.69771      657.69771      657.69771      2.8449784e+08  1.8791431     -29537218      -29537218       1152.644      -29536066      -1572.1321     -1651.2777     -1654.8427      15.399942      33.736996     -4.4870564      12157.808    
     21500   386.92423      0.01075        0.15985142     0.16787198     0.16820163    -1631.4665      657.73024      657.73024      657.73024      2.8454007e+08  1.8788643     -29536263      -29536263       1152.1943     -29535111      -1577.6109     -1656.7677     -1660.021       15.37452       33.637153     -4.4194051      12138.733    
     21600   386.77971      0.0108         0.16040746     0.16842905     0.16872443    -1636.8482      657.76278      657.76278      657.76278      2.845823e+08   1.8785855     -29535304      -29535304       1151.7639     -29534152      -1583.0986     -1662.2655     -1665.1807      15.363074      33.545318     -4.3354857      12060.912    
     21700   386.64191      0.01085        0.16096423     0.16898674     0.16924584    -1642.2298      657.79532      657.79532      657.79532      2.8462453e+08  1.8783067     -29534342      -29534342       1151.3536     -29533190      -1588.5934     -1667.7695     -1670.3266      15.365319      33.462872     -4.2367742      12051.442    
     21800   386.51101      0.0109         0.16152131     0.1695448      0.16976623    -1647.6103      657.82785      657.82785      657.82785      2.8466677e+08  1.878028      -29533376      -29533376       1150.9638     -29532225      -1594.0914     -1673.2771     -1675.4624      15.38172       33.39097      -4.1245876      12118.412    
[...]
    862300   333.7293       0.43115        0.062353486    0.061862723    0.06253106    -614.35075      931.29917      931.29917      931.29917      8.0773267e+08  0.6618677     -21043514      -21043514       993.78885     -21042520      -615.38106     -610.5376      -617.13358      3.2864099      2.5133424      2.7626214      12308.748    
    862400   333.71456      0.4312         0.062338166    0.06185639     0.062522365   -614.25091      931.33171      931.33171      931.33171      8.0781733e+08  0.66179834    -21042778      -21042778       993.74496     -21041784      -615.22986     -610.4751      -617.04776      3.2526796      2.4647839      2.7570928      12147.169    
    862500   333.70028      0.43125        0.062322285    0.061850708    0.062513289   -614.15012      931.36424      931.36424      931.36424      8.07902e+08    0.66172898    -21042042      -21042042       993.70246     -21041049      -615.07313     -610.41903     -616.9582       3.22016        2.416794       2.7520984      12535.684    
    862600   333.68643      0.4313         0.06230595     0.061845617    0.062503836   -614.04854      931.39678      931.39678      931.39678      8.0798667e+08  0.66165964    -21041307      -21041307       993.66122     -21040313      -614.91192     -610.36879     -616.8649       3.1896984      2.3695836      2.7479503      12282.123    
    862700   333.67302      0.43135        0.062289293    0.061841052    0.062494007   -613.94638      931.42932      931.42932      931.42932      8.0807135e+08  0.6615903     -21040571      -21040571       993.62127     -21039578      -614.74752     -610.32373     -616.7679       3.1619318      2.3233312      2.7450846      12188.903    
    862800   333.6601       0.4314         0.062272452    0.061836939    0.062483802   -613.84388      931.46185      931.46185      931.46185      8.0815604e+08  0.66152097    -21039836      -21039836       993.58281     -21038842      -614.58131     -610.28314     -616.66718      3.1373105      2.2780703      2.7440498      12318.768    
    862900   333.64779      0.43145        0.062255576    0.061833205    0.062473255   -613.74138      931.49439      931.49439      931.49439      8.0824073e+08  0.66145165    -21039101      -21039101       993.54615     -21038107      -614.41476     -610.24628     -616.56309      3.1162244      2.2338922      2.7454688      12080.132    
    863000   333.63621      0.4315         0.062238805    0.061829745    0.062462409   -613.63914      931.52693      931.52693      931.52693      8.0832543e+08  0.66138235    -21038366      -21038366       993.51168     -21037372      -614.24925     -610.21214     -616.45605      3.0991563      2.1910804      2.7498533      12101.373    
    863100   333.62554      0.43155        0.062222293    0.061826459    0.062451289   -613.53743      931.55946      931.55946      931.55946      8.0841013e+08  0.66131305    -21037630      -21037630       993.47988     -21036637      -614.08628     -610.17971     -616.3463       3.0866454      2.150223       2.7576755      12375.778    
    863200   333.61594      0.4316         0.06220618     0.061823273    0.062439911   -613.43651      931.592        931.592        931.592        8.0849484e+08  0.66124376    -21036895      -21036895       993.45129     -21035902      -613.92727     -610.14827     -616.23401      3.0793268      2.1120966      2.7692813      12293.305    
    863300   333.60763      0.43165        0.062190575    0.061820109    0.062428304   -613.33659      931.62454      931.62454      931.62454      8.0857955e+08  0.66117448    -21036160      -21036160       993.42656     -21035167      -613.77326     -610.11704     -616.11946      3.0777913      2.0774018      2.784965       12138.643    
    863400   333.60086      0.4317         0.062175558    0.061816892    0.062416529   -613.23786      931.65707      931.65707      931.65707      8.0866428e+08  0.66110521    -21035425      -21035425       993.4064      -21034432      -613.62505     -610.08529     -616.00325      3.0825271      2.0466743      2.8049743      12383.895    
    863500   333.59589      0.43175        0.0621612      0.061813528    0.062404656   -613.1405       931.68961      931.68961      931.68961      8.08749e+08    0.66103595    -21034691      -21034691       993.3916      -21033697      -613.48334     -610.05209     -615.88607      3.0938047      2.0204093      2.829527       12194.52     
    863600   333.593        0.4318         0.062147559    0.061809931    0.062392751   -613.04463      931.72215      931.72215      931.72215      8.0883374e+08  0.6609667     -21033956      -21033956       993.38299     -21032962      -613.34872     -610.01659     -615.76858      3.1116099      1.9992229      2.8588405      12278.172    
    863700   333.59247      0.43185        0.062134705    0.06180608     0.06238088    -612.95062      931.75468      931.75468      931.75468      8.0891847e+08  0.66089746    -21033221      -21033221       993.3814      -21032228      -613.22186     -609.97858     -615.65142      3.1358164      1.9838762      2.8929832      12296.121    
    863800   333.59456      0.4319         0.062122709    0.06180196     0.062369086   -612.85881      931.78722      931.78722      931.78722      8.0900322e+08  0.66082823    -21032486      -21032486       993.38762     -21031493      -613.10347     -609.93793     -615.53502      3.1661841      1.9750398      2.9319379      11907.011    
    863900   333.59952      0.43195        0.062111643    0.061797585    0.062357408   -612.76959      931.81976      931.81976      931.81976      8.0908797e+08  0.66075901    -21031752      -21031752       993.40241     -21030758      -612.99426     -609.89474     -615.41977      3.2023218      1.9731932      2.9754432      12246.484    
    864000   333.60759      0.432          0.062101547    0.061792998    0.062345894   -612.68341      931.85229      931.85229      931.85229      8.0917273e+08  0.6606898     -21031017      -21031017       993.42643     -21030024      -612.89462     -609.84948     -615.30613      3.2437888      1.9785437      3.0228428      12264.476    
    864100   333.61892      0.43205        0.06209243     0.061788232    0.062334602   -612.60059      931.88483      931.88483      931.88483      8.0925749e+08  0.6606206     -21030282      -21030282       993.46017     -21029289      -612.80464     -609.80244     -615.19469      3.2901361      1.9912802      3.0733834      12356.281    
    864200   333.63364      0.4321         0.062084306    0.061783297    0.062323616   -612.52149      931.91737      931.91737      931.91737      8.0934226e+08  0.66055141    -21029548      -21029548       993.50399     -21028554      -612.72447     -609.75373     -615.08627      3.3408357      2.0115037      3.1263068      12128.714    
    864300   333.65178      0.43215        0.062077187    0.061778194    0.06231304    -612.44649      931.9499       931.9499       931.9499       8.0942703e+08  0.66048222    -21028813      -21028813       993.55802     -21027820      -612.6542      -609.70337     -614.98189      3.395259       2.0390072      3.1808219      12287.93     
    864400   333.67332      0.4322         0.062071066    0.061772954    0.062303      -612.37608      931.98244      931.98244      931.98244      8.0951181e+08  0.66041305    -21028079      -21028079       993.62216     -21027085      -612.59379     -609.65165     -614.8828       3.4525488      2.0734192      3.2360766      12375.365    
    864500   333.69812      0.43225        0.06206594     0.061767649    0.062293642   -612.31098      932.01498      932.01498      932.01498      8.095966e+08   0.66034389    -21027345      -21027345       993.69602     -21026351      -612.5432      -609.5993      -614.79044      3.5117561      2.1140849      3.2912951      12117.28     
    864600   333.72593      0.4323         0.062061812    0.061762378    0.062285083   -612.25191      932.04751      932.04751      932.04751      8.0968139e+08  0.66027473    -21026610      -21026610       993.77882     -21025616      -612.50246     -609.54728     -614.70598      3.5721038      2.1601263      3.3457684      12490.145    
    864700   333.75635      0.43235        0.062058689    0.061757254    0.06227742    -612.19957      932.08005      932.08005      932.08005      8.0976619e+08  0.66020559    -21025876      -21025876       993.86941     -21024882      -612.47164     -609.49671     -614.63035      3.6329662      2.2104522      3.398887       12262.859    
    864800   333.78888      0.4324         0.062056589    0.061752389    0.062270745   -612.1547       932.11259      932.11259      932.11259      8.0985099e+08  0.66013646    -21025141      -21025141       993.96629     -21024147      -612.45092     -609.4487      -614.56447      3.6936342      2.263896       3.4501012      12340.785    
    864900   333.82293      0.43245        0.062055516    0.061747871    0.062265126   -612.11782      932.14513      932.14513      932.14513      8.099358e+08   0.66006733    -21024407      -21024407       994.06769     -21023413      -612.44033     -609.40411     -614.50902      3.7533932      2.3193639      3.4987916      12212.819    
    865000   333.85782      0.4325         0.062055449    0.061743797    0.062260599   -612.0893       932.17766      932.17766      932.17766      8.1002062e+08  0.65999822    -21023673      -21023673       994.17159     -21022678      -612.43966     -609.3639      -614.46434      3.8117231      2.3758231      3.5445487      12229.331    
    865100   333.89285      0.43255        0.06205633     0.061740271    0.062257159   -612.06928      932.2102       932.2102       932.2102       8.1010544e+08  0.65992911    -21022938      -21022938       994.27588     -21021944      -612.44836     -609.3291      -614.43038      3.868104       2.4323704      3.5872311      12260.717    
    865200   333.92729      0.4326         0.062058081    0.061737381    0.062254762   -612.05765      932.24274      932.24274      932.24274      8.1019027e+08  0.65986002    -21022204      -21022204       994.37846     -21021209      -612.46564     -609.30058     -614.40673      3.921888       2.488241       3.6267568      12187.249    
    865300   333.96048      0.43265        0.062060607    0.061735222    0.062253366   -612.05427      932.27527      932.27527      932.27527      8.102751e+08   0.65979093    -21021469      -21021469       994.47727     -21020475      -612.49057     -609.27927     -614.39295      3.9724241      2.5427516      3.6630971      12186.152    
    865400   333.99173      0.4327         0.062063769    0.061733834    0.062252898   -612.05856      932.30781      932.30781      932.30781      8.1035994e+08  0.65972186    -21020734      -21020734       994.57034     -21019740      -612.52178     -609.26557     -614.38833      4.0192111      2.5954176      3.6963291      12195.666    
    865500   334.02044      0.43275        0.062067387    0.061733179    0.062253224   -612.06938      932.34035      932.34035      932.34035      8.1044479e+08  0.65965279    -21020000      -21020000       994.65584     -21019005      -612.55749     -609.25911     -614.39155      4.0617815      2.6458794      3.7264499      12277.644    
    865600   334.04609      0.4328         0.062071265    0.06173318     0.06225417    -612.08526      932.37288      932.37288      932.37288      8.1052964e+08  0.65958373    -21019265      -21019265       994.73223     -21018270      -612.59576     -609.25912     -614.40089      4.0996182      2.6937903      3.7533494      12339.905    
    865700   334.06828      0.43285        0.062075208    0.061733739    0.0622555     -612.10444      932.40542      932.40542      932.40542      8.106145e+08   0.65951469    -21018530      -21018530       994.79828     -21017535      -612.63467     -609.26464     -614.41401      4.1322425      2.7389065      3.7768784      12019.715    
    865800   334.08672      0.4329         0.062079031    0.061734731    0.062256965   -612.1251       932.43796      932.43796      932.43796      8.1069936e+08  0.65944565    -21017795      -21017795       994.85321     -21016800      -612.6724      -609.27442     -614.42847      4.1594629      2.7810771      3.7969897      12240.717    
    865900   334.1013       0.43295        0.062082564    0.061736015    0.062258334   -612.14545      932.47049      932.47049      932.47049      8.1078423e+08  0.65937662    -21017060      -21017060       994.89663     -21016065      -612.70727     -609.28709     -614.44199      4.1812502      2.820134       3.8136297      12273.211    
    866000   334.11202      0.433          0.062085646    0.061737425    0.062259392   -612.16371      932.50303      932.50303      932.50303      8.1086911e+08  0.6593076     -21016325      -21016325       994.92855     -21015330      -612.73769     -609.30101     -614.45242      4.1976657      2.8558122      3.8270259      12018.393    
    866100   334.11901      0.43305        0.062088123    0.061738778    0.062259946   -612.17813      932.53557      932.53557      932.53557      8.1095399e+08  0.65923859    -21015590      -21015590       994.94936     -21014595      -612.76213     -609.31437     -614.45789      4.2087284      2.8878937      3.8375917      12355.608    
    866200   334.12249      0.4331         0.062089855    0.061739906    0.062259832   -612.18716      932.5681       932.5681       932.5681       8.1103887e+08  0.6591696     -21014855      -21014855       994.95972     -21013860      -612.77922     -609.32549     -614.45677      4.2145253      2.9162872      3.8456573      12146.083    
    866300   334.12276      0.43315        0.062090737    0.061740655    0.062258887   -612.18942      932.60064      932.60064      932.60064      8.1112377e+08  0.65910061    -21014120      -21014120       994.96052     -21013125      -612.78793     -609.33289     -614.44744      4.2151866      2.9409938      3.8514085      12123.628    
    866400   334.12018      0.4332         0.062090702    0.061740875    0.062256957   -612.18368      932.63318      932.63318      932.63318      8.1120867e+08  0.65903163    -21013384      -21013384       994.95284     -21012389      -612.78759     -609.33506     -614.42839      4.2108446      2.9619528      3.8551259      12262.528    
    866500   334.11517      0.43325        0.062089714    0.061740438    0.062253936   -612.16905      932.66571      932.66571      932.66571      8.1129357e+08  0.65896266    -21012649      -21012649       994.93793     -21011654      -612.77783     -609.33075     -614.39858      4.2015749      2.979269       3.8570849      12183.139    
    866600   334.10819      0.4333         0.062087771    0.061739265    0.062249751   -612.14504      932.69825      932.69825      932.69825      8.1137848e+08  0.6588937     -21011914      -21011914       994.91714     -21010919      -612.75866     -609.31918     -614.35728      4.1876352      2.9931787      3.8576165      12227.166    
    866700   334.09972      0.43335        0.062084863    0.061737279    0.062244338   -612.11113      932.73079      932.73079      932.73079      8.114634e+08   0.65882475    -21011179      -21011179       994.89191     -21010184      -612.72996     -609.29957     -614.30386      4.1694639      3.0039259      3.8569376      12355.022    
    866800   334.09024      0.4334         0.062080991    0.061734403    0.062237661   -612.06696      932.76332      932.76332      932.76332      8.1154832e+08  0.6587558     -21010443      -21010443       994.86368     -21009448      -612.69175     -609.27119     -614.23796      4.147681       3.0118639      3.8550902      12298.258    
    866900   334.08024      0.43345        0.062076197    0.061730602    0.062229716   -612.01255      932.79586      932.79586      932.79586      8.1163325e+08  0.65868687    -21009708      -21009708       994.8339      -21008713      -612.64444     -609.23367     -614.15955      4.1227241      3.017333       3.8520348      12164.834    
    867000   334.07018      0.4335         0.06207053     0.061725861    0.062220533   -611.9481       932.8284       932.8284       932.8284       8.1171818e+08  0.65861795    -21008973      -21008973       994.80394     -21007978      -612.5885      -609.18688     -614.06892      4.0948549      3.0206401      3.8477889      12105.793    
    867100   334.06049      0.43355        0.062064015    0.061720181    0.062210163   -611.87387      932.86093      932.86093      932.86093      8.1180312e+08  0.65854904    -21008238      -21008238       994.7751      -21007243      -612.5242      -609.13083     -613.96657      4.0643874      3.0221992      3.8423287      12186.894    
    867200   334.05157      0.4336         0.062056702    0.061713592    0.0621987     -611.79042      932.89347      932.89347      932.89347      8.1188807e+08  0.65848014    -21007502      -21007502       994.74854     -21006508      -612.45203     -609.0658      -613.85344      4.031758       3.0224403      3.8355806      12195.94     
    867300   334.04376      0.43365        0.06204866     0.061706152    0.062186269   -611.6986       932.92601      932.92601      932.92601      8.1197302e+08  0.65841124    -21006767      -21006767       994.72528     -21005773      -612.37266     -608.99237     -613.73076      3.9974635      3.021946       3.8275074      12356.264    
    867400   334.03734      0.4337         0.06203994     0.061697941    0.062173      -611.59925      932.95854      932.95854      932.95854      8.1205798e+08  0.65834236    -21006032      -21006032       994.70615     -21005038      -612.2866      -608.91134     -613.5998       3.9618563      3.0215762      3.8179927      12220.459    
    867500   334.03251      0.43375        0.062030596    0.06168903     0.062159008   -611.49316      932.99108      932.99108      932.99108      8.1214294e+08  0.65827348    -21005297      -21005297       994.69177     -21004303      -612.19438     -608.82339     -613.46172      3.9252498      3.0221206      3.8067832      12328.927    
    867600   334.02941      0.4338         0.062020721    0.061679482    0.062144446   -611.38136      933.02362      933.02362      933.02362      8.1222791e+08  0.65820462    -21004562      -21004562       994.68255     -21003568      -612.09692     -608.72916     -613.318        3.8879065      3.0242072      3.7936286      12076.217    
    867700   334.0281       0.43385        0.062010441    0.061669359    0.062129505   -611.26509      933.05615      933.05615      933.05615      8.1231289e+08  0.65813577    -21003828      -21003828       994.67864     -21002833      -611.99547     -608.62925     -613.17054      3.8499876      3.0281859      3.7783595      12216.377    
    867800   334.02854      0.4339         0.061999892    0.061658755    0.062114395   -611.14579      933.08869      933.08869      933.08869      8.1239787e+08  0.65806692    -21003093      -21003093       994.67995     -21002098      -611.89136     -608.5246      -613.02142      3.8117715      3.034275       3.7607877      12090.413    
    867900   334.03062      0.43395        0.061989189    0.061647783    0.062099341   -611.02497      933.12123      933.12123      933.12123      8.1248286e+08  0.65799809    -21002358      -21002358       994.68615     -21001364      -611.78573     -608.41632     -612.87285      3.7735753      3.0427555      3.7407213      12072.292    
    868000   334.03416      0.434          0.061978397    0.06163657     0.062084538   -610.90387      933.15376      933.15376      933.15376      8.1256785e+08  0.65792926    -21001624      -21001624       994.69668     -21000629      -611.67922     -608.3056