LAMMPS (23 Jun 2022 - Update 1)
OMP_NUM_THREADS environment is not set. Defaulting to 1 thread. (src/comm.cpp:98)
  using 1 OpenMP thread(s) per MPI task

# Init #
dimension   3
boundary    p p p
units       real
atom_style  atomic

# Atom Definition #
read_data ${input_data}
read_data ./pgnpmf/73/dat73.dat
Reading data file ...
  orthogonal box = (-100 -100 -100) to (4100 4100 4100)
  1 by 2 by 2 MPI processor grid
  reading atoms ...
  1000 atoms
  read_data CPU = 0.005 seconds

# Settings #
pair_style table spline 9941

pair_coeff 1 1 ./pgnpmf/N20.txt DE_GNP 75.6
pair_coeff 2 2 ./pgnpmf/N100.txt DE_GNP 115.92
WARNING: 3 of 9941 force values in table DE_GNP are inconsistent with -dE/dr.
WARNING:  Should only be flagged at inflection points (src/pair_table.cpp:463)
pair_coeff 1 2 ./pgnpmf/mixed_potential.txt DE_GNP 95.66
WARNING: 1562 of 9941 force values in table DE_GNP are inconsistent with -dE/dr.
WARNING:  Should only be flagged at inflection points (src/pair_table.cpp:463)

# Neighbor list calc frequency #
neigh_modify delay 0 every 1 check yes

# Saving frequency #
variable ts_save equal floor(${steps_gen}*0.01)
variable ts_save equal floor(5000*0.01)

# Dump #
dump 1 all custom 10000 ./pgnpmf/${folder}/generation/trajectory/trajectory_${usic}_${trial}.gen.custom type x y z ix iy iz
dump 1 all custom 10000 ./pgnpmf/73/generation/trajectory/trajectory_${usic}_${trial}.gen.custom type x y z ix iy iz
dump 1 all custom 10000 ./pgnpmf/73/generation/trajectory/trajectory_1_${trial}.gen.custom type x y z ix iy iz
dump 1 all custom 10000 ./pgnpmf/73/generation/trajectory/trajectory_1_1.gen.custom type x y z ix iy iz
dump_modify 1 first no sort id
dump 2 all cfg 10000 ./pgnpmf/${folder}/generation/trajectory/dumpgen.tens_*.cfg mass type xs ys zs fx fy fz
dump 2 all cfg 10000 ./pgnpmf/73/generation/trajectory/dumpgen.tens_*.cfg mass type xs ys zs fx fy fz
dump_modify 2 element N20 N100

# Fix #
fix 1 all momentum 1000 linear 1 1 1 angular

variable T equal ${Temp}
variable T equal 300

variable nts equal ${steps_gen}/${ts}
variable nts equal 5000/${ts}
variable nts equal 5000/1
variable long equal ${nts}*5
variable long equal 5000*5

# Velocity #
velocity all create ${T} ${Vseed} mom yes rot yes dist gaussian
velocity all create 300 ${Vseed} mom yes rot yes dist gaussian
velocity all create 300 97531 mom yes rot yes dist gaussian

fix 2 all nvt temp ${T} 370000 100.0 #iso 1.0 1.0 1000.0
fix 2 all nvt temp 300 370000 100.0 
run ${nts}
run 5000
Generated 0 of 1 mixed pair_coeff terms from geometric mixing rule
Neighbor list info ...
  update every 1 steps, delay 0 steps, check yes
  max neighbors/atom: 2000, page size: 100000
  master list distance cutoff = 117.92
  ghost atom cutoff = 117.92
  binsize = 58.96, bins = 72 72 72
  1 neighbor lists, perpetual/occasional/extra = 1 0 0
  (1) pair table, perpetual
      attributes: half, newton on
      pair build: half/bin/atomonly/newton
      stencil: half/bin/3d
      bin: standard
Per MPI rank memory allocation (min/avg/max) = 6.141 | 6.143 | 6.147 Mbytes
   Step          Temp          E_pair         E_mol          TotEng         Press     
         0   300            0              0              893.34877      0.00055119596
      5000   357457.16     -7594.0116      0              1056852.4      0.65493649   
Loop time of 0.087467 on 4 procs for 5000 steps with 1000 atoms

Performance: 4939.008 ns/day, 0.005 hours/ns, 57164.439 timesteps/s
99.6% CPU use with 4 MPI tasks x 1 OpenMP threads

MPI task timing breakdown:
Section |  min time  |  avg time  |  max time  |%varavg| %total
---------------------------------------------------------------
Pair    | 0.0058937  | 0.0059833  | 0.0061296  |   0.1 |  6.84
Neigh   | 0.0021678  | 0.0021829  | 0.0022114  |   0.0 |  2.50
Comm    | 0.027964   | 0.031526   | 0.034      |   1.4 | 36.04
Output  | 1.7124e-05 | 2.0513e-05 | 3.0022e-05 |   0.0 |  0.02
Modify  | 0.03167    | 0.034706   | 0.038529   |   1.5 | 39.68
Other   |            | 0.01305    |            |       | 14.92

Nlocal:            250 ave         251 max         249 min
Histogram: 2 0 0 0 0 0 0 0 0 2
Nghost:             30 ave          42 max          12 min
Histogram: 1 0 0 0 1 0 0 0 0 2
Neighs:           0.25 ave           1 max           0 min
Histogram: 3 0 0 0 0 0 0 0 0 1

Total # of neighbors = 1
Ave neighs/atom = 0.001
Neighbor list builds = 17
Dangerous builds = 0

unfix 2

fix 3 all nvt temp 370000 370000 100.0
run ${long}
run 25000
Generated 0 of 1 mixed pair_coeff terms from geometric mixing rule
Per MPI rank memory allocation (min/avg/max) = 6.141 | 6.143 | 6.147 Mbytes
   Step          Temp          E_pair         E_mol          TotEng         Press     
      5000   357457.16     -7594.0116      0              1056852.4      0.65493649   
     30000   368816.46     -83333.621      0              1014938.8      0.67400262   
Loop time of 0.456322 on 4 procs for 25000 steps with 1000 atoms

Performance: 4733.498 ns/day, 0.005 hours/ns, 54785.853 timesteps/s
99.8% CPU use with 4 MPI tasks x 1 OpenMP threads

MPI task timing breakdown:
Section |  min time  |  avg time  |  max time  |%varavg| %total
---------------------------------------------------------------
Pair    | 0.029398   | 0.03241    | 0.033584   |   1.0 |  7.10
Neigh   | 0.015192   | 0.01686    | 0.018046   |   0.8 |  3.69
Comm    | 0.15823    | 0.16984    | 0.1783     |   1.9 | 37.22
Output  | 0.0054669  | 0.00559    | 0.0058227  |   0.2 |  1.23
Modify  | 0.15685    | 0.16327    | 0.1704     |   1.2 | 35.78
Other   |            | 0.06835    |            |       | 14.98

Nlocal:            250 ave         252 max         246 min
Histogram: 1 0 0 0 0 0 1 0 0 2
Nghost:          29.25 ave          38 max          13 min
Histogram: 1 0 0 0 0 0 1 0 0 2
Neighs:             11 ave          15 max           8 min
Histogram: 1 1 0 0 0 1 0 0 0 1

Total # of neighbors = 44
Ave neighs/atom = 0.044
Neighbor list builds = 141
Dangerous builds = 0

unfix 3

fix 4 all nvt temp 370000 3700000 $(100*dt)
fix 4 all nvt temp 370000 3700000 100
run ${long}
run 25000
Generated 0 of 1 mixed pair_coeff terms from geometric mixing rule
Per MPI rank memory allocation (min/avg/max) = 6.141 | 6.144 | 6.148 Mbytes
   Step          Temp          E_pair         E_mol          TotEng         Press     
     30000   368816.46     -83333.621      0              1014938.8      0.67400262   
     55000   3685462.7     -153132.62      0              10821546       6.892151     
Loop time of 0.45387 on 4 procs for 25000 steps with 1000 atoms

Performance: 4759.077 ns/day, 0.005 hours/ns, 55081.905 timesteps/s
99.4% CPU use with 4 MPI tasks x 1 OpenMP threads

MPI task timing breakdown:
Section |  min time  |  avg time  |  max time  |%varavg| %total
---------------------------------------------------------------
Pair    | 0.036344   | 0.039472   | 0.04112    |   0.9 |  8.70
Neigh   | 0.033684   | 0.034228   | 0.034847   |   0.3 |  7.54
Comm    | 0.15695    | 0.16946    | 0.18148    |   2.2 | 37.34
Output  | 0.0034517  | 0.0035765  | 0.0038119  |   0.2 |  0.79
Modify  | 0.13502    | 0.14643    | 0.15636    |   2.2 | 32.26
Other   |            | 0.06071    |            |       | 13.38

Nlocal:            250 ave         258 max         243 min
Histogram: 1 0 1 0 0 0 1 0 0 1
Nghost:          38.25 ave          50 max          21 min
Histogram: 1 0 0 0 0 0 1 1 0 1
Neighs:          19.75 ave          23 max          17 min
Histogram: 1 1 0 0 0 0 1 0 0 1

Total # of neighbors = 79
Ave neighs/atom = 0.079
Neighbor list builds = 318
Dangerous builds = 0

unfix 4

fix 5 all nvt temp 3700000 ${T} 100.0
fix 5 all nvt temp 3700000 300 100.0
run ${nts}
run 5000
Generated 0 of 1 mixed pair_coeff terms from geometric mixing rule
Per MPI rank memory allocation (min/avg/max) = 6.141 | 6.144 | 6.148 Mbytes
   Step          Temp          E_pair         E_mol          TotEng         Press     
     55000   3685462.7     -153132.62      0              10821546       6.892151     
     60000   70275.606     -161561.54      0              47707.213      0.082176227  
Loop time of 0.0895139 on 4 procs for 5000 steps with 1000 atoms

Performance: 4826.066 ns/day, 0.005 hours/ns, 55857.240 timesteps/s
99.8% CPU use with 4 MPI tasks x 1 OpenMP threads

MPI task timing breakdown:
Section |  min time  |  avg time  |  max time  |%varavg| %total
---------------------------------------------------------------
Pair    | 0.0079445  | 0.0081824  | 0.0083291  |   0.2 |  9.14
Neigh   | 0.0062883  | 0.0063849  | 0.0065051  |   0.1 |  7.13
Comm    | 0.032352   | 0.0333     | 0.034339   |   0.5 | 37.20
Output  | 0.0018043  | 0.0018081  | 0.001818   |   0.0 |  2.02
Modify  | 0.026622   | 0.028431   | 0.030318   |   0.9 | 31.76
Other   |            | 0.01141    |            |       | 12.74

Nlocal:            250 ave         257 max         244 min
Histogram: 1 1 0 0 0 0 1 0 0 1
Nghost:          41.75 ave          53 max          24 min
Histogram: 1 0 0 0 0 1 0 0 1 1
Neighs:          20.25 ave          25 max          16 min
Histogram: 1 0 0 1 0 1 0 0 0 1

Total # of neighbors = 81
Ave neighs/atom = 0.081
Neighbor list builds = 60
Dangerous builds = 0

# Thermo #
thermo_style custom step temp press pe ke etotal epair lx ly lz xlo xhi ylo yhi zlo zhi vol density dt time

# Run stle #
run_style verlet

# Run #
timestep ${ts}
timestep 1
thermo ${ts_save}
thermo 50
# run ${steps_gen}

# write restart #
write_restart ${write_restart}
write_restart ./pgnpmf/73/genpmf.res
System init for write_restart ...
Generated 0 of 1 mixed pair_coeff terms from geometric mixing rule


Total wall time: 0:00:01
