LAMMPS (23 Jun 2022 - Update 1)
OMP_NUM_THREADS environment is not set. Defaulting to 1 thread. (src/comm.cpp:98)
  using 1 OpenMP thread(s) per MPI task
# Read restart
read_restart ${read_res}
read_restart ./pgnpmf/73/equpmf47.res
Reading restart file ...
  restart file = 23 Jun 2022, LAMMPS = 23 Jun 2022
  restoring atom style atomic from restart
  orthogonal box = (1695.3102 1695.3102 1695.3102) to (2304.6898 2304.6898 2304.6898)
  2 by 1 by 2 MPI processor grid
  restoring pair style table from restart
  1000 atoms
  read_restart CPU = 0.003 seconds

# Settings

pair_style table spline 9941

pair_coeff 1 1 ./pgnpmf/N20.txt DE_GNP 75.6
pair_coeff 2 2 ./pgnpmf/N100.txt DE_GNP 115.92
WARNING: 3 of 9941 force values in table DE_GNP are inconsistent with -dE/dr.
WARNING:  Should only be flagged at inflection points (src/pair_table.cpp:463)
pair_coeff 1 2 ./pgnpmf/mixed_potential.txt DE_GNP 95.66
WARNING: 1562 of 9941 force values in table DE_GNP are inconsistent with -dE/dr.
WARNING:  Should only be flagged at inflection points (src/pair_table.cpp:463)

#Neigh_list Calc Frequency

neigh_modify delay 0 every 1 check yes

# Saving Frequency (50 frames)

variable ts_save equal ${steps_equ}
variable ts_save equal 5000

variable nts equal ${steps_equ}/${ts}
variable nts equal 5000/${ts}
variable nts equal 5000/0.25
variable medium equal ${nts}*3
variable medium equal 20000*3
variable long equal ${nts}*5
variable long equal 20000*5

# Dump
#dump 1 all custom ${ts_save} ./pgnpmf/${folder}/equilibration/trajectory/trajectory_${usic}_${trial}.equ.custom type x y z ix iy iz
#dump_modify 1 first no sort id
dump 2 all cfg 50000 ./pgnpmf/${folder}/equilibration/trajectory/dumpequ.tens_*.cfg mass type xs ys zs fx fy fz
dump 2 all cfg 50000 ./pgnpmf/73/equilibration/trajectory/dumpequ.tens_*.cfg mass type xs ys zs fx fy fz
dump_modify 2 element N20 N100

# thermo_style
thermo_style custom step temp press pe density ke etotal lx ly lz xlo xhi ylo yhi zlo zhi vol dt time cpu tpcpu spcpu cpuremain

# run info
timestep ${ts}
timestep 0.25
thermo 5000

# fix

fix 1 all momentum 1000 linear 1 1 1 angular
variable T equal ${temp}
variable T equal 300
fix 2 all nvt temp ${T} 370000 100.0
fix 2 all nvt temp 300 370000 100.0

run ${nts}
run 20000
Generated 0 of 1 mixed pair_coeff terms from geometric mixing rule
Unused restart file global fix info:
  fix style: npt, fix ID: 5
Neighbor list info ...
  update every 1 steps, delay 0 steps, check yes
  max neighbors/atom: 2000, page size: 100000
  master list distance cutoff = 117.92
  ghost atom cutoff = 117.92
  binsize = 58.96, bins = 11 11 11
  1 neighbor lists, perpetual/occasional/extra = 1 0 0
  (1) pair table, perpetual
      attributes: half, newton on
      pair build: half/bin/atomonly/newton
      stencil: half/bin/3d
      bin: standard
Per MPI rank memory allocation (min/avg/max) = 3.088 | 3.089 | 3.089 Mbytes
   Step          Temp          Press          PotEng        Density         KinEng         TotEng           Lx             Ly             Lz            Xlo            Xhi            Ylo            Yhi            Zlo            Zhi           Volume           Dt            Time           CPU           T/CPU          S/CPU         CPULeft    
   9460000   327.11339     -1.0068958     -20905151       2.0686997      974.08782     -20904177       609.37955      609.37955      609.37955      1695.3102      2304.6898      1695.3102      2304.6898      1695.3102      2304.6898      2.262891e+08   0.25           2410000        0              0              0              0            
   9465000   91548.803     -204.4018      -20974691       2.0686997      272616.7      -20702074       609.37955      609.37955      609.37955      1695.3102      2304.6898      1695.3102      2304.6898      1695.3102      2304.6898      2.262891e+08   0.25           2411250        0.40200963     3109.3728      12437.466      1.206036     
   9470000   179308.32     -187.92013     -20953029       2.0686997      533949.55     -20419080       609.37955      609.37955      609.37955      1695.3102      2304.6898      1695.3102      2304.6898      1695.3102      2304.6898      2.262891e+08   0.25           2412500        0.80417364     3108.1849      12432.738      0.804176     
   9475000   275119.14      403.52189     -20764077       2.0686997      819257.82     -19944820       609.37955      609.37955      609.37955      1695.3102      2304.6898      1695.3102      2304.6898      1695.3102      2304.6898      2.262891e+08   0.25           2413750        1.2320495      2921.4096      11685.641      0.41068383   
   9480000   372115.98      1012.8549     -20624856       2.0686997      1108097.8     -19516758       609.37955      609.37955      609.37955      1695.3102      2304.6898      1695.3102      2304.6898      1695.3102      2304.6898      2.262891e+08   0.25           2415000        1.6431227      3040.8192      12163.273      0            
Loop time of 1.64316 on 4 procs for 20000 steps with 1000 atoms

Performance: 262.908 ns/day, 0.091 hours/ns, 12171.668 timesteps/s
99.7% CPU use with 4 MPI tasks x 1 OpenMP threads

MPI task timing breakdown:
Section |  min time  |  avg time  |  max time  |%varavg| %total
---------------------------------------------------------------
Pair    | 0.75357    | 0.88256    | 1.0013     |   9.5 | 53.71
Neigh   | 0.0024556  | 0.0029245  | 0.0033985  |   0.6 |  0.18
Comm    | 0.45501    | 0.5732     | 0.70127    |  11.7 | 34.88
Output  | 0.00014271 | 0.00016293 | 0.00022113 |   0.0 |  0.01
Modify  | 0.11917    | 0.12177    | 0.12637    |   0.8 |  7.41
Other   |            | 0.06254    |            |       |  3.81

Nlocal:            250 ave         282 max         220 min
Histogram: 1 0 0 0 1 1 0 0 0 1
Nghost:          827.5 ave         840 max         815 min
Histogram: 1 0 1 0 0 0 0 0 1 1
Neighs:        1662.75 ave        1895 max        1429 min
Histogram: 1 0 0 0 1 1 0 0 0 1

Total # of neighbors = 6651
Ave neighs/atom = 6.651
Neighbor list builds = 15
Dangerous builds = 0

unfix 2

fix 3 all nvt temp 370000 370000 $(100.0*dt) #iso 1.0 1.0 $(1000.0*dt)
fix 3 all nvt temp 370000 370000 25 

run ${long}
run 100000
Generated 0 of 1 mixed pair_coeff terms from geometric mixing rule
Per MPI rank memory allocation (min/avg/max) = 3.088 | 3.089 | 3.089 Mbytes
   Step          Temp          Press          PotEng        Density         KinEng         TotEng           Lx             Ly             Lz            Xlo            Xhi            Ylo            Yhi            Zlo            Zhi           Volume           Dt            Time           CPU           T/CPU          S/CPU         CPULeft    
   9480000   372115.98      1012.8549     -20624856       2.0686997      1108097.8     -19516758       609.37955      609.37955      609.37955      1695.3102      2304.6898      1695.3102      2304.6898      1695.3102      2304.6898      2.262891e+08   0.25           2415000        0              0              0              0            
   9485000   364932.23      1416.9539     -20430945       2.0686997      1086705.9     -19344239       609.37955      609.37955      609.37955      1695.3102      2304.6898      1695.3102      2304.6898      1695.3102      2304.6898      2.262891e+08   0.25           2416250        0.41353437     3022.7182      12090.847      7.8571987    
   9490000   350679.48      1678.0269     -20390314       2.0686997      1044263.6     -19346051       609.37955      609.37955      609.37955      1695.3102      2304.6898      1695.3102      2304.6898      1695.3102      2304.6898      2.262891e+08   0.25           2417500        0.82815209     3014.8258      12059.302      7.4533897    
   9495000   373116.85      1883.5701     -20293733       2.0686997      1111078.3     -19182655       609.37955      609.37955      609.37955      1695.3102      2304.6898      1695.3102      2304.6898      1695.3102      2304.6898      2.262891e+08   0.25           2418750        1.2461199      2990.6596      11962.637      7.061361     
   9500000   372129.72      1973.9226     -20292727       2.0686997      1108138.8     -19184588       609.37955      609.37955      609.37955      1695.3102      2304.6898      1695.3102      2304.6898      1695.3102      2304.6898      2.262891e+08   0.25           2420000        1.665462       2980.8612      11923.4        6.661864     
   9505000   365558.36      2043.6299     -20278866       2.0686997      1088570.4     -19190295       609.37955      609.37955      609.37955      1695.3102      2304.6898      1695.3102      2304.6898      1695.3102      2304.6898      2.262891e+08   0.25           2421250        2.0852644      2977.5921      11910.415      6.2558       
   9510000   356343.65      1967.5044     -20258948       2.0686997      1061130.5     -19197817       609.37955      609.37955      609.37955      1695.3102      2304.6898      1695.3102      2304.6898      1695.3102      2304.6898      2.262891e+08   0.25           2422500        2.5054952      2974.5558      11898.219      5.846161     
   9515000   365714         2081.276      -20219472       2.0686997      1089033.8     -19130438       609.37955      609.37955      609.37955      1695.3102      2304.6898      1695.3102      2304.6898      1695.3102      2304.6898      2.262891e+08   0.25           2423750        2.9219574      3001.4727      12005.895      5.4264965    
   9520000   355795.55      2181.7657     -20193237       2.0686997      1059498.4     -19133738       609.37955      609.37955      609.37955      1695.3102      2304.6898      1695.3102      2304.6898      1695.3102      2304.6898      2.262891e+08   0.25           2425000        3.3420971      2975.2007      11900.802      5.013149     
   9525000   379041.47      2035.8644     -20222271       2.0686997      1128720.8     -19093551       609.37955      609.37955      609.37955      1695.3102      2304.6898      1695.3102      2304.6898      1695.3102      2304.6898      2.262891e+08   0.25           2426250        3.7656892      2950.9511      11803.803      4.6025123    
   9530000   375789.98      1925.6516     -20268106       2.0686997      1119038.4     -19149068       609.37955      609.37955      609.37955      1695.3102      2304.6898      1695.3102      2304.6898      1695.3102      2304.6898      2.262891e+08   0.25           2427500        4.1906267      2941.6106      11766.443      4.190629     
   9535000   372428.84      1881.4811     -20283835       2.0686997      1109029.5     -19174806       609.37955      609.37955      609.37955      1695.3102      2304.6898      1695.3102      2304.6898      1695.3102      2304.6898      2.262891e+08   0.25           2428750        4.6139465      2952.8499      11811.402      3.775049     
   9540000   383577.35      1883.6183     -20270590       2.0686997      1142227.9     -19128363       609.37955      609.37955      609.37955      1695.3102      2304.6898      1695.3102      2304.6898      1695.3102      2304.6898      2.262891e+08   0.25           2430000        5.0349113      2969.3692      11877.473      3.3566092    
   9545000   382723.67      1882.9122     -20306426       2.0686997      1139685.7     -19166741       609.37955      609.37955      609.37955      1695.3102      2304.6898      1695.3102      2304.6898      1695.3102      2304.6898      2.262891e+08   0.25           2431250        5.4532626      2987.9199      11951.678      2.9363735    
   9550000   369321.58      1971.1424     -20271362       2.0686997      1099776.6     -19171586       609.37955      609.37955      609.37955      1695.3102      2304.6898      1695.3102      2304.6898      1695.3102      2304.6898      2.262891e+08   0.25           2432500        5.8742453      2969.243       11876.976      2.5175347    
   9555000   371142.45      2020.6675     -20292361       2.0686997      1105198.9     -19187162       609.37955      609.37955      609.37955      1695.3102      2304.6898      1695.3102      2304.6898      1695.3102      2304.6898      2.262891e+08   0.25           2433750        6.2927329      2986.9461      11947.783      2.0975784    
   9560000   361146.83      1991.4749     -20318982       2.0686997      1075433.6     -19243548       609.37955      609.37955      609.37955      1695.3102      2304.6898      1695.3102      2304.6898      1695.3102      2304.6898      2.262891e+08   0.25           2435000        6.7109913      2988.5834      11954.333      1.6777484    
   9565000   353343.92      1986.1654     -20344261       2.0686997      1052197.8     -19292063       609.37955      609.37955      609.37955      1695.3102      2304.6898      1695.3102      2304.6898      1695.3102      2304.6898      2.262891e+08   0.25           2436250        7.1275929      3000.4682      12001.878      1.2578109    
   9570000   382710.02      1980.485      -20431327       2.0686997      1139645.1     -19291682       609.37955      609.37955      609.37955      1695.3102      2304.6898      1695.3102      2304.6898      1695.3102      2304.6898      2.262891e+08   0.25           2437500        7.5482315      2971.6725      11886.683      0.83869267   
   9575000   390040.39      2103.2444     -20405562       2.0686997      1161473.7     -19244088       609.37955      609.37955      609.37955      1695.3102      2304.6898      1695.3102      2304.6898      1695.3102      2304.6898      2.262891e+08   0.25           2438750        7.9668013      2986.3595      11945.439      0.41930546   
   9580000   371549.71      2185.9525     -20373449       2.0686997      1106411.6     -19267037       609.37955      609.37955      609.37955      1695.3102      2304.6898      1695.3102      2304.6898      1695.3102      2304.6898      2.262891e+08   0.25           2440000        8.382545       3006.6607      12026.646      0            
Loop time of 8.38258 on 4 procs for 100000 steps with 1000 atoms

Performance: 257.677 ns/day, 0.093 hours/ns, 11929.495 timesteps/s
100.0% CPU use with 4 MPI tasks x 1 OpenMP threads

MPI task timing breakdown:
Section |  min time  |  avg time  |  max time  |%varavg| %total
---------------------------------------------------------------
Pair    | 3.8034     | 4.5189     | 5.258      |  24.6 | 53.91
Neigh   | 0.019688   | 0.023772   | 0.027845   |   1.9 |  0.28
Comm    | 2.171      | 2.9055     | 3.615      |  30.5 | 34.66
Output  | 0.0053247  | 0.0054306  | 0.0057358  |   0.2 |  0.06
Modify  | 0.60178    | 0.61329    | 0.6349     |   1.7 |  7.32
Other   |            | 0.3156     |            |       |  3.77

Nlocal:            250 ave         282 max         223 min
Histogram: 1 0 0 0 2 0 0 0 0 1
Nghost:         828.25 ave         842 max         813 min
Histogram: 1 0 0 0 1 0 1 0 0 1
Neighs:        1664.25 ave        1916 max        1456 min
Histogram: 1 0 0 0 2 0 0 0 0 1

Total # of neighbors = 6657
Ave neighs/atom = 6.657
Neighbor list builds = 120
Dangerous builds = 0

unfix 3

fix 4 all nvt temp 370000 ${T} 100.0
fix 4 all nvt temp 370000 300 100.0

run ${nts}
run 20000
Generated 0 of 1 mixed pair_coeff terms from geometric mixing rule
Per MPI rank memory allocation (min/avg/max) = 4.355 | 4.356 | 4.357 Mbytes
   Step          Temp          Press          PotEng        Density         KinEng         TotEng           Lx             Ly             Lz            Xlo            Xhi            Ylo            Yhi            Zlo            Zhi           Volume           Dt            Time           CPU           T/CPU          S/CPU         CPULeft    
   9580000   371549.71      2185.9525     -20373449       2.0686997      1106411.6     -19267037       609.37955      609.37955      609.37955      1695.3102      2304.6898      1695.3102      2304.6898      1695.3102      2304.6898      2.262891e+08   0.25           2440000        0              0              0              0            
   9585000   283648.68      2055.8345     -20339926       2.0686997      844657.33     -19495269       609.37955      609.37955      609.37955      1695.3102      2304.6898      1695.3102      2304.6898      1695.3102      2304.6898      2.262891e+08   0.25           2441250        0.41533664     3009.6024      12038.386      1.2460168    
   9590000   191949.67      1562.4956     -20461094       2.0686997      571593.34     -19889501       609.37955      609.37955      609.37955      1695.3102      2304.6898      1695.3102      2304.6898      1695.3102      2304.6898      2.262891e+08   0.25           2442500        0.83015719     3013.3513      12053.398      0.83015967   
   9595000   100586.18      932.1493      -20689118       2.0686997      299528.46     -20389590       609.37955      609.37955      609.37955      1695.3102      2304.6898      1695.3102      2304.6898      1695.3102      2304.6898      2.262891e+08   0.25           2443750        1.2435628      3023.6653      12094.663      0.4145217    
   9600000   9561.0391      393.38772     -20808950       2.0686997      28471.142     -20780479       609.37955      609.37955      609.37955      1695.3102      2304.6898      1695.3102      2304.6898      1695.3102      2304.6898      2.262891e+08   0.25           2445000        1.6546486      3040.7276      12162.916      0            
Loop time of 1.65469 on 4 procs for 20000 steps with 1000 atoms

Performance: 261.076 ns/day, 0.092 hours/ns, 12086.875 timesteps/s
99.9% CPU use with 4 MPI tasks x 1 OpenMP threads

MPI task timing breakdown:
Section |  min time  |  avg time  |  max time  |%varavg| %total
---------------------------------------------------------------
Pair    | 0.80092    | 0.898      | 1.0311     |   8.8 | 54.27
Neigh   | 0.0027433  | 0.0031101  | 0.0035568  |   0.5 |  0.19
Comm    | 0.43538    | 0.56759    | 0.66373    |  11.0 | 34.30
Output  | 0.0019309  | 0.0019492  | 0.0020029  |   0.1 |  0.12
Modify  | 0.11941    | 0.12131    | 0.1263     |   0.8 |  7.33
Other   |            | 0.06273    |            |       |  3.79

Nlocal:            250 ave         279 max         226 min
Histogram: 1 0 0 1 1 0 0 0 0 1
Nghost:         831.25 ave         847 max         814 min
Histogram: 1 0 0 0 1 0 1 0 0 1
Neighs:           1665 ave        1905 max        1486 min
Histogram: 1 0 0 2 0 0 0 0 0 1

Total # of neighbors = 6660
Ave neighs/atom = 6.66
Neighbor list builds = 16
Dangerous builds = 0

unfix 4

fix 5 all npt temp ${T} ${T} $(100.0*dt) iso 1.0 1.0 $(1000.0*dt)
fix 5 all npt temp 300 ${T} $(100.0*dt) iso 1.0 1.0 $(1000.0*dt)
fix 5 all npt temp 300 300 $(100.0*dt) iso 1.0 1.0 $(1000.0*dt)
fix 5 all npt temp 300 300 25 iso 1.0 1.0 $(1000.0*dt)
fix 5 all npt temp 300 300 25 iso 1.0 1.0 250

run ${medium}
run 60000
Generated 0 of 1 mixed pair_coeff terms from geometric mixing rule
Per MPI rank memory allocation (min/avg/max) = 4.355 | 4.356 | 4.357 Mbytes
   Step          Temp          Press          PotEng        Density         KinEng         TotEng           Lx             Ly             Lz            Xlo            Xhi            Ylo            Yhi            Zlo            Zhi           Volume           Dt            Time           CPU           T/CPU          S/CPU         CPULeft    
   9600000   9561.0391      393.38772     -20808950       2.0686997      28471.142     -20780479       609.37955      609.37955      609.37955      1695.3102      2304.6898      1695.3102      2304.6898      1695.3102      2304.6898      2.262891e+08   0.25           2445000        0              0              0              0            
   9605000   324.35838      1.1033092     -20790996       2.0553769      965.88387     -20790030       610.69336      610.69336      610.69336      1694.6533      2305.3467      1694.6533      2305.3467      1694.6533      2305.3467      2.2775588e+08  0.25           2446250        0.48830783     2559.8573      10239.411      5.3714122    
   9610000   322.97133     -9.5659122     -20812958       2.0573038      961.75348     -20811996       610.50265      610.50265      610.50265      1694.7487      2305.2513      1694.7487      2305.2513      1694.7487      2305.2513      2.2754257e+08  0.25           2447500        0.96877453     2601.6373      10406.552      4.8438833    
   9615000   322.48507     -1.0607949     -20823124       2.0597617      960.30547     -20822163       610.25971      610.25971      610.25971      1694.8701      2305.1299      1694.8701      2305.1299      1694.8701      2305.1299      2.2727104e+08  0.25           2448750        1.449272       2601.471       10405.883      4.3478224    
   9620000   322.97783      0.11793372    -20844145       2.0618115      961.77283     -20843183       610.05741      610.05741      610.05741      1694.9713      2305.0287      1694.9713      2305.0287      1694.9713      2305.0287      2.270451e+08   0.25           2450000        1.9287424      2607.0427      10428.168      3.8574896    
   9625000   324.8574      -1.9401534     -20860185       2.0638342      967.36985     -20859218       609.85804      609.85804      609.85804      1695.071       2304.929       1695.071       2304.929       1695.071       2304.929       2.2682257e+08  0.25           2451250        2.4080711      2607.8138      10431.259      3.3713027    
   9630000   328.3496       1.1782851     -20883065       2.0660278      977.76903     -20882088       609.64213      609.64213      609.64213      1695.1789      2304.8211      1695.1789      2304.8211      1695.1789      2304.8211      2.2658174e+08  0.25           2452500        2.8872927      2608.3972      10433.588      2.8872948    
   9635000   330.74422      2.079844      -20907436       2.0676758      984.89981     -20906451       609.48013      609.48013      609.48013      1695.2599      2304.7401      1695.2599      2304.7401      1695.2599      2304.7401      2.2640116e+08  0.25           2453750        3.3666638      2607.5829      10430.333      2.4047614    
   9640000   332.04677      10.922477     -20928408       2.0699254      988.77858     -20927419       609.25925      609.25925      609.25925      1695.3704      2304.6296      1695.3704      2304.6296      1695.3704      2304.6296      2.261551e+08   0.25           2455000        3.846655       2604.2147      10416.859      1.9233285    
   9645000   330.59594      1.9303971     -20942070       2.0711912      984.45827     -20941086       609.13511      609.13511      609.13511      1695.4324      2304.5676      1695.4324      2304.5676      1695.4324      2304.5676      2.2601689e+08  0.25           2456250        4.3276905      2598.5606      10394.241      1.4425642    
   9650000   329.23257     -0.20987449    -20954348       2.0726461      980.39837     -20953368       608.99254      608.99254      608.99254      1695.5037      2304.4963      1695.5037      2304.4963      1695.5037      2304.4963      2.2585823e+08  0.25           2457500        4.8108803      2586.9746      10347.897      0.96217653   
   9655000   328.33247     -0.86426273    -20964121       2.0743627      977.71803     -20963144       608.82451      608.82451      608.82451      1695.5877      2304.4123      1695.5877      2304.4123      1695.5877      2304.4123      2.2567133e+08  0.25           2458750        5.2901868      2607.9353      10431.743      0.48092626   
   9660000   326.98174      1.2972439     -20977254       2.0759374      973.69578     -20976280       608.67053      608.67053      608.67053      1695.6647      2304.3353      1695.6647      2304.3353      1695.6647      2304.3353      2.2550015e+08  0.25           2460000        5.7693778      2608.5634      10434.253      0            
Loop time of 5.76942 on 4 procs for 60000 steps with 1000 atoms

Performance: 224.633 ns/day, 0.107 hours/ns, 10399.665 timesteps/s
99.9% CPU use with 4 MPI tasks x 1 OpenMP threads

MPI task timing breakdown:
Section |  min time  |  avg time  |  max time  |%varavg| %total
---------------------------------------------------------------
Pair    | 2.6228     | 2.9275     | 3.3286     |  14.9 | 50.74
Neigh   | 0.0062283  | 0.0070946  | 0.0082294  |   0.9 |  0.12
Comm    | 1.291      | 1.6897     | 1.9904     |  19.5 | 29.29
Output  | 0.0032017  | 0.0032589  | 0.0034259  |   0.2 |  0.06
Modify  | 0.8964     | 0.92697    | 0.96741    |   2.7 | 16.07
Other   |            | 0.2149     |            |       |  3.72

Nlocal:            250 ave         280 max         227 min
Histogram: 1 0 0 2 0 0 0 0 0 1
Nghost:         833.25 ave         849 max         814 min
Histogram: 1 0 0 0 0 0 2 0 0 1
Neighs:        1661.25 ave        1900 max        1494 min
Histogram: 1 0 0 2 0 0 0 0 0 1

Total # of neighbors = 6645
Ave neighs/atom = 6.645
Neighbor list builds = 37
Dangerous builds = 10

# run_style
run_style verlet

# write restart
write_restart ${write_res}
write_restart ./pgnpmf/73/equpmf48.res
System init for write_restart ...
Generated 0 of 1 mixed pair_coeff terms from geometric mixing rule

Total wall time: 0:00:17
