ITEM: TIMESTEP
50200000
ITEM: NUMBER OF ATOMS
1000
ITEM: BOX BOUNDS pp pp pp
1.7480802676999788e+03 2.2519197322996256e+03
1.7480802676999788e+03 2.2519197322996256e+03
1.7480802676999788e+03 2.2519197322996256e+03
ITEM: ATOMS type x y z ix iy iz c_vor[1] c_vor[2]
1 1894.53 1873.19 2031.16 0 1 0 128747 14
1 1943.39 1815.31 2085.68 0 0 0 121547 14
1 1750.72 2160.11 2156.87 1 0 0 127999 15
1 2124.67 1769.61 1940.86 -1 1 0 129892 14
1 2085.89 1935.36 2103.48 0 0 0 121564 14
1 1808.41 2094.09 1839.13 0 -1 0 122852 14
1 2134.04 2232.37 1764.69 0 0 0 116397 13
1 2196.23 1946.19 1916.28 0 0 1 129835 15
1 2123.93 2131.63 1813.67 -1 0 0 121463 13
1 2051.28 2030.96 1993.08 0 0 0 122381 13
1 1810.02 2209.01 1776.9 1 -1 1 124044 13
1 2128.68 2159.4 1768.1 -1 0 0 118152 14
1 1991.3 2022.42 1803.75 0 0 1 126521 14
1 1890.64 2105.82 1815.75 0 0 0 124730 13
1 1852.76 2158.35 2015.36 0 0 0 125566 15
1 1962.84 1892.1 1850 0 0 0 127586 14
1 1970.1 2087.02 2233.3 0 0 -1 126429 14
1 1762.25 2163.73 2028.21 0 -1 0 110627 12
1 2191.04 2228.14 2168.6 0 -1 0 132175 15
1 1985.74 2245.47 1969.17 0 0 0 124533 15
1 2200.69 2074.69 1858.06 -1 0 0 145782 16
1 1880.88 2196.17 2041.11 0 0 0 114872 12
1 1814.14 2062.96 2042.99 0 0 0 121590 13
1 1987.28 2099.19 1859.28 0 -1 0 123790 14
1 1901.25 2048.29 2067.35 0 0 0 130633 15
1 1982.19 1904.08 2014.7 1 0 0 127419 15
1 2035.68 1817.39 1981.02 0 0 0 121139 13
1 2158.49 2203.47 1983.68 0 0 0 123951 16
1 2155.91 2039.49 2072 -1 0 0 123339 14
1 2212.36 1813.66 2052.82 0 1 0 128558 14
1 2207.02 2051.78 2081.52 0 0 -1 124738 14
1 2030.86 1905.14 2221.99 0 0 -1 131067 15
1 1883.85 2031.33 1759.81 0 0 0 148965 17
1 1991.67 1944.46 1937.93 0 0 0 120703 13
1 1827.82 1968.85 2040.52 0 0 -1 135611 16
1 1835.34 2207.13 2110.76 1 0 0 119589 14
1 1851.44 2063.17 2082.55 0 0 0 124892 13
1 1984.28 2235.38 2127.13 0 0 0 118435 15
1 2050.01 1859.26 1948.17 0 0 0 127770 14
1 2083.95 2012.6 1770.94 0 0 0 130416 15
1 1868.2 1914.78 2006.6 1 0 0 141297 14
1 1800.04 2202.6 1916.59 1 0 0 129544 14
1 2016.79 2022.25 2116.17 0 0 -1 120985 13
1 1911.73 2016.11 1974.14 0 -1 0 132609 15
1 1877.86 2104.87 2061.22 0 0 0 124237 14
1 2111.06 1800.7 1845.13 -1 0 0 132584 15
1 2153.68 1801.6 2148.24 0 0 -1 126928 15
1 1890.29 1926.91 1763.14 1 0 1 133848 14
1 2164.96 1975.29 1882.16 -1 0 0 126148 16
1 1936.96 2179.77 1817.29 0 0 1 142779 14
1 2226.52 2001.27 2090.01 0 1 0 137420 16
1 2183.7 2250.51 1762.29 -1 0 0 121903 13
1 2147.38 2207.59 1859.49 -1 0 0 126324 14
1 2242.94 1933.8 1876.31 0 0 0 123269 14
1 2074.5 1786.34 1930.21 0 0 0 122723 14
1 2145.75 2049.75 2171.3 0 0 -1 131669 14
1 2091.65 2201.97 1756.88 0 0 1 121965 14
1 2104.37 1961.76 2059.64 0 0 0 126283 13
1 1991.02 2125.97 1759.67 0 0 0 146340 17
1 2138.8 1999.14 2196.23 0 0 0 127759 16
1 2017.77 2110.72 2112.79 0 0 0 121115 12
1 2173.54 2138.16 2176.26 -1 -1 0 121177 13
1 2065.38 1797.42 2114.16 0 0 -1 125487 15
1 2081.08 2142.93 1884.01 -1 0 0 138591 13
1 2182.62 2011.53 2168 -1 0 0 119845 13
1 1974.14 2141.85 1808.39 0 0 0 133857 13
1 2249.71 2231.06 2076.79 0 0 0 132372 14
1 2066.72 2242.57 2191.5 -1 -1 -1 118668 14
1 2109.07 1907.89 2057.38 0 1 -1 133939 16
1 2184.9 2102.27 2052.37 0 -1 -1 124979 13
1 2029.78 1852.15 2214.42 0 1 -1 129279 13
1 1776.74 2113.04 2249.3 1 0 0 136391 15
1 1929.5 1981.17 1884.4 0 0 0 129651 13
1 2129.3 1946.59 2196.46 0 0 0 124705 14
1 1819.8 1807.67 2209.64 0 0 0 121630 12
1 2151.99 1856.04 2171.79 -1 0 -1 125351 15
1 2088.38 1754.34 2082.68 0 1 0 113718 12
1 2201.78 1775.89 2150.1 0 0 -1 122632 14
1 2087.48 1852.73 2046.96 0 0 -1 125077 14
1 2163.29 2075.96 1898.66 -1 0 0 139128 15
1 2038.95 1824.91 1790.51 0 0 0 133156 13
1 1817.15 2165.97 1878.43 0 -1 0 132485 14
1 1785.6 1772.09 2075.18 1 0 0 132246 13
1 1805.25 2191.08 2010.53 0 -1 0 127861 15
1 1984.27 1989.75 2206.45 0 0 -1 138068 16
1 2010.99 2007.15 2064.38 0 0 -1 144585 17
1 2195.18 1870.06 2199.17 -1 0 -1 115041 12
1 1908.07 2200.54 2237.7 0 -1 -1 140159 16
1 1781.18 1823.19 2171.58 0 0 -1 141131 15
1 2053.74 2102.63 2181.84 0 0 -1 127323 14
1 2094.96 1764.98 1756.37 -1 0 0 122808 14
1 2053.99 1930.67 2061.66 -1 0 0 126225 13
1 2125.06 2170.56 1899.55 -1 -1 0 130916 13
1 2084.55 2014.77 2221.35 -1 0 -1 119926 13
1 2095.45 1840.78 2100.21 0 0 -1 123048 15
1 1922.45 1863.69 2076.87 0 0 -1 129310 14
1 1965.62 1815.28 2036.53 0 0 -1 125358 14
1 1749 2023.21 1874.57 0 -1 0 122950 13
1 2219.42 2167.06 1896.24 -1 -1 0 134457 14
1 2025.14 2102.97 2227.64 -1 0 0 133877 15
1 2038.76 2148.93 2205.11 -1 -1 -1 129730 15
1 1937.99 1808.16 2243.38 0 0 -1 129054 13
1 1778.84 1903.09 1906.29 0 0 0 126557 14
1 1872.07 1751.68 2179.68 0 0 -1 132980 13
1 1855.72 2110.91 2124.15 0 -1 -1 134936 15
1 2086.83 2103.69 2223.43 -1 -1 -1 131064 15
1 1820.62 1900.38 2185.8 0 0 -1 124676 14
1 1945.27 1839.73 1853.41 0 0 0 125959 13
1 1812.2 2135.17 2148.19 0 0 -1 139594 14
1 2220.07 2220.4 1890.08 -1 -1 0 127380 15
1 1966.31 1975.18 1798.35 0 0 0 119666 14
1 1928.83 2127.33 1784.1 0 0 0 131506 15
1 1904.94 2089.12 1912.53 0 0 0 126724 14
1 1895.8 1782.06 2013.13 0 0 0 119823 15
1 1850.13 2016.62 2055.36 0 0 0 126659 14
1 2054.95 1870.72 2133.21 0 0 -1 123170 15
1 1790.07 2206.2 1826.55 0 -1 0 119145 13
1 2118.55 1920.35 1955.77 -1 0 0 126366 14
1 2193.96 1876.27 1899.7 -1 0 0 138454 17
1 1902.14 2078.03 1859.84 0 -1 0 131860 14
1 2067.6 2029.12 2099.74 0 0 0 128606 14
1 2099.82 2024.14 2169.76 0 0 -1 128263 15
1 1858.61 2155.18 2069.74 0 -1 0 123405 14
1 1795.23 1965.93 2135.63 0 0 -1 130443 15
1 1927.29 2085.41 2193.02 0 -1 -1 124965 14
1 1989.37 1995.54 1755.33 0 0 0 123702 14
1 1804.06 2038.16 2089.21 0 -1 -1 133190 14
1 1797.5 2139.62 1994.95 0 -1 0 125221 14
1 1955.69 1924.19 1972.54 0 0 0 131750 14
1 1906.76 2171.66 1895.28 0 -1 0 131391 14
1 2018.23 1881.13 1815.78 -1 0 0 129922 15
1 2069.66 1800.73 1878.87 -1 0 0 124765 14
1 1781.47 2086.35 2078.1 0 -1 -1 131070 14
1 2088.26 2193.79 2199.76 0 -1 -1 129662 16
1 2005.06 1910.33 2062.73 0 0 0 116852 13
1 2215.69 2232.1 2227.86 -1 -1 -1 129250 15
1 2035.96 1966.61 1909.68 -1 0 0 120048 12
1 2167.52 1751.56 1976.76 -1 0 0 127810 14
1 1784.33 1816.05 1856.63 0 0 0 132928 16
1 2104.95 2046.67 1908.17 0 0 0 127867 14
1 2143.51 1838.65 1862.89 -1 0 0 128314 14
1 2190.45 1932.01 1864.63 -1 0 0 133673 15
1 1780.8 2190.17 2072.26 0 -1 -1 126103 14
1 1926.72 2242.28 1961.98 0 -1 0 121958 14
1 2057.69 2063.83 2244.85 -1 0 -1 130759 15
1 1781.17 2188.77 2191.14 0 -1 -1 118958 14
1 2000.41 1997.45 1934.66 -1 0 0 129068 15
1 1886.72 2210.46 1946.49 0 -1 0 121751 14
1 1913.76 1988.25 2128.39 1 0 0 134900 15
1 1995.73 2176.86 2179.29 0 -1 -1 128628 15
1 2086.87 1836.67 1915.91 -1 0 0 119675 13
1 2193.63 1815.48 2115.57 -1 0 -1 121134 13
1 1817.36 2175 1959.76 0 -1 0 127947 15
1 1997.78 2162.57 1943.89 0 -1 0 138297 16
1 1956.41 1866.22 1898.05 0 0 0 124002 14
1 2010.92 1947.57 2248.25 0 0 -1 125455 13
1 2034.32 1914.56 2013.57 0 0 0 128241 15
1 2103.69 2062.67 1769.69 -1 0 0 124577 13
1 1935.2 1998.24 2186.14 0 0 -1 121004 12
1 2233.99 2087.52 2222.65 -1 0 -1 125246 15
1 1880.51 1960.55 2040.41 0 0 -1 124718 13
1 1748.14 1858.44 1937.65 0 0 0 128335 15
1 2000.45 2193.65 1841.57 0 -1 1 134757 14
1 2066.26 2077.94 1971.16 1 0 1 125335 14
1 1832.87 2098.98 2198.62 0 0 -1 124808 16
1 1847.24 2081.38 1796.13 0 -1 0 129939 14
1 2240.52 1813.03 2142.61 -1 0 -1 118114 13
1 1785.87 2077.36 2210.75 0 0 -1 131298 14
1 1859.31 2163.11 2127.09 0 -1 -1 122659 13
1 1840.7 1917.86 1798.18 0 0 0 123450 13
1 1822.33 1825.52 2129.98 0 0 -1 142666 15
1 1814.11 1836.36 2057.84 0 0 -1 147126 16
1 2074.55 1810.29 2018.02 0 0 0 123852 14
1 1984.35 2133.45 2210.12 -1 -1 -1 118234 13
1 1983.05 2116.48 1967.86 0 -1 0 121265 14
1 2032.06 1767.83 1960.43 0 0 0 123434 14
1 2189.82 2104.18 1998.24 -1 -1 0 130192 15
1 2215.79 2135.81 2207.19 -1 -1 -1 126057 14
1 1782.59 1973.28 2075.4 0 0 -1 134708 15
1 2095.99 1835.18 2223.89 0 0 -1 150165 18
1 1893.92 2209.84 1805.93 0 0 0 126132 12
1 1839.57 1968.08 1890.89 0 0 0 136800 17
1 2179.71 1964.79 2202.41 -1 0 0 124677 13
1 1926.61 1905.24 1918.46 0 0 0 122433 13
1 2145.11 1930.33 1902.65 -1 0 0 135849 15
1 1993.01 1929.38 1796.4 0 0 0 124546 14
1 1861.64 1980.01 2137.93 0 0 0 124151 13
1 2250.69 2073.92 2169.23 -1 -1 -1 112484 12
1 1985.56 2188.18 1783.07 0 -1 0 132726 15
1 2058.05 2109.3 2078.87 0 0 0 124414 14
1 2071.73 2122.09 1824.95 0 0 0 149215 16
1 1926.64 2100.67 2039.8 -1 -1 -1 121452 14
1 1772.59 1785.55 2222.33 0 0 -1 133027 16
1 1996.54 1819.33 2082.1 0 0 -1 118802 14
1 2018.94 1968.49 2110.55 -1 0 -1 136797 16
1 1852.62 1861.58 1877.09 0 0 0 128025 15
1 1984.88 2094.32 2072.96 0 -1 0 131716 14
1 2049.69 1760.99 1784.76 -1 0 0 127463 14
1 1958.56 2217.04 2005.67 0 -1 0 121590 12
1 1828.8 1814.33 1886.97 0 0 0 121906 13
1 2119.41 2038.14 2111.69 -1 -1 0 137401 15
1 2136 1790.48 2018.33 -1 0 0 137260 16
1 2195.78 2012.01 2047.72 -1 0 0 129834 15
1 1819.98 2073.12 1990.51 0 0 0 134962 15
1 2193.66 1822.5 2223.57 -1 0 -1 122791 15
1 1795.74 1758.08 1942.68 0 0 0 130234 14
1 1757.31 2194.03 1785.23 0 -1 0 126089 15
1 1932.92 2171.82 2096.96 0 -1 -1 124760 12
1 2243.67 1769.12 2045.5 -1 0 -1 137455 14
1 2214.97 2111.34 1805.8 -1 0 0 118556 12
1 2111.41 2217.22 2057.82 0 -1 0 121288 13
1 2126.02 2129.1 2144.47 -1 -1 -1 129581 15
1 1959.51 2200.16 1955.02 0 -1 0 128863 13
1 1814.47 1795.45 1757.47 0 0 0 124144 15
1 1952.83 2154.45 2007.03 0 -1 0 143108 17
1 2080.75 2162.2 1791.05 -1 -1 0 118319 13
1 1796.68 2012.81 2041.97 0 -1 0 119060 12
1 2220.31 2117.34 2156.85 -1 -1 -1 129760 15
1 1934.02 2242.97 1823.43 0 -1 0 132711 16
1 2029.67 2166.76 1805.63 -1 -1 0 135908 14
1 1841 1915.85 2248.1 0 0 -1 121251 13
1 2110.83 2238.42 2220.56 -1 -1 -1 112585 12
1 1792.58 1993.93 1884.82 0 0 0 127391 16
1 1795.28 2014.2 2220.62 0 0 0 129436 14
1 2228.24 2068.65 1988.91 -1 0 0 125809 13
1 1764.5 2225.3 2154.18 0 -1 -1 122124 14
1 1845.07 2152.28 1772.09 0 -1 0 127900 15
1 1917.32 1792.03 1965.01 0 0 0 118053 13
1 2116.91 2237.36 1980.21 -1 -1 0 122756 13
1 1857.99 1871.97 1974.35 0 0 0 149026 16
1 2176.21 2148.79 2240.31 -1 -1 -1 129857 14
1 1771.38 1841.3 1787.24 0 0 0 122348 15
1 2189.13 1774.14 2201.55 -1 0 -1 126862 16
1 1785.75 2010.35 1989.84 0 0 0 127749 14
1 2238.68 1900.26 2208.56 -1 0 -1 136125 14
1 2122.12 1871.16 1777.08 0 0 0 135289 14
1 1910.3 2206.63 1856.17 0 -1 0 121563 13
1 2056.61 2198.74 1903.52 0 -1 0 138662 15
1 2012.18 2239.82 2081.96 0 -1 0 115460 14
1 2234.79 2098.38 2090.43 -1 -1 -1 129550 16
1 1882.55 1998.1 1904.65 0 0 0 120120 14
1 1929.72 2036.38 2111.59 0 0 0 119363 13
1 1941.75 2120.42 1935.74 0 -1 0 127730 15
1 2084.45 1975.8 2185.45 -1 0 -1 122365 13
1 1799.6 1860.59 1880.91 0 0 0 131155 14
1 2149.83 2025.5 1889.53 -1 0 0 116996 12
1 1769.12 2072.78 1869.28 0 0 0 123171 14
1 2056.19 2044.81 1930 -1 0 0 131064 14
1 1882.45 2114.19 2215.68 0 -1 -1 119911 13
1 1933.57 2193.05 2047.08 0 -1 0 125001 14
1 1988.84 1836.85 1822.21 0 0 0 128706 14
1 2250.66 1958.1 2112.16 -1 0 -1 127798 15
1 1868.83 2249.09 2117.89 0 -1 0 139135 15
1 1907.58 2182.06 1996.97 0 0 0 136828 16
1 2196.04 2240.5 1933.34 -1 -1 0 125446 13
1 2043.8 2129.03 1768.99 -1 -1 0 130674 15
1 1885.43 2196.34 2094.62 0 -1 -1 135946 16
1 2242.58 1936.55 1821.92 -1 0 0 129767 14
1 1831.18 2178.24 2176.91 0 -1 -1 120667 13
1 1958.29 2141.33 2163.15 -1 -1 -1 132951 15
1 1794.47 2251.38 1854.45 0 -1 0 125239 14
1 2136.88 1767.98 2186.52 0 0 0 122583 14
1 1766.88 1770.17 2131.85 0 0 -1 133300 16
1 1889 2157.89 1801.69 0 -1 0 124257 16
1 2049.14 2228.57 1989.28 0 -1 0 123508 15
1 2212.01 1825.88 1954.56 -1 0 0 124329 14
1 1917.9 1972.59 1774.52 0 0 0 130267 13
1 1884.25 1835.4 1798.71 0 0 0 129289 14
1 2055.22 2232.96 2049.37 0 -1 0 123435 15
1 2057.99 1949.91 2147.1 -1 0 0 123746 14
1 1872.32 2051.48 1895.08 0 -1 0 120578 12
1 1932.07 2074.52 1787.92 0 0 0 127362 15
1 2215.15 1974.66 2148.33 -1 0 -1 128270 15
1 2047.33 2128.23 1971.45 0 -1 0 125534 13
1 2202.49 1815.67 1811.75 -1 0 0 128321 14
1 2192.03 2063.59 1805.97 -1 0 0 124564 14
1 1873.2 2134.63 1911.88 0 -1 0 136612 16
1 2113.73 2083.05 1946.63 0 0 0 127855 14
1 2153.29 1811.94 2080.78 0 0 0 128428 15
1 2010.26 2075.2 1766.19 -1 0 0 126020 15
1 2048.54 1831.31 2076.59 -1 0 -1 120430 14
1 1809.76 2150.57 2046.72 0 -1 0 112041 12
1 2019.93 1818.16 2032.46 0 0 0 120628 14
1 2061.04 1791.94 1826.68 -1 0 0 121427 13
1 1771.67 2093.32 1980.6 0 0 0 123338 13
1 2179.65 2001.01 1927.24 -1 0 0 120496 13
1 1879.23 1787.27 2063.68 0 0 0 137367 14
1 2023.28 2231.43 2162.62 0 -1 -1 122313 13
1 1762.38 1790.74 1770.85 0 0 0 120755 12
1 1757.76 1880.44 1750.66 0 0 0 122349 14
1 1793.89 2161.28 1760.59 0 -1 0 134968 16
1 2016.34 2227.43 1880.29 0 -1 0 124529 13
1 1967.17 2018.28 1897.31 0 0 0 133655 15
1 1798.36 2083.98 2158.81 0 -1 -1 134475 15
1 2002.58 1860.62 1923.75 0 0 0 128813 13
1 1989.24 2043.16 1853.77 0 -1 0 119520 12
1 1933.77 2126.51 2226.02 0 -1 -1 134377 15
1 2170.63 2004.68 1794.73 -1 0 0 123407 15
1 2101.85 1802.19 1792.81 0 0 0 128794 14
1 1778.44 1965.58 2233.14 0 0 -1 123959 12
1 2237.16 1861.66 2167.09 0 0 -1 127745 15
1 1933.72 1786.58 1789.53 0 0 0 120287 12
1 2222.08 1959.41 2013.67 -1 0 0 129696 14
1 2215.1 1976 1783.05 -1 0 0 128945 14
1 2178.37 1795.93 1855.55 -1 0 0 144071 17
1 1763.76 2114.91 2129.96 0 -1 0 135129 15
1 2009.4 2125.07 2164.15 -1 0 0 127386 15
1 2161.86 1871.8 1989.26 -1 0 0 131598 14
1 2016.71 2226.62 1802.85 -1 -1 0 123568 14
1 1785.36 2216.53 1967.49 0 -1 0 126005 14
1 1866.94 2173.61 1859.47 0 -1 0 133368 14
1 2135.68 1813.03 1909.69 -1 0 0 137213 17
1 2003.81 2228.37 1751.68 0 -1 0 124240 14
1 1870.52 1899.61 2113.19 -1 0 -1 128578 14
1 1930.11 2020.94 1791.8 0 0 0 132613 16
1 1873 2072.11 1978.12 0 0 -1 129078 16
1 1986.3 1824.04 2227.45 0 0 -1 124386 14
1 2216.73 2002.43 2206.23 -1 0 -1 121671 13
1 2022.92 1828.7 2128.5 -1 0 -1 120296 14
1 1833.13 2019.02 1906.05 0 0 0 117196 14
1 1965.1 1858.89 2108.56 0 0 0 117366 14
1 1996.45 1831.4 2175.63 0 0 -1 121808 14
1 2110.42 2169.78 1848.12 -1 -1 0 130556 15
1 2156.24 1890.63 1866.08 0 0 1 119567 11
1 2113.7 1890.19 2108.69 0 0 0 119418 13
1 1883.53 1969.16 1860.2 0 0 0 118396 12
1 2158.18 1749.36 2133.73 -1 0 -1 138158 17
1 2021.06 2096.5 1936.91 0 0 0 123129 13
1 2156.24 2049.81 1768.87 -1 0 0 123777 15
1 2095.84 1752.98 2146.64 0 0 -1 124087 14
1 1893.87 2074.15 2123.76 0 -1 0 121877 14
1 1913.04 1883.14 1786.27 0 0 0 118780 12
1 1977.47 2042.74 2085.84 0 0 0 121596 13
1 2122.24 2167.12 2043.74 -1 -1 0 125311 16
1 1846.56 1784.15 1927.98 0 0 0 132649 15
1 2132.24 1995.77 1979.26 -1 0 0 122437 13
1 1957.35 2042.36 2206.12 0 0 -1 123827 14
1 2163.9 1901.27 2091.61 0 0 -1 127059 13
1 1915.87 1897.63 2191.35 0 0 -1 130656 13
1 2145.63 2224.72 1936.96 -1 -1 0 119675 15
1 2214.58 2025.75 1838.42 -1 -1 0 126460 14
1 2195.79 1826.24 2168.85 -1 0 -1 116724 14
1 2208.53 1881.24 2249.53 -1 0 -1 126316 14
1 1915.39 2057.19 2009.53 0 0 0 124704 13
1 1806.52 1953.56 1978.9 0 0 0 137422 17
1 1862.28 1875.4 1770.74 0 0 0 120127 14
1 2107.11 2016.39 2063.85 -1 0 0 117429 13
1 1758 1976.71 1849.27 0 0 0 128380 15
1 1860.42 2134.78 2171.91 0 -1 -1 119435 13
1 1828.04 2111.33 2078.79 1 0 -1 133275 16
1 1894.64 2150.51 1749.43 0 -1 0 122240 14
1 2168 1852.85 1940.04 -1 0 0 120338 13
1 1966.62 1767.99 1883.44 0 0 0 125795 13
1 2041.67 1943.94 1957.46 0 0 0 120027 15
1 2041.81 2166 2154.99 -1 -1 -1 126235 15
1 2118.31 1884.69 1828.86 0 0 0 124426 13
1 2213.67 1763.84 1803.39 -1 0 0 140686 16
1 2215.83 1898.28 2013.3 -1 0 0 129914 14
1 2236.63 2001.58 1927.75 -1 0 0 132013 15
1 1837.69 2028.88 1805.63 0 0 0 132374 14
1 2188.19 1823.49 1900.19 -1 0 0 127322 15
1 2121.13 1925.06 1787.62 -1 0 0 122468 14
1 1874.51 1896.5 1925.15 0 0 0 131190 14
1 2212.68 2163.28 1798.08 -1 -1 0 121256 14
1 1943.77 1867.9 2010.93 0 0 0 137602 15
1 1846.54 1944.25 2173.34 0 0 -1 131821 15
1 1865.96 1804.47 1974.02 0 0 0 135877 16
1 2105.53 1904.69 1876.59 -1 0 0 124212 14
1 1886.81 1839.63 2182.98 0 0 -1 140727 15
1 1938.81 2118.41 1883.35 0 0 0 126571 13
1 2049.92 1982.9 2246.09 0 -1 -1 128912 15
1 1907.6 2233.47 2012.26 0 -1 0 122178 14
1 1764.56 1974.32 1792.66 0 -1 0 129103 13
1 1762.64 2208.77 2237.8 0 -1 -1 120963 13
1 2193.13 2087.5 1756.98 -1 -1 0 122459 15
1 1864.23 2065.06 2226.04 0 -1 -1 121916 14
1 2070.33 2210.06 2149.69 0 -1 0 122883 14
1 2175.93 1787.65 1938.11 -1 0 0 122306 14
1 2213.7 2138.8 1851.46 -1 -1 0 126097 14
1 1955.16 2019.58 2004.64 0 0 0 123743 14
1 1978.95 2232.52 1917.68 0 -1 0 122015 13
1 1792.51 2250.97 1749.41 0 -1 0 117326 13
1 1777.09 1913.33 1958.28 0 0 0 123233 14
1 2244.74 1865.36 1885.79 -1 0 0 133318 15
1 1987.12 2126.4 1906 0 -1 0 123421 14
1 2187.51 2154.77 2072.64 -1 -1 0 131401 17
1 1983.35 1902.65 1749.6 0 0 0 119981 12
1 1786.34 1796.13 2011.87 0 0 0 136586 14
1 2034.89 1916.82 2111.88 0 0 -1 122355 15
1 2148.45 2236.59 2023.92 -1 -1 0 125022 14
1 1762.49 1817.01 2054.77 0 0 0 129442 15
1 2183.11 2057.79 2024.2 -1 0 0 124479 12
1 1770.59 1897.02 1854.41 0 0 0 109602 12
1 2000.18 1948.98 1990.58 0 0 0 114206 12
1 2076.64 2238.42 1943.8 0 -1 0 122230 15
1 1961.02 1791.74 1835.27 0 0 0 131943 15
1 1763.78 2061.02 2120.92 0 0 -1 127012 15
1 2140.29 2025 2023.01 0 0 -1 119109 13
1 2018.77 2011.38 1885.31 0 0 0 128552 16
1 2004.49 2197.37 1983.66 0 -1 0 117142 12
1 2122.69 2026.8 1804.92 -1 0 0 119423 13
1 2212.96 2041.87 2241.98 -1 0 -1 121517 15
1 1783.54 1834.82 2239.5 0 0 -1 129048 15
1 2057.92 2026.95 2046.46 -1 0 0 122382 14
1 1848.8 1922.9 2059.62 0 0 -1 123848 14
1 2124.01 2162.87 1990.51 0 0 0 127106 15
1 1834.85 2248.64 2076.56 0 -1 0 126704 14
1 2096.11 2115.46 1770.92 -1 -1 0 123971 14
1 1892.16 1971.7 1951.16 0 0 0 128411 12
1 2077.78 2000.07 1905.72 -1 0 0 121668 13
1 2246.66 1804.2 1919.32 0 0 0 131475 15
1 2246.76 2001.94 2037.33 -1 0 -1 133960 14
1 1971.34 1945.2 1843.49 0 0 0 125708 13
1 2168.7 2084.19 2099.89 -1 0 -1 134665 14
1 1844.78 2188.57 1812.62 0 -1 0 126434 14
1 2231.62 1814.54 1869.14 -1 0 0 125578 12
1 2147.38 2126.08 2022.75 -1 -1 0 122890 13
1 2082.83 1935.85 2017.45 -1 0 0 127227 16
1 1835.54 2024.29 2004.42 0 0 0 138519 16
1 1984.43 1817.15 1895.78 0 0 0 126766 14
1 1844.34 2116.72 1871.76 0 -1 0 144847 16
1 2101.96 1803.11 2161.77 0 0 -1 131761 14
1 2244.51 2083.4 1771.83 -1 0 0 127900 14
1 2039.57 1905.43 2170.26 0 0 0 120814 14
1 2134.77 1861.19 2069 0 0 0 120785 14
1 2091.83 1933.63 1834.14 0 0 0 123495 14
1 1877.03 1974.29 2245.22 0 0 -1 144244 13
1 2208.96 1915.48 1787.26 -1 0 0 125521 15
1 2182.77 1996.16 2247.14 -1 0 -1 128454 15
1 1762.16 1757.03 1985.57 1 0 0 138188 14
1 1903.03 1919.8 1964.91 0 0 0 139826 17
1 2078.52 2154.18 2241.12 -1 -1 -1 124894 14
1 1830.72 1961.13 2222.95 0 0 -1 132174 15
1 1882.1 1997.79 1814.18 0 0 0 136787 13
1 2208.18 2197.65 1963.49 -1 -1 0 138250 16
1 2162.91 1904.17 1762.38 -1 0 0 120202 13
1 2244.45 2227.65 1831.36 -1 0 0 123605 14
1 1787.55 1874.43 2029.53 0 0 0 130066 15
1 1931.2 1755.94 2250.43 0 1 -1 132604 14
1 1948.04 1806.58 2179.61 0 0 -1 132712 14
1 2057.3 1982.18 2075.69 0 0 -1 135160 17
1 2247.42 1934.28 2160.46 -1 0 -1 129294 14
1 2028.17 1910 1917.92 0 0 0 134774 15
1 2169.22 1906.55 1943.65 -1 0 -1 130401 13
1 2171.23 1886.47 2039.71 -1 0 0 134516 15
1 2056.12 1830.59 2170.24 0 0 -1 133727 15
1 1803.67 2004.35 1770.23 0 0 0 141396 15
1 1915.98 1751.89 1876.79 0 0 0 120843 13
1 2216.3 2240.97 1995.52 0 0 0 144861 19
1 2161.26 2249.6 1892.02 -1 -1 0 135156 15
1 2061.07 1888.82 1846.4 -1 0 0 116456 13
1 1894.05 2010.32 2024.95 0 -1 0 129990 14
1 2118.15 2198.91 1803.8 -1 -1 0 120455 14
1 1819.83 1771.94 2119.73 0 0 -1 136791 15
1 1749.98 1866.79 1991.56 0 0 0 132711 17
1 2115.6 2091.41 2108.2 -1 0 -1 139369 17
1 2009.32 2175.26 1892.26 0 -1 0 135128 14
1 1996.34 1778.34 2167.02 0 0 -1 121231 14
1 2072.18 2164.99 2057.88 0 0 0 125718 15
1 2217.61 1865.39 1800.28 -1 0 0 120427 12
1 2152.22 2166.33 1945.2 -1 0 0 123872 14
1 2067.04 2211.85 1804.17 0 -1 0 121961 14
1 2092.24 1903.9 2249.98 0 0 -1 151510 17
1 1762.74 1817.86 1968.01 0 0 0 128317 14
1 1817.91 1838.58 2004.39 0 0 0 132287 15
1 2035.1 2202.1 2207.45 0 -1 -1 126981 16
1 1773.95 1915.32 2094.49 0 0 0 131872 15
1 1793.11 1942.44 1873.09 0 0 0 124603 13
1 1842.91 1846.17 1928.48 0 0 0 141561 15
1 1784.24 2040 1910.23 0 0 0 114705 12
1 2229.99 2014.99 1987.73 0 0 0 134304 15
1 1838.27 1951.1 1840 0 0 0 127869 13
1 1918.99 2166.97 1946.76 0 -1 0 134595 15
1 1977.95 1952.41 2079.75 0 -1 -1 130184 15
1 1822.36 1883.66 2083.34 0 0 0 128101 15
1 2096.19 2221.51 1849.08 0 -1 0 128732 13
1 1873.78 1877.98 2219.63 0 0 -1 130799 14
1 2178.71 2155.51 1990.96 0 -1 0 125444 14
1 1820.1 2072.76 1889.05 0 -1 0 120572 13
1 1980.99 1935.68 2201.64 0 0 -1 132976 15
1 2032.85 1905.89 1770.68 0 0 0 121683 13
1 1979.58 2084.1 2180.63 0 -1 0 135157 15
1 1768.08 2052.6 2017.4 0 0 0 132372 14
1 1999.66 1855.27 1996.96 0 0 -1 139155 16
1 2161.96 2170.48 1813.95 0 -1 0 122773 14
1 2251.74 2193.6 2114.7 -1 -1 0 121748 14
1 2100.35 1986.95 2107.36 -1 0 -1 127270 14
1 1986.39 2248.52 1840.03 0 -1 0 126412 12
1 1843.68 1750.46 1764.34 0 0 0 129365 14
1 2180.2 2185.29 2200.57 -1 -1 -1 130246 15
1 1923.3 2066.42 1957.58 0 0 0 120292 13
1 1832.45 2213.81 1859.33 0 -1 0 126651 14
1 2223.82 1781.02 2241.83 -1 0 -1 126082 13
1 2178 2095.97 2209.94 -1 -1 -1 133274 16
1 1861.83 1978.64 1994.32 0 0 0 137319 14
1 1865.27 2207 2205.91 0 -1 -1 132038 13
1 2042.95 2020.48 1820.91 -1 -1 0 137573 15
1 1927.26 1928.61 1869.32 0 0 0 129831 16
1 1956.38 1823.39 1984.46 0 0 0 124231 14
1 2035.25 1819.23 1914.85 -1 0 0 124365 15
1 1927.69 2217.88 1913.42 0 -1 0 121765 14
1 2134.36 2191.5 2229.45 0 0 -1 118519 13
1 1755.65 2157.39 2227.68 0 -1 -1 120565 15
1 1869.08 1858.84 2077.14 0 0 -1 152048 18
1 1820.09 2013.57 2133.14 0 0 0 122297 13
1 2012.21 1912.5 1859.04 -1 0 0 135325 15
1 2126.24 1995.48 1926.36 -1 0 0 133435 15
1 2218.35 2183.02 2014.18 -1 -1 0 125986 14
1 2136.32 2078.86 1809.85 -1 -1 0 138302 17
1 1877.12 2078.37 2175.12 0 -1 -1 124162 14
1 2025.66 2202.43 2118.86 0 -1 -1 113497 13
1 2019.31 1792.89 1861.98 0 0 0 137639 15
1 2094.66 2054.04 2015.66 -1 0 0 127087 14
1 2169.6 2112.51 1835.75 -1 -1 0 129847 15
1 2012.09 1779.04 1749.89 0 0 0 134852 14
1 1960.13 1978.26 1971.55 0 0 0 121589 12
1 1885.72 1977.74 2187.13 0 0 -1 129668 15
1 1794.54 1947.47 2185.88 0 0 0 123566 14
1 1993.7 2179.96 2234.11 0 -1 -1 125422 14
1 1768.29 2162.83 1900.29 0 -1 0 133984 14
1 2083.28 1847.53 1811.39 -1 0 0 132116 14
1 2013.14 2139.07 2065.47 0 0 -1 141224 16
1 1933.21 1849.51 2208.72 0 0 -1 133055 13
1 1835.65 2225.93 1948.72 0 -1 0 123737 15
1 1871.21 1848.76 2131.66 0 0 -1 129970 14
1 1910.13 1862.99 1946.28 0 0 0 135836 15
1 1927.34 1918.9 2019.64 0 0 -1 135184 12
1 2158.12 2198.34 2137.9 -1 -1 0 123428 14
1 1845.89 2135.08 1822.42 0 -1 0 126833 13
1 1829.93 2241.29 1814.11 0 -1 0 124687 15
1 1824.71 2052.21 1756.94 0 0 0 139157 15
1 1882.63 2249.37 2232.21 0 -1 -1 131856 13
1 2151.49 1864.88 2230.39 0 0 -1 131632 13
1 2143.44 1816.63 2206.92 -1 0 -1 130658 15
1 2170.35 2193.33 1766 -1 -1 0 127401 15
1 2112.88 1952.79 2146.2 -1 0 0 122883 16
1 2008.64 1900.9 1967.53 0 0 0 130189 14
1 1805.79 1946.09 1925.84 0 0 0 125478 14
1 1972.32 1811.4 2131.21 0 0 -1 116925 14
1 1897.93 1995.66 2076.94 0 0 0 124011 14
1 2214.62 2070.1 2130.69 0 0 0 126162 14
1 1976.6 2107.69 2021.33 0 -1 0 123930 14
1 1913.36 1823.78 2042.77 0 0 -1 124950 14
1 1891.17 1943.81 1906.17 0 0 0 126846 13
1 1931.49 1774.55 2053.06 0 0 -1 119652 13
1 2027.65 2190.99 2067.52 0 -1 0 113890 12
1 1965.51 1767.99 2093.49 0 0 0 114847 13
1 2205.83 1973.27 1964.01 -1 0 0 123082 14
1 2203.16 2033.06 1891.79 -1 0 0 128128 13
1 2201.11 1935.22 2113.85 -1 0 -1 131102 15
1 1837.03 1777.9 1847.96 0 1 0 130866 14
1 1890.57 2051.3 1812.99 0 0 0 121291 14
1 1821.54 2132.81 1926.31 0 -1 0 130344 15
1 1825.42 2247.59 1899.74 0 -1 0 135602 16
1 2090.04 1963.81 1972.22 0 0 0 126155 14
1 2227.42 2028.63 1786.99 0 0 0 131754 15
1 1889.42 1816.85 1926.24 0 0 0 131772 15
1 1928.57 1954.91 2061.19 0 0 0 124428 14
1 1801.5 1941.21 1769.76 0 0 0 122306 13
1 1801.06 1864.51 1825.72 0 0 0 124166 15
1 1957.74 1950.63 2249.36 0 0 -1 127019 13
1 2183.46 1771.03 2037.15 -1 0 0 134280 14
1 1866.73 1798.44 2114.73 0 0 -1 143464 14
1 2028.58 2063.91 2084.13 0 0 0 129430 13
1 1850.23 2183.32 1917.54 0 -1 0 126132 14
1 2015.89 1869.34 2094.81 0 0 0 110308 12
1 2104.67 2193.37 1950.24 -1 -1 0 128865 14
1 1908.68 2120.68 2156.64 0 -1 -1 129542 14
1 2003.04 1875.5 2146.1 0 0 0 126512 15
1 1831.4 1755.27 2215.31 0 0 -1 130661 14
1 2090.1 2066.79 2068.12 0 0 -1 126236 13
1 2249.05 1764.11 1865.6 -1 0 0 128208 15
1 1851.06 1792.97 1797.59 0 0 0 126345 14
1 1906.63 1784.23 1835.66 0 0 0 132659 16
1 2138.81 1948.68 2099.16 -1 0 0 129442 15
1 2044.91 2148.41 1922.34 -1 -1 0 121992 13
1 2167.83 2125.97 1783.86 -1 0 0 125922 15
1 1958.25 1774.2 1936.11 0 0 0 134206 17
1 1799.49 1799.17 1808.83 0 0 0 124080 14
1 1800.34 2239.78 2036.28 0 -1 0 142239 16
1 2189.72 2122.31 1897.63 -1 -1 0 137301 15
1 1760.51 1891.93 1802.49 0 0 0 119289 13
1 1941.61 2104.62 1831.64 0 0 0 119212 14
1 1861.91 2203.08 1762.72 0 -1 0 138892 14
1 2241.4 2066.29 1911.26 -1 0 0 134171 14
1 1866.99 2024.19 2167.15 0 0 -1 120914 15
1 2222.04 1893.46 1845.73 -1 0 0 124922 14
1 1995.19 1773.22 2047.76 0 1 0 119193 14
1 1772.21 2137.07 1947.5 0 -1 0 137084 16
1 1895.69 1762.4 1925.48 0 0 0 128107 15
1 1757.02 2215.71 2014.31 0 -1 0 133281 14
1 2092.03 2000.21 2014.25 -1 0 0 133251 16
1 1942.96 2083.61 2141.71 0 -1 -1 122614 14
1 2071.3 1946 1775.58 -1 0 0 129840 15
1 1839.5 1829.2 1836.24 0 0 0 120469 14
1 2220.78 2184.44 1748.95 -1 -1 0 127398 14
1 1954.25 1862.05 2161.68 0 0 -1 124826 13
1 2235.77 1788.43 2094.82 -1 0 -1 125445 13
1 2040.91 1838.81 1842.56 0 0 0 122400 13
1 2164.97 2157.31 1865.65 0 0 0 123051 14
1 1816.03 2035.15 1953.73 0 -1 0 130704 14
1 2098.68 1964.55 2236.49 0 0 -1 129162 13
1 2117.86 1787.31 2111.92 -1 0 -1 125637 13
1 1851.06 2061.74 1846.85 0 0 0 124731 15
1 2181.09 1801.2 1991.49 -1 0 0 125529 15
1 2016.01 1748.49 2209.81 0 0 0 120470 14
1 1948.97 2173.77 2204.56 0 -1 -1 134592 14
1 2176.77 2024.24 1983.42 -1 0 0 128347 15
1 2039.84 2187.75 1756.71 0 -1 0 131355 15
1 2071.54 1904.26 1974.96 0 0 0 127752 13
1 1822.98 1896.41 1935.61 0 0 0 137798 16
1 2102.48 1855.06 2151.75 0 0 -1 128389 15
1 1863.47 1823.08 2025.86 0 0 0 130946 12
1 1771.9 2110.92 2031.98 0 -1 0 127797 16
1 1842.43 2061.51 2137.62 0 -1 -1 133028 15
1 1796.26 2152.97 1829.48 0 -1 0 137943 18
1 2202.82 2147.56 1943.58 -1 -1 0 147584 17
1 2011.88 2042.34 2171.88 -1 0 -1 128987 14
1 2013.89 1958.74 2041.02 -1 0 0 131022 13
1 2046.75 2155.77 2103.41 -1 -1 -1 116835 13
1 2033.84 2070.08 1840.42 -1 -1 0 128432 15
1 2041.37 1931.03 1817.99 0 0 0 126377 14
1 1775.79 1816.5 2106.04 0 0 -1 125712 12
1 1804.4 1774.78 2170.73 0 0 -1 130946 14
1 2009.2 2043.88 2024.07 0 -1 -1 139363 16
1 1921.94 1887.21 2125.46 0 0 -1 136621 16
1 1913.16 1772.86 2103.96 0 0 -1 125450 13
1 2006.64 2147.64 2003.26 0 0 0 125844 13
1 2162.42 2034.33 1839.05 -1 -1 0 128613 16
1 1768.22 2007.99 2117.57 0 0 -1 124252 13
1 1888.98 2097.54 1762.86 0 -1 0 132562 14
1 1828.15 1786.22 2043.72 0 0 -1 140600 16
1 1778.12 1966.22 2022.08 0 0 0 115393 11
1 1752.24 2176.34 1977.31 0 -1 0 129439 13
1 1789.35 2232.31 2106.93 0 -1 -1 123786 14
1 1803.58 2036.37 1852.63 0 0 0 123659 14
1 1818.78 2228.2 2159.21 0 -1 -1 136571 16
1 2051.5 1996.17 1952.53 0 0 0 127764 15
1 1923.54 1963.8 1827.21 0 0 0 122410 12
1 2181.44 1931.97 1989.93 -1 0 0 132566 15
1 2135.88 2077.89 2041.56 -1 0 0 126556 15
1 1791.25 1827.47 1922.99 0 0 0 130856 15
1 1991.57 2067.89 2130.05 0 -1 0 126285 14
1 2118.14 1866.33 1958.51 -1 0 -1 124701 15
1 2173.28 1852.55 1774.2 -1 0 0 119810 13
1 1786.4 1781.04 1895.99 0 0 0 126055 13
1 1847.62 2014.28 2226.61 0 -1 -1 127714 13
1 2028.72 1799.69 2205.31 0 0 -1 126549 14
1 1954.26 1915.24 2158.17 0 -1 -1 126523 13
1 2085.82 2144.7 2176.91 0 0 -1 131180 14
1 1981.2 1909.54 2111.27 0 0 -1 122169 15
1 2008.49 1856.93 1760.55 0 0 0 130808 15
1 2224.14 1774.45 1957.81 -1 0 0 124421 14
1 2026.4 1974.93 1789.4 0 0 0 126800 15
1 2085.25 1947.49 1921.71 -1 0 0 133660 16
1 2080.79 1982.42 1814.62 -1 0 0 134866 15
1 2048.58 1866.71 1893.73 0 0 0 124044 14
1 2232.75 1799.95 2004.42 0 0 0 130860 14
1 2043.17 2183.03 2017.18 0 -1 0 125353 14
1 2132.5 2170.32 2179.89 -1 -1 -1 118049 12
1 1916.29 2042.71 2163.03 0 0 -1 121794 14
1 2246.15 1999.91 2250.39 -1 0 -1 131465 15
1 1952.07 1907.08 2066.23 0 0 -1 125875 15
1 2060.46 2051.82 2192.19 0 0 -1 130790 13
1 2161.81 2221.65 2074.98 0 -1 -1 122512 14
1 1994.52 1787.39 1995.85 0 0 0 121230 13
1 2207.22 1773.8 1896.45 -1 0 0 117692 12
1 2096.88 1756.28 2029.59 0 0 0 125921 14
1 2007.32 2043.16 2226.53 0 0 -1 134733 14
1 2218.36 1981.73 1881.25 -1 0 0 127756 14
1 2156.23 1957.94 1949.8 -1 0 0 123574 15
1 1803.53 2143.12 2208.14 0 -1 -1 134427 15
1 2200 1961.1 2065.1 -1 0 -1 137066 15
1 1875.97 1788.07 1882.49 0 0 0 127748 14
1 1973.59 1751.04 1787.77 -1 0 0 133707 15
1 2143.8 2124.75 2076.44 -1 -1 0 118694 12
1 2007.92 2230.56 2024.76 0 -1 0 123485 14
1 1837.22 1985.33 1947.2 0 0 0 126110 14
1 1971.87 2236.57 2180.28 0 -1 -1 134900 14
1 1889.91 1797.2 1760.33 0 0 0 126177 14
1 1762.63 2021.82 1821.81 0 0 0 127678 15
1 2194.35 1848.84 1852.84 -1 0 0 125607 13
1 2250.85 2174.27 1834.58 -1 -1 0 130129 15
1 2169.1 1950.33 1791.85 -1 0 0 122360 14
1 1934.6 2108.13 1988.06 0 0 0 122257 16
1 1790.48 1913.72 2228.24 0 0 -1 124266 13
1 1979.85 2196.44 2090.53 0 -1 -1 121985 14
1 2042.99 1778.52 2069.59 -1 0 0 124194 14
1 2072.54 2206.26 2093.26 0 -1 0 125490 14
1 1889.51 1756.29 1793.29 0 0 0 131186 14
1 1852.53 1934.95 1958.14 0 0 0 130485 13
1 1955.36 1856.89 1752.85 0 0 0 116477 12
1 1816.87 1901.82 1992.85 0 0 0 130770 15
1 2025.68 2221.78 1940.89 0 -1 0 128143 15
1 1876.13 2224.9 1894.92 0 -1 0 130080 14
1 1859 2248.85 2028.31 0 -1 0 125778 14
1 1969.43 2067.55 1986.4 0 0 0 115981 13
1 1957.37 2126.18 2111.59 0 -1 -1 133232 16
1 1957.56 2001.31 1844.24 0 0 0 125622 13