LAMMPS (23 Jun 2022 - Update 1)
OMP_NUM_THREADS environment is not set. Defaulting to 1 thread. (src/comm.cpp:98)
  using 1 OpenMP thread(s) per MPI task
###

# Read restart info
read_restart ${read_res}
read_restart ./trial8/2080/equpmf70.res
Reading restart file ...
  restart file = 23 Jun 2022, LAMMPS = 23 Jun 2022
  restoring atom style atomic from restart
  orthogonal box = (1633.742 1633.742 1633.742) to (2366.258 2366.258 2366.258)
  1 by 2 by 2 MPI processor grid
  restoring pair style table from restart
  1000 atoms
  read_restart CPU = 0.056 seconds

# Settings
pair_style table/pgn spline 10941
pair_coeff 1 1 N20e.txt DE_GNP 308 72.9   # 1.35 * r
pair_coeff 2 2 N100e.txt DE_GNP 473.9 111.78
WARNING: 20 of 10941 force values in table DE_GNP are inconsistent with -dE/dr.
WARNING:  Should only be flagged at inflection points (src/pair_table_pgn.cpp:478)
pair_coeff 1 2 mixed_potentiale.txt DE_GNP 391.2 92.95
WARNING: 1564 of 10941 force values in table DE_GNP are inconsistent with -dE/dr.
WARNING:  Should only be flagged at inflection points (src/pair_table_pgn.cpp:478)

# Neighbor list
neighbor 2.0 bin
neigh_modify delay 0 every 1 check no once yes

# Temperature
variable T equal ${Temp}
variable T equal 300

# Deformation
reset_timestep 0
variable tmp equal "lx"
variable L0 equal ${tmp}
variable L0 equal 732.515964429986
variable strain equal "(lx - v_L0)/v_L0"
variable stp equal "step"
variable tmpe equal "temp"
variable p1 equal "v_strain"
variable p2 equal "-pxx*1.01325/10000"
variable p3 equal "-pyy*1.01325/10000"
variable p4 equal "-pzz*1.01325/10000"
variable p5 equal "lx"
variable p6 equal "ly"
variable p7 equal "lz"
variable p8 equal "press"
variable p9 equal "epair"
variable p10 equal "etotal"

# Thermo
thermo_style custom step temp v_p1 v_p2 v_p3 v_p4 press lx ly lz vol density epair pe ke etotal pxx pyy pzz pxy pxz pyz spcpu
thermo ${ts_save}
thermo 1000

# Dump
# dump 1 all custom 2000 ./${N20}${N100}/tensile/trajectory/trajectory_${usic}_${trial}_*.tensile.custom id type x y z ix iy iz
# dump_modify 1 sort id
dump 2 all cfg 50000 ./trial${trial}/${N20}${N100}/tensile/trajectory/dumpten.tens_${usic}_${trial}_*.cfg mass type xs ys zs fx fy fz
dump 2 all cfg 50000 ./trial8/${N20}${N100}/tensile/trajectory/dumpten.tens_${usic}_${trial}_*.cfg mass type xs ys zs fx fy fz
dump 2 all cfg 50000 ./trial8/20${N100}/tensile/trajectory/dumpten.tens_${usic}_${trial}_*.cfg mass type xs ys zs fx fy fz
dump 2 all cfg 50000 ./trial8/2080/tensile/trajectory/dumpten.tens_${usic}_${trial}_*.cfg mass type xs ys zs fx fy fz
dump 2 all cfg 50000 ./trial8/2080/tensile/trajectory/dumpten.tens_1_${trial}_*.cfg mass type xs ys zs fx fy fz
dump 2 all cfg 50000 ./trial8/2080/tensile/trajectory/dumpten.tens_1_8_*.cfg mass type xs ys zs fx fy fz
dump_modify 2 element N20 N100

fix 1 all nvt temp ${T} ${T} 100
fix 1 all nvt temp 300 ${T} 100
fix 1 all nvt temp 300 300 100
fix 2 all deform 1 x erate ${strain_rate} y erate ${strain_rate} z erate ${strain_rate} units box
fix 2 all deform 1 x erate 5e-6 y erate ${strain_rate} z erate ${strain_rate} units box
fix 2 all deform 1 x erate 5e-6 y erate 5e-6 z erate ${strain_rate} units box
fix 2 all deform 1 x erate 5e-6 y erate 5e-6 z erate 5e-6 units box
fix             def1 all print ${ts_save} "${p1} ${p2} ${p3} ${p4}" file ./tensile/${trial}/tensile${N20}${N100}_${usic}_${trial}.txt screen no
fix             def1 all print 1000 "${p1} ${p2} ${p3} ${p4}" file ./tensile/${trial}/tensile${N20}${N100}_${usic}_${trial}.txt screen no
fix             def1 all print 1000 "${p1} ${p2} ${p3} ${p4}" file ./tensile/8/tensile${N20}${N100}_${usic}_${trial}.txt screen no
fix             def1 all print 1000 "${p1} ${p2} ${p3} ${p4}" file ./tensile/8/tensile20${N100}_${usic}_${trial}.txt screen no
fix             def1 all print 1000 "${p1} ${p2} ${p3} ${p4}" file ./tensile/8/tensile2080_${usic}_${trial}.txt screen no
fix             def1 all print 1000 "${p1} ${p2} ${p3} ${p4}" file ./tensile/8/tensile2080_1_${trial}.txt screen no
fix             def1 all print 1000 "${p1} ${p2} ${p3} ${p4}" file ./tensile/8/tensile2080_1_8.txt screen no

timestep       		${ts}
timestep       		0.1
run				${steps_tensile}
run				6000000
Generated 0 of 1 mixed pair_coeff terms from geometric mixing rule
Unused restart file global fix info:
  fix style: npt, fix ID: 5
Neighbor list info ...
  update every 1 steps, delay 0 steps, check no
  max neighbors/atom: 2000, page size: 100000
  master list distance cutoff = 113.78
  ghost atom cutoff = 113.78
  binsize = 56.89, bins = 13 13 13
  1 neighbor lists, perpetual/occasional/extra = 1 0 0
  (1) pair table/pgn, perpetual
      attributes: half, newton on
      pair build: half/bin/atomonly/newton
      stencil: half/bin/3d
      bin: standard
Per MPI rank memory allocation (min/avg/max) = 3.838 | 3.84 | 3.842 Mbytes
   Step          Temp           v_p1           v_p2           v_p3           v_p4          Press            Lx             Ly             Lz           Volume        Density         E_pair         PotEng         KinEng         TotEng          Pxx            Pyy            Pzz            Pxy            Pxz            Pyz           S/CPU     
         0   306.52761      4.6560147e-16  0.0057021783   0.0048610424  -0.00053207299 -32.99991       732.51596      732.51596      732.51596      3.9305315e+08  1.6138889     -46147673      -46147673       912.78687     -46146761      -56.276125     -47.974759      5.2511521      3.9733771      17.995951      4.155802       0            
      1000   358.05119      0.0005         0.013653587    0.012633028    0.0072957176  -110.47728      732.88222      732.88222      732.88222      3.9364303e+08  1.6114705     -46147277      -46147277       1066.2153     -46146211      -134.75043     -124.67829     -72.003134      3.0941628      18.366127      5.0557904      18471.35     
      2000   417.06308      0.001          0.021161217    0.020137102    0.014786488   -184.50467      733.24848      733.24848      733.24848      3.9423349e+08  1.6090569     -46146364      -46146364       1241.9426     -46145122      -208.84497     -198.73774     -145.93129      2.0108144      17.956113      5.2798302      18764.61     
      3000   458.17065      0.0015         0.028140236    0.027308939    0.021970685   -254.69154      733.61474      733.61474      733.61474      3.9482454e+08  1.6066482     -46144938      -46144938       1364.3539     -46143574      -277.72254     -269.51828     -216.83381      1.0198843      17.795776      4.9341621      18491.495    
      4000   478.75172      0.002          0.035051973    0.034328094    0.029036917   -323.76671      733.981        733.981        733.981        3.9541619e+08  1.6042442     -46142977      -46142977       1425.6409     -46141551      -345.93608     -338.79195     -286.57209      0.55855064     17.947556      4.5107008      18212.611    
      5000   482.43384      0.0025         0.042155369    0.041424781    0.036156556   -393.90314      734.34725      734.34725      734.34725      3.9600843e+08  1.601845      -46140427      -46140427       1436.6056     -46138990      -416.04114     -408.83081     -356.83747      0.61747632     18.104727      4.4727901      17944.537    
      6000   475.65192      0.003          0.049233462    0.048461244    0.043144889   -463.32625      734.71351      734.71351      734.71351      3.9660125e+08  1.5994507     -46137268      -46137268       1416.4102     -46135852      -485.89649     -478.27529     -425.80695      0.60780633     18.137045      4.571148       18096.294    
      7000   464.33622      0.0035         0.056066628    0.055256871    0.049989578   -530.67877      735.07977      735.07977      735.07977      3.9719467e+08  1.597061      -46133513      -46133513       1382.714      -46132130      -553.3346      -545.34292     -493.35878     -0.45109044     17.185911      4.2252759      17933.625    
      8000   451.83372      0.004          0.062775122    0.062016999    0.056948074   -597.87876      735.44603      735.44603      735.44603      3.9778868e+08  1.5946762     -46129166      -46129166       1345.4837     -46127820      -619.54228     -612.06019     -562.03379     -1.6661391      16.161456      4.3764266      17899.565    
      9000   439.74558      0.0045         0.069300517    0.06875784     0.063824414   -664.14268      735.81229      735.81229      735.81229      3.9838328e+08  1.5922961     -46124230      -46124230       1309.4872     -46122920      -683.94293     -678.58712     -629.89799     -1.6607624      16.273227      4.3608824      17989.329    
     10000   428.99956      0.005          0.075663855    0.075265955    0.070315033   -727.83894      736.17854      736.17854      736.17854      3.9897848e+08  1.5899207     -46118709      -46118709       1277.4874     -46117432      -746.74419     -742.81722     -693.95542     -1.1418279      16.525667      3.8332358      17780.241    
     11000   419.81808      0.0055         0.081983044    0.081560725    0.076608371   -790.03912      736.5448       736.5448       736.5448       3.9957426e+08  1.58755       -46112616      -46112616       1250.1466     -46111366      -809.10974     -804.94177     -756.06584     -1.4990573      16.164215      4.607137       18111.174    
     12000   412.10141      0.006          0.088172319    0.087714428    0.08297784    -851.59828      736.91106      736.91106      736.91106      4.0017064e+08  1.5851841     -46105969      -46105969       1227.1676     -46104741      -870.19313     -865.6741      -818.92761     -2.8109961      15.363086      6.4569719      18054.226    
     13000   405.7397       0.0065         0.094190856    0.093776777    0.089247391   -911.96652      737.27732      737.27732      737.27732      4.0076762e+08  1.5828228     -46098774      -46098774       1208.2235     -46097566      -929.59147     -925.50483     -880.80327     -3.7800831      14.739503      7.0657776      18368.945    
     14000   400.44056      0.007          0.10011217     0.099789925    0.095145111   -970.62983      737.64358      737.64358      737.64358      4.0136518e+08  1.5804663     -46091045      -46091045       1192.4436     -46089853      -988.03027     -984.84999     -939.00924     -3.7328421      14.657919      6.2662187      17926.925    
     15000   395.9624       0.0075         0.10598668     0.10568943     0.10079204    -1027.9403      738.00983      738.00983      738.00983      4.0196334e+08  1.5781144     -46082793      -46082793       1179.1084     -46081614      -1046.0072     -1043.0736     -994.74012     -3.3742652      14.40707       5.6164617      18291.591    
     16000   392.07735      0.008          0.11174961     0.11146478     0.10657923    -1084.9367      738.37609      738.37609      738.37609      4.0256209e+08  1.5757672     -46074027      -46074027       1167.5394     -46072860      -1102.8829     -1100.0719     -1051.8552     -3.5133722      13.408302      5.7350391      17721.707    
     17000   388.80992      0.0085         0.1173077      0.11711215     0.11243869    -1141.0759      738.74235      738.74235      738.74235      4.0316144e+08  1.5734246     -46064755      -46064755       1157.8095     -46063598      -1157.737      -1155.807      -1109.6836     -4.200769       12.775961      6.0620194      18025.002    
     18000   386.41222      0.009          0.12275216     0.12253989     0.11803178    -1195.2425      739.10861      739.10861      739.10861      4.0376138e+08  1.5710867     -46054986      -46054986       1150.6696     -46053836      -1211.4696     -1209.3746     -1164.8831     -4.700586       13.205541      6.0233789      18128.082    
     19000   384.81619      0.0095         0.12810373     0.12781196     0.12341184    -1247.8905      739.47487      739.47487      739.47487      4.0436192e+08  1.5687534     -46044730      -46044730       1145.9169     -46043584      -1264.2855     -1261.4059     -1217.9801     -4.8906565      14.085434      6.148455       18281.405    
     20000   383.76742      0.01           0.13335758     0.13302627     0.12869006    -1299.6921      739.84112      739.84112      739.84112      4.0496305e+08  1.5664247     -46034007      -46034007       1142.7939     -46032865      -1316.137      -1312.8672     -1270.0722     -5.0642286      14.908978      5.9325779      18071.642    
     21000   383.18928      0.0105         0.13853627     0.13816859     0.13391727    -1350.8418      740.20738      740.20738      740.20738      4.0556478e+08  1.5641006     -46022828      -46022828       1141.0723     -46021687      -1367.2467     -1363.6179     -1321.6607     -4.5944124      15.147587      5.6151028      18008.192    
     22000   382.89215      0.011          0.1436897      0.14325809     0.13915669    -1401.7747      740.57364      740.57364      740.57364      4.0616711e+08  1.5617812     -46011191      -46011191       1140.1874     -46010050      -1418.107      -1413.8474     -1373.3697     -4.183884       14.464278      6.4178548      18341.626    
     23000   382.88095      0.0115         0.14868812     0.14821483     0.14420577    -1451.1348      740.9399       740.9399       740.9399       4.0677003e+08  1.5594663     -45999103      -45999103       1140.1541     -45997963      -1467.4376     -1462.7666     -1423.2002     -5.2867242      13.305662      7.4737395      18006.83     
     24000   383.374        0.012          0.15342038     0.15305412     0.1489648     -1498.2788      741.30616      741.30616      741.30616      4.0737354e+08  1.5571559     -45986581      -45986581       1141.6223     -45985439      -1514.1414     -1510.5267     -1470.1683     -6.9863041      12.132772      7.6506221      18182.669    
     25000   384.18461      0.0125         0.15798006     0.15786179     0.15364505    -1544.4918      741.67241      741.67241      741.67241      4.0797766e+08  1.5548502     -45973636      -45973636       1144.0362     -45972492      -1559.1419     -1557.9747     -1516.3588     -7.2296596      11.936392      7.1475776      18137.708    
     26000   385.23273      0.013          0.16249491     0.16251642     0.15820438    -1589.6561      742.03867      742.03867      742.03867      4.0858237e+08  1.552549      -45960280      -45960280       1147.1573     -45959133      -1603.7001     -1603.9123     -1561.3559     -5.9833293      12.90411       6.858509       18266.292    
     27000   386.69408      0.0135         0.16700705     0.16693063     0.16264748    -1633.6382      742.40493      742.40493      742.40493      4.0918767e+08  1.5502523     -45946523      -45946523       1151.5089     -45945371      -1648.2315     -1647.4773     -1605.2058     -4.7428069      13.949951      6.4846442      18121.151    
     28000   387.95549      0.014          0.17145386     0.17132498     0.16725176    -1677.8702      742.77119      742.77119      742.77119      4.0979358e+08  1.5479602     -45932368      -45932368       1155.2652     -45931213      -1692.1181     -1690.846      -1650.6466     -4.8350843      13.780631      6.5933181      18297.463    
     29000   388.61789      0.0145         0.17571687     0.17569371     0.17186174    -1721.4321      743.13745      743.13745      743.13745      4.1040008e+08  1.5456725     -45917816      -45917816       1157.2377     -45916659      -1734.1907     -1733.9621     -1696.1435     -5.3352314      12.449019      6.9890526      17982.773    
     30000   389.40811      0.015          0.17985773     0.1798271      0.176114      -1762.6411      743.5037       743.5037       743.5037       4.1100718e+08  1.5433894     -45902878      -45902878       1159.5908     -45901719      -1775.0578     -1774.7554     -1738.1101     -5.2966618      11.470404      7.3586728      18088.154    
     31000   390.65365      0.0155         0.18389557     0.18381243     0.18017944    -1802.4096      743.86996      743.86996      743.86996      4.1161488e+08  1.5411108     -45887573      -45887573       1163.2999     -45886410      -1814.9082     -1814.0877     -1778.2329     -5.4657707      11.821293      7.3331374      18315.426    
     32000   391.92192      0.016          0.18779697     0.187796       0.18419885    -1841.5719      744.23622      744.23622      744.23622      4.1222318e+08  1.5388367     -45871910      -45871910       1167.0765     -45870743      -1853.412      -1853.4025     -1817.9013     -5.9123934      12.608827      6.9372377      18105.143    
     33000   393.09402      0.0165         0.19162648     0.19176598     0.18811258    -1880.1054      744.60248      744.60248      744.60248      4.1283207e+08  1.536567      -45855889      -45855889       1170.5669     -45854718      -1891.2064     -1892.5831     -1856.5268     -5.6588299      12.544252      6.2502126      18201.877    
     34000   394.40704      0.017          0.19538706     0.19562228     0.19191648    -1917.6768      744.96874      744.96874      744.96874      4.1344157e+08  1.5343018     -45839513      -45839513       1174.4768     -45838338      -1928.3203     -1930.6418     -1894.0684     -5.6158744      12.076355      5.7644978      18087.587    
     35000   396.04078      0.0175         0.1990575      0.19932732     0.19556869    -1953.9551      745.33499      745.33499      745.33499      4.1405167e+08  1.532041      -45822795      -45822795       1179.3418     -45821615      -1964.5448     -1967.2077     -1930.113      -6.416284       11.650995      6.6736509      18325.129    
     36000   397.7431       0.018          0.20269145     0.20293386     0.1992068     -1989.743       745.70125      745.70125      745.70125      4.1466236e+08  1.5297847     -45805749      -45805749       1184.411      -45804565      -2000.4091     -2002.8015     -1966.0183     -7.1117965      11.02554       7.9386491      18130.928    
     37000   399.41305      0.0185         0.2062718      0.20646243     0.20278563    -2024.9029      746.06751      746.06751      746.06751      4.1527366e+08  1.5275328     -45788380      -45788380       1189.3839     -45787191      -2035.7444     -2037.6257     -2001.3386     -7.1139702      10.829885      7.9000808      18316.554    
     38000   401.45372      0.019          0.20979039     0.20984949     0.20627196    -2059.0899      746.43377      746.43377      746.43377      4.1588555e+08  1.5252853     -45770696      -45770696       1195.4606     -45769500      -2070.4701     -2071.0534     -2035.746      -7.3181391      11.181304      7.2958559      18049.312    
     39000   403.57172      0.0195         0.21307041     0.21307231     0.20967646    -2091.6825      746.80003      746.80003      746.80003      4.1649805e+08  1.5230423     -45752706      -45752706       1201.7677     -45751505      -2102.8414     -2102.8602     -2069.3458     -7.7760223      11.788         6.9723757      18296.121    
     40000   405.16279      0.02           0.21595642     0.21618        0.21298147    -2122.2729      747.16628      747.16628      747.16628      4.1711115e+08  1.5208036     -45734423      -45734423       1206.5056     -45733217      -2131.3242     -2133.5308     -2101.9637     -7.2626938      11.735691      7.1462749      18171.602    
     41000   406.36716      0.0205         0.21879647     0.2192758      0.21618179    -2152.3285      747.53254      747.53254      747.53254      4.1772485e+08  1.5185693     -45715862      -45715862       1210.092      -45714652      -2159.3533     -2164.0839     -2133.5484     -5.9693143      11.195827      7.8949639      18070.426    
     42000   407.56022      0.021          0.22188527     0.22235329     0.21935106    -2183.0401      747.8988       747.8988       747.8988       4.1833915e+08  1.5163394     -45697013      -45697013       1213.6447     -45695800      -2189.8374     -2194.4564     -2164.8267     -5.5338007      11.136798      8.210636       18325.061    
     43000   408.74828      0.0215         0.22509583     0.22536088     0.22238354    -2213.4723      748.26506      748.26506      748.26506      4.1895405e+08  1.5141139     -45677865      -45677865       1217.1826     -45676648      -2221.5231     -2224.1389     -2194.7549     -6.3871747      10.694407      7.8364238      17922.704    
     44000   409.96535      0.022          0.22807277     0.22836263     0.22522656    -2242.4935      748.63132      748.63132      748.63132      4.1956956e+08  1.5118927     -45658432      -45658432       1220.8068     -45657211      -2250.9033     -2253.7639     -2222.8133     -7.948803       9.3596389      7.5427843      18214.276    
     45000   411.31418      0.0225         0.23077048     0.2313074      0.22796519    -2270.0652      748.99757      748.99757      748.99757      4.2018567e+08  1.5096758     -45638740      -45638740       1224.8234     -45637515      -2277.5276     -2282.8265     -2249.8415     -8.9575897      8.1952651      7.3856823      18044.491    
     46000   412.95115      0.023          0.23331015     0.23400586     0.23056026    -2295.8344      749.36383      749.36383      749.36383      4.2080238e+08  1.5074633     -45618803      -45618803       1229.698      -45617573      -2302.5921     -2309.4582     -2275.4529     -8.4919239      8.3131394      6.900534       18159.576    
     47000   414.76505      0.0235         0.2358137      0.23652333     0.23320208    -2321.0432      749.73009      749.73009      749.73009      4.2141969e+08  1.5052551     -45598625      -45598625       1235.0995     -45597390      -2327.3002     -2334.3037     -2301.5256     -7.3344185      9.1463222      6.729293       18114.521    
     48000   416.25475      0.024          0.23832918     0.23895138     0.23585576    -2346.0361      750.09635      750.09635      750.09635      4.2203761e+08  1.5030512     -45578206      -45578206       1239.5356     -45576967      -2352.1261     -2358.2668     -2327.7154     -6.8885106      9.5033144      6.8565967      18137.441    
     49000   417.44083      0.0245         0.24081837     0.24133122     0.23835609    -2370.2794      750.46261      750.46261      750.46261      4.2265613e+08  1.5008516     -45557544      -45557544       1243.0675     -45556301      -2376.6925     -2381.754      -2352.3917     -7.5899134      9.0055706      6.4670113      18085.206    
     50000   418.42749      0.025          0.2432364      0.24374588     0.24085463    -2394.3973      750.82886      750.82886      750.82886      4.2327525e+08  1.4986563     -45536638      -45536638       1246.0056     -45535392      -2400.5566     -2405.5848     -2377.0504     -8.2336742      8.6214679      6.4818944      17041.076    
     51000   419.57104      0.0255         0.24554227     0.24612303     0.24333458    -2417.9616      751.19512      751.19512      751.19512      4.2389498e+08  1.4964653     -45515500      -45515500       1249.4109     -45514251      -2423.3138     -2429.0455     -2401.5256     -8.0250642      8.8694505      7.3317021      18318.573    
     52000   420.94964      0.026          0.247727       0.24832676     0.24562186    -2439.9231      751.56138      751.56138      751.56138      4.2451532e+08  1.4942786     -45494156      -45494156       1253.5161     -45492903      -2444.8754     -2450.7946     -2424.0992     -7.353837       9.0576418      7.5352504      17912.65     
     53000   422.41378      0.0265         0.24965352     0.25041244     0.2476473     -2459.7854      751.92764      751.92764      751.92764      4.2513626e+08  1.4920961     -45472623      -45472623       1257.8761     -45471365      -2463.8887     -2471.3786     -2444.0888     -7.125356       8.9662639      6.5147565      17736.371    
     54000   423.61487      0.027          0.25144952     0.25258305     0.24960733    -2479.2825      752.2939       752.2939       752.2939       4.257578e+08   1.4899178     -45450898      -45450898       1261.4527     -45449637      -2481.6138     -2492.8009     -2463.4329     -8.1140767      8.8794732      5.2279429      17846.127    
     55000   424.46681      0.0275         0.2533866      0.2546112      0.25160586    -2498.9018      752.66015      752.66015      752.66015      4.2637995e+08  1.4877438     -45428971      -45428971       1263.9897     -45427707      -2500.7313     -2512.8172     -2483.1568     -9.6091092      8.9109956      5.0522842      18323.021    
     56000   425.08294      0.028          0.25553491     0.25640346     0.25354518    -2518.2451      753.02641      753.02641      753.02641      4.2700271e+08  1.485574      -45406837      -45406837       1265.8244     -45405571      -2521.9334     -2530.5054     -2502.2964     -10.250722      8.7061135      6.0593691      17984.383    
     57000   425.7056       0.0285         0.25758886     0.25810737     0.25536333    -2536.5887      753.39267      753.39267      753.39267      4.2762607e+08  1.4834085     -45384507      -45384507       1267.6786     -45383240      -2542.2044     -2547.3217     -2520.2401     -9.7631277      7.9862711      6.719815       18292.764    
     58000   426.57597      0.029          0.25923853     0.25981285     0.25719298    -2553.6454      753.75893      753.75893      753.75893      4.2825003e+08  1.4812471     -45362005      -45362005       1270.2704     -45360735      -2558.4854     -2564.1535     -2538.2973     -8.2762804      6.9256732      6.0128818      17942.666    
     59000   427.47533      0.0295         0.26065174     0.26152032     0.25898385    -2569.8031      754.12519      754.12519      754.12519      4.2887461e+08  1.47909       -45339343      -45339343       1272.9486     -45338070      -2572.4326     -2581.0049     -2555.9718     -7.4884538      6.2210288      4.6131623      18087.664    
     60000   428.30981      0.03           0.26203975     0.26309678     0.26062036    -2584.9392      754.49144      754.49144      754.49144      4.2949979e+08  1.476937      -45316528      -45316528       1275.4335     -45315253      -2586.1312     -2596.5633     -2572.123      -7.9571877      6.6727747      4.6309142      18096.596    
     61000   429.25932      0.0305         0.2633682      0.26446203     0.26218892    -2598.9609      754.8577       754.8577       754.8577       4.3012558e+08  1.4747882     -45293560      -45293560       1278.261      -45292282      -2599.2421     -2610.0373     -2587.6035     -8.4521055      6.9579843      5.6523361      18140.858    
     62000   430.01538      0.031          0.26479817     0.26587317     0.26375144    -2613.4478      755.22396      755.22396      755.22396      4.3075198e+08  1.4726436     -45270434      -45270434       1280.5124     -45269154      -2613.3548     -2623.9642     -2603.0243     -8.6088095      6.6817705      6.2579077      18152.613    
     63000   430.36239      0.0315         0.26638883     0.26734191     0.26523964    -2628.4082      755.59022      755.59022      755.59022      4.3137898e+08  1.4705031     -45247153      -45247153       1281.5457     -45245872      -2629.0533     -2638.4595     -2617.7117     -8.600997       7.2480962      6.356028       18102.869    
     64000   430.55281      0.032          0.26790002     0.26865152     0.26658924    -2642.1278      755.95648      755.95648      755.95648      4.3200659e+08  1.4683668     -45223720      -45223720       1282.1128     -45222438      -2643.9677     -2651.3844     -2631.0313     -8.7531751      8.1576347      6.1350773      18242.935    
     65000   430.80441      0.0325         0.26912053     0.26974425     0.26779052    -2653.6896      756.32273      756.32273      756.32273      4.3263481e+08  1.4662346     -45200155      -45200155       1282.862      -45198872      -2656.0132     -2662.1688     -2642.8869     -8.9363208      7.7298048      5.5151857      17994.423    
     66000   431.25428      0.033          0.27008535     0.27071148     0.26886388    -2663.5767      756.68899      756.68899      756.68899      4.3326364e+08  1.4641065     -45176476      -45176476       1284.2016     -45175192      -2665.5352     -2671.7146     -2653.4802     -8.7588826      6.1327503      4.9299517      18101.674    
     67000   431.68094      0.0335         0.27093963     0.27168856     0.26991371    -2673.055       757.05525      757.05525      757.05525      4.3389308e+08  1.4619826     -45152686      -45152686       1285.4721     -45151400      -2673.9662     -2681.3577     -2663.8412     -8.6835531      4.9351037      4.6680882      18152.97     
     68000   431.98103      0.034          0.2718476      0.27273474     0.27100617    -2683.0776      757.42151      757.42151      757.42151      4.3452313e+08  1.4598628     -45128778      -45128778       1286.3657     -45127492      -2682.9272     -2691.6826     -2674.6229     -8.3872415      5.0308762      4.728817       18194.585    
     69000   432.18845      0.0345         0.27279007     0.27371641     0.27208777    -2692.9657      757.78777      757.78777      757.78777      4.3515379e+08  1.457747      -45104760      -45104760       1286.9834     -45103473      -2692.2287     -2701.3709     -2685.2976     -7.6204589      5.8787598      4.9870808      18131.355    
     70000   432.53237      0.035          0.27374701     0.27445524     0.27303085    -2701.6468      758.15402      758.15402      758.15402      4.3578505e+08  1.4556354     -45080645      -45080645       1288.0076     -45079356      -2701.6729     -2708.6626     -2694.605      -8.2610263      5.9209462      5.5749296      18019.353    
     71000   432.94708      0.0355         0.27461893     0.27514106     0.2737684     -2709.1978      758.52028      758.52028      758.52028      4.3641693e+08  1.4535278     -45056438      -45056438       1289.2425     -45055149      -2710.2781     -2715.4312     -2701.884      -9.4970798      5.358689       6.0695423      18281.532    
     72000   433.0957       0.036          0.27530342     0.27586701     0.27443463    -2716.0295      758.88654      758.88654      758.88654      4.3704942e+08  1.4514243     -45032137      -45032137       1289.685      -45030847      -2717.0335     -2722.5957     -2708.4592     -9.5821072      5.7010346      5.7338516      18096.92     
     73000   433.07932      0.0365         0.2758277      0.27656491     0.27519739    -2722.5594      759.2528       759.2528       759.2528       4.3768252e+08  1.4493248     -45007750      -45007750       1289.6362     -45006460      -2722.2078     -2729.4835     -2715.9871     -9.022986       6.5869893      4.8685804      18327.74     
     74000   433.06431      0.037          0.27637484     0.27728029     0.27600589    -2729.3726      759.61906      759.61906      759.61906      4.3831623e+08  1.4472294     -44983280      -44983280       1289.5916     -44981990      -2727.6076     -2736.5437     -2723.9664     -8.0720211      6.6915383      5.0805688      18006.241    
     75000   432.98304      0.0375         0.27708679     0.2778805      0.27671908    -2736.0354      759.98531      759.98531      759.98531      4.3895055e+08  1.445138      -44958727      -44958727       1289.3495     -44957438      -2734.634      -2742.4673     -2731.005      -7.3521364      5.7318289      5.8317532      18366.674    
     76000   432.73954      0.038          0.27774616     0.27824176     0.27731681    -2741.3594      760.35157      760.35157      760.35157      4.3958548e+08  1.4430507     -44934099      -44934099       1288.6245     -44932810      -2741.1415     -2746.0327     -2736.9041     -7.6867297      4.478122       5.5797863      18143.206    
     77000   432.6877       0.0385         0.27805604     0.27841881     0.27767703    -2744.1463      760.71783      760.71783      760.71783      4.4022103e+08  1.4409674     -44909412      -44909412       1288.4701     -44908124      -2744.1997     -2747.78       -2740.4593     -8.2076408      4.5665951      4.9314324      18145.411    
     78000   433.10761      0.039          0.27812184     0.27855796     0.27787343    -2745.4667      761.08409      761.08409      761.08409      4.4085719e+08  1.438888      -44884677      -44884677       1289.7205     -44883387      -2744.8492     -2749.1534     -2742.3975     -8.236905       5.7026005      4.3434003      18122.692    
     79000   433.20996      0.0395         0.27832293     0.27874714     0.27809244    -2747.471       761.45035      761.45035      761.45035      4.4149396e+08  1.4368127     -44859901      -44859901       1290.0253     -44858611      -2746.8337     -2751.0203     -2744.559      -8.3710275      6.1161907      3.7680073      18141.329    
     80000   432.36264      0.04           0.27861493     0.2789175      0.27833353    -2749.7852      761.8166       761.8166       761.8166       4.4213134e+08  1.4347414     -44835086      -44835086       1287.5021     -44833798      -2749.7156     -2752.7017     -2746.9383     -8.8701255      5.3495647      3.6432696      18298.688    
     81000   431.26581      0.0405         0.27880587     0.27905647     0.27854223    -2751.5571      762.18286      762.18286      762.18286      4.4276934e+08  1.432674      -44810233      -44810233       1284.2359     -44808949      -2751.6        -2754.0733     -2748.9981     -8.8863726      4.5862602      4.4208386      17917.632    
     82000   430.9042       0.041          0.27892277     0.27916622     0.27869349    -2752.8003      762.54912      762.54912      762.54912      4.4340795e+08  1.4306107     -44785341      -44785341       1283.1591     -44784058      -2752.7537     -2755.1564     -2750.4909     -8.1093555      4.1831693      5.6345835      18366.875    
     83000   430.73263      0.0415         0.27900842     0.27927034     0.27885951    -2753.9708      762.91538      762.91538      762.91538      4.4404717e+08  1.4285512     -44760409      -44760409       1282.6482     -44759126      -2753.5991     -2756.184      -2752.1294     -7.7285929      4.114061       5.6712536      17950.147    
     84000   430.22765      0.042          0.27888684     0.27927473     0.27895174    -2753.8887      763.28163      763.28163      763.28163      4.4468701e+08  1.4264958     -44735438      -44735438       1281.1445     -44734157      -2752.3991     -2756.2273     -2753.0396     -7.861529       4.4857034      4.7980639      18354.98     
     85000   429.74844      0.0425         0.27855974     0.27906579     0.27884617    -2751.7779      763.64789      763.64789      763.64789      4.4532746e+08  1.4244442     -44710457      -44710457       1279.7175     -44709177      -2749.1709     -2754.1652     -2751.9977     -7.8301876      5.1676554      4.1298778      18103.283    
     86000   429.50501      0.043          0.27811676     0.27874377     0.27854016    -2748.2546      764.01415      764.01415      764.01415      4.4596852e+08  1.4223966     -44685485      -44685485       1278.9926     -44684206      -2744.7991     -2750.9871     -2748.9777     -7.8362623      5.2869176      3.8881738      18291.878    
     87000   429.02702      0.0435         0.27778078     0.278396       0.27820802    -2744.9126      764.38041      764.38041      764.38041      4.4661021e+08  1.420353      -44660519      -44660519       1277.5692     -44659242      -2741.4832     -2747.5549     -2745.6997     -7.7002169      4.8198598      3.8463549      18094.052    
     88000   428.24247      0.044          0.27768075     0.27799489     0.277972      -2742.4875      764.74667      764.74667      764.74667      4.472525e+08   1.4183132     -44635552      -44635552       1275.2329     -44634277      -2740.4959     -2743.5962     -2743.3703     -7.6277648      4.3067666      3.5637268      17941.508    
     89000   427.57023      0.0445         0.2775398      0.27757265     0.27781107    -2740.1053      765.11292      765.11292      765.11292      4.4789541e+08  1.4162774     -44610583      -44610583       1273.2311     -44609310      -2739.1049     -2739.4291     -2741.7821     -7.95014        4.42519        3.6185928      18090.342    
     90000   427.0084       0.045          0.2771157      0.2772835      0.27757074    -2736.9683      765.47918      765.47918      765.47918      4.4853894e+08  1.4142454     -44585615      -44585615       1271.5581     -44584343      -2734.9193     -2736.5753     -2739.4102     -7.9328165      4.7394354      4.203645       17862.496    
     91000   426.14062      0.0455         0.27645833     0.27699388     0.2770678     -2732.1984      765.84544      765.84544      765.84544      4.4918309e+08  1.4122173     -44560659      -44560659       1268.974      -44559390      -2728.4316     -2733.717      -2734.4466     -7.6827164      4.8172634      4.4552402      18374.049    
     92000   425.04481      0.046          0.27564158     0.27643751     0.27636557    -2725.371       766.2117       766.2117       766.2117       4.4982785e+08  1.4101931     -44535730      -44535730       1265.7109     -44534465      -2720.3708     -2728.2261     -2727.5161     -7.3029899      4.7592434      4.0823898      18033.125    
     93000   424.01414      0.0465         0.27487491     0.27571549     0.27573808    -2718.4093      766.57796      766.57796      766.57796      4.5047322e+08  1.4081728     -44510835      -44510835       1262.6417     -44509573      -2712.8044     -2721.1003     -2721.3233     -6.8094318      4.9693986      3.284945       18328.664    
     94000   423.13797      0.047          0.27425164     0.27506627     0.27520743    -2712.4775      766.94421      766.94421      766.94421      4.5111922e+08  1.4061563     -44485974      -44485974       1260.0326     -44484714      -2706.6533     -2714.6931     -2716.0862     -6.5804688      5.2523985      2.5511087      18078.255    
     95000   422.20467      0.0475         0.27369283     0.27439109     0.27466332    -2706.628       767.31047      767.31047      767.31047      4.5176583e+08  1.4041437     -44461143      -44461143       1257.2534     -44459886      -2701.1383     -2708.0296     -2710.7163     -5.9245437      4.8659251      2.7251908      18340.459    
     96000   421.39177      0.048          0.27304495     0.27356905     0.27392381    -2699.3595      767.67673      767.67673      767.67673      4.5241306e+08  1.4021349     -44436348      -44436348       1254.8327     -44435093      -2694.7442     -2699.9166     -2703.4178     -4.7302514      4.5943798      3.0578489      18014.286    
     97000   420.73895      0.0485         0.27230338     0.27278292     0.27309587    -2691.6101      768.04299      768.04299      768.04299      4.530609e+08   1.4001299     -44411602      -44411602       1252.8888     -44410349      -2687.4254     -2692.1581     -2695.2467     -4.454018       5.189883       2.9861481      18397.447    
     98000   419.95162      0.049          0.27141453     0.2721636      0.27235868    -2684.2234      768.40925      768.40925      768.40925      4.5370937e+08  1.3981288     -44386903      -44386903       1250.5442     -44385653      -2678.6531     -2686.0459     -2687.9712     -5.3292247      5.8397495      3.6454224      18027.557    
     99000   418.75406      0.0495         0.27039483     0.27144917     0.27164666    -2676.1762      768.7755       768.7755       768.7755       4.5435845e+08  1.3961315     -44362249      -44362249       1246.9781     -44361002      -2668.5895     -2678.995      -2680.9441     -6.2502172      5.5973415      4.1539396      18203.525    
    100000   417.40825      0.05           0.26930406     0.27038502     0.27072678    -2666.0609      769.14176      769.14176      769.14176      4.5500815e+08  1.3941379     -44337645      -44337645       1242.9705     -44336402      -2657.8245     -2668.4927     -2671.8656     -6.3861943      4.9399061      3.5580552      17437.803    
    101000   416.26067      0.0505         0.26829276     0.26924955     0.26966765    -2655.5143      769.50802      769.50802      769.50802      4.5565848e+08  1.3921482     -44313113      -44313113       1239.5532     -44311873      -2647.8437     -2657.2864     -2661.4128     -5.90831        4.7965464      2.4704576      18156.5      
    102000   415.15096      0.051          0.26736868     0.26823241     0.26858927    -2645.5806      769.87428      769.87428      769.87428      4.5630942e+08  1.3901623     -44288655      -44288655       1236.2487     -44287419      -2638.7237     -2647.2481     -2650.77       -4.9616057      5.7325571      1.9426636      18431.453    
    103000   414.18544      0.0515         0.26635666     0.26724113     0.26750015    -2635.4073      770.24054      770.24054      770.24054      4.5696098e+08  1.3881801     -44264264      -44264264       1233.3735     -44263031      -2628.7359     -2637.4649     -2640.0212     -3.7738907      6.7757198      2.6450221      18051.179    
    104000   413.4781       0.052          0.2651847      0.26619513     0.26640091    -2624.4946      770.60679      770.60679      770.60679      4.5761316e+08  1.3862017     -44239950      -44239950       1231.2672     -44238719      -2617.1695     -2627.1417     -2629.1726     -3.4436773      6.8027048      3.6405237      18243.104    
    105000   412.80113      0.0525         0.26387922     0.26505353     0.26523242    -2612.6003      770.97305      770.97305      770.97305      4.5826596e+08  1.3842271     -44215721      -44215721       1229.2513     -44214491      -2604.2854     -2615.8749     -2617.6405     -4.0257827      6.1828323      4.1806182      18237.995    
    106000   411.79639      0.053          0.26247684     0.26388087     0.2640743     -2600.3192      771.33931      771.33931      771.33931      4.5891938e+08  1.3822562     -44191583      -44191583       1226.2593     -44190357      -2590.445      -2604.3017     -2606.2107     -4.0828293      6.2700187      4.3483996      18217.72     
    107000   410.3787       0.0535         0.26108096     0.26265627     0.26278695    -2587.4634      771.70557      771.70557      771.70557      4.5957342e+08  1.380289      -44167533      -44167533       1222.0377     -44166311      -2576.6687     -2592.2158     -2593.5055     -3.6886855      7.182429       4.4633915      18195.721    
    108000   408.79172      0.054          0.25979976     0.26136165     0.26132294    -2574.1734      772.07183      772.07183      772.07183      4.6022808e+08  1.3783256     -44143573      -44143573       1217.3119     -44142356      -2564.0243     -2579.439      -2579.0569     -3.1743842      8.0107405      4.0360819      18289.637    
    109000   407.4039       0.0545         0.25850869     0.26009955     0.25992144    -2561.1635      772.43808      772.43808      772.43808      4.6088337e+08  1.3763659     -44119709      -44119709       1213.1792     -44118496      -2551.2824     -2566.983      -2565.2252     -2.7729851      8.0366897      3.0141381      18001.25     
    110000   406.33238      0.055          0.25718576     0.25886812     0.25870009    -2548.7424      772.80434      772.80434      772.80434      4.6153927e+08  1.3744099     -44095941      -44095941       1209.9884     -44094731      -2538.2261     -2554.8297     -2553.1714     -2.3026439      7.9687212      2.6591291      18146.352    
    111000   405.57817      0.0555         0.25590293     0.25752172     0.25756333    -2536.3533      773.1706       773.1706       773.1706       4.621958e+08   1.3724576     -44072272      -44072272       1207.7425     -44071064      -2525.5655     -2541.5418     -2541.9525     -2.2143357      8.0891108      3.6458827      18238.854    
    112000   404.86331      0.056          0.25461314     0.25611181     0.25641536    -2523.6954      773.53686      773.53686      773.53686      4.6285295e+08  1.370509      -44048704      -44048704       1205.6138     -44047499      -2512.8363     -2527.627      -2530.6228     -2.2361663      8.3246494      5.2763632      18212.648    
    113000   404.09265      0.0565         0.25322798     0.25478807     0.25505762    -2510.3172      773.90312      773.90312      773.90312      4.6351072e+08  1.3685641     -44025237      -44025237       1203.3189     -44024033      -2499.1658     -2514.5628     -2517.223      -2.0003276      8.8053833      5.9642988      18239.355    
    114000   403.17448      0.057          0.25174057     0.25341279     0.25344779    -2495.6038      774.26937      774.26937      774.26937      4.6416912e+08  1.3666229     -44001874      -44001874       1200.5848     -44000673      -2484.4863     -2500.9898     -2501.3352     -2.0607952      9.3176744      5.1003663      18229.305    
    115000   401.95594      0.0575         0.25012827     0.25177558     0.25172871    -2479.2584      774.63563      774.63563      774.63563      4.6482814e+08  1.3646853     -43978625      -43978625       1196.9561     -43977428      -2468.5741     -2484.8317     -2484.3692     -2.2889153      9.568927       4.2931239      18343.298    
    116000   400.71383      0.058          0.24850007     0.25008001     0.250139      -2463.0943      775.00189      775.00189      775.00189      4.6548778e+08  1.3627514     -43955502      -43955502       1193.2573     -43954309      -2452.505      -2468.0978     -2468.68       -2.169262       9.4498743      4.5093195      17999.356    
    117000   399.77203      0.0585         0.24689946     0.24850411     0.2487476     -2448.067       775.36815      775.36815      775.36815      4.6614805e+08  1.3608212     -43932513      -43932513       1190.4529     -43931322      -2436.7082     -2452.5449     -2454.9479     -1.549601       8.907899       4.3071479      18381.077    
    118000   398.93549      0.059          0.24532566     0.24712909     0.24749026    -2434.2298      775.73441      775.73441      775.73441      4.6680894e+08  1.3588946     -43909641      -43909641       1187.9618     -43908453      -2421.176      -2438.9745     -2442.539      -1.0993302      8.6883645      2.9888529      18068.153    
    119000   397.79772      0.0595         0.24376981     0.24580434     0.24618965    -2420.4747      776.10066      776.10066      776.10066      4.6747045e+08  1.3569716     -43886880      -43886880       1184.5737     -43885695      -2405.821      -2425.9002     -2429.7029     -1.1439657      9.2548912      2.6374153      18354.421    
    120000   396.48567      0.06           0.24215942     0.24428008     0.24458789    -2404.8931      776.46692      776.46692      776.46692      4.6813259e+08  1.3550523     -43864238      -43864238       1180.6666     -43863057      -2389.9276     -2410.8569     -2413.8948     -1.4130157      9.9871957      3.639529       18161.569    
    121000   395.31618      0.0605         0.24060753     0.24257252     0.24276028    -2388.158       776.83318      776.83318      776.83318      4.6879536e+08  1.3531366     -43841720      -43841720       1177.1841     -43840543      -2374.6117     -2394.0046     -2395.8577     -1.3253484      10.211512      4.6728342      18086.642    
    122000   394.07726      0.061          0.23915058     0.24087607     0.24104716    -2372.1484      777.19944      777.19944      777.19944      4.6945875e+08  1.3512244     -43819325      -43819325       1173.4948     -43818151      -2360.2328     -2377.2619     -2378.9505     -0.76872603     9.8039326      4.7829644      18409.404    
    123000   392.87772      0.0615         0.23757168     0.23920096     0.23948513    -2356.3049      777.5657       777.5657       777.5657       4.7012276e+08  1.3493159     -43797054      -43797054       1169.9228     -43795884      -2344.6501     -2360.73       -2363.5345     -0.18069551     9.9444691      3.6779133      18014.946    
    124000   391.96071      0.062          0.23590809     0.23758199     0.23802792    -2340.7122      777.93195      777.93195      777.93195      4.707874e+08   1.347411      -43774914      -43774914       1167.1921     -43773747      -2328.2318     -2344.7519     -2349.1529      0.024685633    10.0202        2.6081148      18348.253    
    125000   391.14099      0.0625         0.23427957     0.23609092     0.2365942     -2325.733       778.29821      778.29821      778.29821      4.7145267e+08  1.3455097     -43752909      -43752909       1164.7511     -43751744      -2312.1596     -2330.0362     -2335.0032     -0.26408743     10.043766      2.7324899      18068.605    
    126000   390.08985      0.063          0.23263411     0.23452244     0.23495696    -2309.7739      778.66447      778.66447      778.66447      4.7211856e+08  1.3436119     -43731033      -43731033       1161.621      -43729871      -2295.9202     -2314.5566     -2318.8449     -0.69576486     10.459186      3.5800564      18329.783    
    127000   388.69319      0.0635         0.23098032     0.23275902     0.23313855    -2292.55        779.03073      779.03073      779.03073      4.7278508e+08  1.3417177     -43709287      -43709287       1157.4619     -43708129      -2279.5985     -2297.1529     -2300.8986     -0.70715553     10.750075      4.2074757      18164.382    
    128000   387.03997      0.064          0.22935158     0.23096484     0.23131611    -2275.2941      779.39699      779.39699      779.39699      4.7345223e+08  1.3398271     -43687675      -43687675       1152.5389     -43686522      -2263.5241     -2279.4458     -2282.9125     -0.49228753     9.8245266      4.1441531      18138.989    
    129000   385.61714      0.0645         0.22764849     0.22923634     0.2296065     -2258.3809      779.76324      779.76324      779.76324      4.7412e+08     1.33794       -43666197      -43666197       1148.302      -43665049      -2246.7159     -2262.3867     -2266.04       -0.4422694      8.8234571      3.2229617      18182.793    
    130000   384.75487      0.065          0.22594356     0.22757997     0.22807649    -2242.2897      780.1295       780.1295       780.1295       4.7478841e+08  1.3360565     -43644857      -43644857       1145.7343     -43643711      -2229.8896     -2246.0397     -2250.9399     -0.76758274     8.6895811      2.3176945      18004.519    
    131000   383.86306      0.0655         0.22432014     0.22597062     0.22669093    -2227.0966      780.49576      780.49576      780.49576      4.7545744e+08  1.3341765     -43623657      -43623657       1143.0787     -43622514      -2213.8676     -2230.1566     -2237.2655     -0.75917191     9.0853937      1.7240065      18380.166    
    132000   382.71602      0.066          0.22265233     0.22430261     0.22516325    -2211.0969      780.86202      780.86202      780.86202      4.7612709e+08  1.3323        -43602589      -43602589       1139.6629     -43601450      -2197.4077     -2213.6946     -2222.1885     -0.0521264      9.8898638      1.381589       18047.402    
    133000   381.63227      0.0665         0.22100324     0.2226295      0.22339354    -2194.3458      781.22828      781.22828      781.22828      4.7679738e+08  1.330427      -43581649      -43581649       1136.4357     -43580513      -2181.1324     -2197.1823     -2204.7228      0.73230205     10.408945      1.5432089      18368.229    
    134000   380.38254      0.067          0.21948927     0.22108357     0.2215595     -2178.246       781.59453      781.59453      781.59453      4.774683e+08   1.3285576     -43560842      -43560842       1132.7143     -43559709      -2166.1906     -2181.9252     -2186.6223      0.62802846     9.6530963      1.8423786      18187.762    
    135000   378.88014      0.0675         0.21803097     0.21951849     0.21982116    -2162.5812      781.96079      781.96079      781.96079      4.7813984e+08  1.3266916     -43540167      -43540167       1128.2404     -43539039      -2151.7984     -2166.479      -2169.4662     -0.82110645     8.2940224      1.788079       18137.681    
    136000   377.36818      0.068          0.21652452     0.21778036     0.2182659     -2146.791       782.32705      782.32705      782.32705      4.7881202e+08  1.3248292     -43519618      -43519618       1123.738      -43518494      -2136.9308     -2149.325      -2154.117      -2.7039206      7.6843816      1.312355       18187.28     
    137000   375.95929      0.0685         0.21498525     0.2159873      0.21677583    -2130.9265      782.69331      782.69331      782.69331      4.7948482e+08  1.3229702     -43499199      -43499199       1119.5426     -43498080      -2121.7394     -2131.6289     -2139.4111     -3.2348758      8.4114432      0.96366958     18344.135    
    138000   374.86436      0.069          0.2134111      0.21421203     0.21516657    -2114.6137      783.05957      783.05957      783.05957      4.8015825e+08  1.3211147     -43478921      -43478921       1116.282      -43477804      -2106.2038     -2114.1084     -2123.529      -2.348713       9.2305522      1.0839461      18091.541    
    139000   373.82644      0.0695         0.21195147     0.21255724     0.21352963    -2098.983       783.42582      783.42582      783.42582      4.8083232e+08  1.3192627     -43458775      -43458775       1113.1913     -43457661      -2091.7984     -2097.7769     -2107.3736     -1.5383973      9.0149455      1.0823066      18300.685    
    140000   372.48936      0.07           0.21046532     0.21107567     0.2119328     -2083.9668      783.79208      783.79208      783.79208      4.8150701e+08  1.3174141     -43438759      -43438759       1109.2097     -43437649      -2077.1312     -2083.1549     -2091.6141     -1.7673851      8.1122662      0.33684811     18079.222    
    141000   371.03191      0.0705         0.20880341     0.20970508     0.21030949    -2068.6503      784.15834      784.15834      784.15834      4.8218234e+08  1.315569      -43418863      -43418863       1104.8697     -43417759      -2060.7294     -2069.6282     -2075.5933     -2.5965328      6.924565      -0.56704103     18118.315    
    142000   369.84015      0.071          0.20704517     0.20825832     0.20867214    -2052.7202      784.5246       784.5246       784.5246       4.8285829e+08  1.3137273     -43399090      -43399090       1101.3208     -43397989      -2043.3769     -2055.3499     -2059.4339     -3.3575825      6.1964985     -0.3553014      18217.305    
    143000   368.90818      0.0715         0.20550264     0.20671003     0.20714211    -2037.5188      784.89086      784.89086      784.89086      4.8353488e+08  1.3118891     -43379447      -43379447       1098.5456     -43378349      -2028.1534     -2040.0693     -2044.3337     -3.4306908      5.9808413      0.44143363     18146.434    
    144000   367.6687       0.072          0.20431753     0.2051857      0.2057443     -2024.007       785.25711      785.25711      785.25711      4.842121e+08   1.3100543     -43359929      -43359929       1094.8546     -43358834      -2016.4573     -2025.0254     -2030.5384     -2.5814568      5.6496206      0.47184908     18217.452    
    145000   366.07494      0.0725         0.20316803     0.20373457     0.20424367    -2010.5149      785.62337      785.62337      785.62337      4.8488995e+08  1.3082229     -43340524      -43340524       1090.1087     -43339434      -2005.1125     -2010.7039     -2015.7283     -1.4552052      5.4579334     -0.051548561    18182.254    
    146000   364.56131      0.073          0.20176578     0.20230489     0.2026381     -1995.9167      785.98963      785.98963      785.98963      4.8556844e+08  1.3063949     -43321231      -43321231       1085.6013     -43320145      -1991.2734     -1996.5941     -1999.8826     -1.0556594      5.5129001     -0.12292603     18340.901    
    147000   363.00036      0.0735         0.20015275     0.2009228      0.20113078    -1981.1048      786.35589      786.35589      786.35589      4.8624755e+08  1.3045703     -43302053      -43302053       1080.9531     -43300972      -1975.354      -1982.9538     -1985.0065     -1.6081576      5.3710591      0.085311224    17990.515    
    148000   361.35283      0.074          0.19853975     0.19957471     0.19969818    -1966.6507      786.72215      786.72215      786.72215      4.869273e+08   1.3027492     -43282989      -43282989       1076.047      -43281913      -1959.435      -1969.6492     -1970.8678     -2.6799183      4.9021867     -0.25332673     18257.032    
    149000   360.13345      0.0745         0.19716924     0.19818209     0.19828978    -1952.9274      787.0884       787.0884       787.0884       4.8760769e+08  1.3009314     -43264045      -43264045       1072.4159     -43262973      -1945.9091     -1955.9051     -1956.968      -3.4388275      3.9876398     -0.55959003     17975.752    
    150000   359.21772      0.075          0.19609012     0.19686022     0.19701891    -1940.8479      787.45466      787.45466      787.45466      4.882887e+08   1.299117      -43245218      -43245218       1069.689      -43244148      -1935.259      -1942.8593     -1944.4254     -3.6785951      2.9244879     -0.17109812     17607.387    
    151000   358.04302      0.0755         0.19503805     0.19564655     0.19581331    -1929.4281      787.82092      787.82092      787.82092      4.8897035e+08  1.2973059     -43226484      -43226484       1066.191      -43225417      -1924.8759     -1930.8813     -1932.5271     -3.6813259      2.651238       0.59701898     18252.503    
    152000   356.81169      0.076          0.19376755     0.19445706     0.19451647    -1917.0691      788.18718      788.18718      788.18718      4.8965264e+08  1.2954983     -43207840      -43207840       1062.5243     -43206777      -1912.337      -1919.142      -1919.7283     -3.9686412      3.6287176      0.87347505     18051.669    
    153000   355.65186      0.0765         0.1923677      0.19328774     0.19320877    -1904.3152      788.55344      788.55344      788.55344      4.9033555e+08  1.2936939     -43189299      -43189299       1059.0705     -43188240      -1898.5216     -1907.6017     -1906.8223     -4.3690531      4.4931202      0.36241694     18386.677    
    154000   354.36616      0.077          0.19103677     0.1921117      0.19184926    -1891.5955      788.91969      788.91969      788.91969      4.9101911e+08  1.291893      -43170860      -43170860       1055.2419     -43169805      -1885.3864     -1895.9951     -1893.405      -4.185223       4.3016803     -0.087555446    18118.736    
    155000   353.1564       0.0775         0.18985718     0.1909681      0.1905461     -1879.6657      789.28595      789.28595      789.28595      4.917033e+08   1.2900953     -43152520      -43152520       1051.6394     -43151468      -1873.7447     -1884.7086     -1880.5438     -3.0926153      3.3283761      0.12621045     18207.659    
    156000   352.14972      0.078          0.18878022     0.18989157     0.18947688    -1869.0638      789.65221      789.65221      789.65221      4.9238812e+08  1.2883011     -43134273      -43134273       1048.6417     -43133225      -1863.1159     -1874.0841     -1869.9914     -2.3223101      2.1626739      0.56339046     18187.548    
    157000   351.10122      0.0785         0.18769613     0.18886585     0.18849532    -1858.894       790.01847      790.01847      790.01847      4.9307358e+08  1.2865101     -43116107      -43116107       1045.5195     -43115062      -1852.4168     -1863.9611     -1860.3042     -2.5350949      1.6500255      0.64983465     18208.595    
    158000   350.05946      0.079          0.18654301     0.18781892     0.18743861    -1848.1801      790.38473      790.38473      790.38473      4.9375967e+08  1.2847224     -43098023      -43098023       1042.4173     -43096980      -1841.0363     -1853.6287     -1849.8753     -3.4265631      1.5620564     -0.084999409    18130.137    
    159000   348.96585      0.0795         0.1854431      0.18671092     0.18634313    -1837.3128      790.75098      790.75098      790.75098      4.944464e+08   1.2829381     -43080026      -43080026       1039.1607     -43078987      -1830.1811     -1842.6935     -1839.0637     -4.4296996      1.2347799     -0.99739858     18275.057    
    160000   347.76037      0.08           0.18450214     0.18564046     0.18526135    -1827.1369      791.11724      791.11724      791.11724      4.9513377e+08  1.2811571     -43062111      -43062111       1035.571      -43061075      -1820.8945     -1832.1289     -1828.3874     -4.8802848      1.2604508     -1.0149001      18129.657    
    161000   346.73043      0.0805         0.18362707     0.18472478     0.18425071    -1817.9211      791.4835       791.4835       791.4835       4.9582178e+08  1.2793793     -43044269      -43044269       1032.504      -43043237      -1812.2583     -1823.0919     -1818.4132     -4.8615853      2.1234455     -0.080981863    18144.152    
    162000   345.93471      0.081          0.18267031     0.18394775     0.18330623    -1809.1103      791.84976      791.84976      791.84976      4.9651042e+08  1.2776049     -43026498      -43026498       1030.1345     -43025467      -1802.8158     -1815.4231     -1809.0919     -4.6891187      2.7956544      1.1139053      18250.485    
    163000   345.26209      0.0815         0.18164208     0.18319572     0.18230999    -1799.9763      792.21602      792.21602      792.21602      4.971997e+08   1.2758337     -43008793      -43008793       1028.1316     -43007765      -1792.668      -1808.0012     -1799.2597     -4.0904717      2.9476751      1.9662887      18166.715    
    164000   344.39745      0.082          0.1806644      0.18230098     0.18133561    -1790.611       792.58227      792.58227      792.58227      4.9788961e+08  1.2740658     -42991163      -42991163       1025.5568     -42990138      -1783.019      -1799.1708     -1789.6433     -3.1080308      3.0275478      1.870385       18277.716    
    165000   343.19391      0.0825         0.17985709     0.18125222     0.18050423    -1781.77        792.94853      792.94853      792.94853      4.9858017e+08  1.2723012     -42973602      -42973602       1021.9729     -42972580      -1775.0514     -1788.8203     -1781.4383     -2.5377746      3.104434       1.3240215      18148.43     
    166000   342.03457      0.083          0.17910984     0.18022392     0.17970546    -1773.3012      793.31479      793.31479      793.31479      4.9927136e+08  1.2705398     -42956108      -42956108       1018.5206     -42955090      -1767.6767     -1778.6718     -1773.555      -2.7826501      2.5522322      0.76022349     18351.187    
    167000   341.29007      0.0835         0.17821898     0.17933087     0.17883648    -1764.5739      793.68105      793.68105      793.68105      4.9996319e+08  1.2687817     -42938686      -42938686       1016.3035     -42937669      -1758.8846     -1769.8581     -1764.9789     -3.7165284      1.6726001      0.38287295     17493.462    
    168000   340.68668      0.084          0.17718267     0.17861576     0.1779402     -1755.8636      794.04731      794.04731      794.04731      5.0065566e+08  1.2670268     -42921331      -42921331       1014.5068     -42920317      -1748.657      -1762.8005     -1756.1333     -4.5547569      1.3195124      0.083669768    17928.669    
    169000   339.95373      0.0845         0.17634027     0.17800685     0.17710585    -1748.3443      794.41356      794.41356      794.41356      5.0134877e+08  1.2652751     -42904033      -42904033       1012.3242     -42903020      -1740.3431     -1756.791      -1747.8989     -4.9310027      1.890057       0.27625662     17596.453    
    170000   339.0295       0.085          0.1757536      0.17738005     0.17639       -1741.9974      794.77982      794.77982      794.77982      5.0204252e+08  1.2635267     -42886781      -42886781       1009.5719     -42885772      -1734.5532     -1750.605      -1740.834      -5.1406716      2.8937654      1.6473336      17570.618    
    171000   338.26496      0.0855         0.17521459     0.1767149      0.17573545    -1735.8827      795.14608      795.14608      795.14608      5.027369e+08   1.2617815     -42869574      -42869574       1007.2953     -42868567      -1729.2336     -1744.0405     -1734.374      -4.9426757      3.3708645      3.0700879      18319.916    
    172000   337.80259      0.086          0.17454789     0.17599713     0.17500383    -1728.9213      795.51234      795.51234      795.51234      5.0343193e+08  1.2600395     -42852419      -42852419       1005.9184     -42851413      -1722.6538     -1736.9566     -1727.1535     -4.3121184      3.109774       3.6094554      17808.694    
    173000   337.45266      0.0865         0.17374166     0.17522785     0.17427977    -1721.3563      795.8786       795.8786       795.8786       5.041276e+08   1.2583007     -42835318      -42835318       1004.8764     -42834313      -1714.6968     -1729.3644     -1720.0076     -3.5065528      2.7621443      2.8293054      18270.389    
    174000   336.91649      0.087          0.17292563     0.17448302     0.17362621    -1714.0714      796.24485      796.24485      796.24485      5.0482391e+08  1.2565652     -42818272      -42818272       1003.2798     -42817268      -1706.6433     -1722.0135     -1713.5575     -2.8985682      2.6510767      1.4320335      18136.897    
    175000   336.01869      0.0875         0.17218987     0.17378381     0.17293001    -1707.0604      796.61111      796.61111      796.61111      5.0552086e+08  1.2548328     -42801275      -42801275       1000.6063     -42800274      -1699.3819     -1715.1129     -1706.6865     -2.9269531      2.794592       0.75610222     18187.553    
    176000   334.96925      0.088          0.17151349     0.17313733     0.17216817    -1700.2023      796.97737      796.97737      796.97737      5.0621845e+08  1.2531035     -42784327      -42784327       997.48123     -42783329      -1692.7066     -1708.7326     -1699.1678     -3.4086954      3.0374913      1.3035193      18279.877    
    177000   334.29477      0.0885         0.17092752     0.17252978     0.17144741    -1693.9048      797.34363      797.34363      797.34363      5.0691668e+08  1.2513775     -42767428      -42767428       995.47273     -42766433      -1686.9235     -1702.7365     -1692.0544     -3.7225521      3.1751858      2.1944275      18225.529    
    178000   334.21123      0.089          0.1704031      0.17185977     0.17077155    -1687.752       797.70989      797.70989      797.70989      5.0761555e+08  1.2496546     -42750578      -42750578       995.22396     -42749582      -1681.7479     -1696.124      -1685.3842     -3.7990457      3.1032668      2.5664286      18227.692    
    179000   334.30283      0.0895         0.1698629      0.17116878     0.17018017    -1681.7562      798.07614      798.07614      798.07614      5.0831507e+08  1.2479349     -42733775      -42733775       995.49673     -42732779      -1676.4164     -1689.3046     -1679.5477     -4.0023201      2.7518594      2.4003155      18240.9      
    180000   333.66705      0.09           0.16923611     0.17047624     0.16968118    -1675.7744      798.4424       798.4424       798.4424       5.0901523e+08  1.2462184     -42717014      -42717014       993.60351     -42716021      -1670.2305     -1682.4697     -1674.623      -4.1662764      2.8137083      2.3862394      18191.804    
    181000   332.67185      0.0905         0.16857436     0.16986394     0.16907345    -1669.5838      798.80866      798.80866      798.80866      5.0971603e+08  1.244505      -42700291      -42700291       990.63996     -42699300      -1663.6996     -1676.4267     -1668.6252     -3.832074       3.3642635      2.7713808      18087.39     
    182000   332.18205      0.091          0.16796702     0.16938019     0.16839393    -1663.759       799.17492      799.17492      799.17492      5.1041747e+08  1.2427947     -42683611      -42683611       989.18142     -42682621      -1657.7056     -1671.6525     -1661.9189     -2.8922975      4.3572986      3.17315        18339.118    
    183000   332.1961       0.0915         0.16738747     0.16892791     0.16780375    -1658.423       799.54118      799.54118      799.54118      5.1111956e+08  1.2410876     -42666972      -42666972       989.22325     -42665983      -1651.9859     -1667.1888     -1656.0942     -1.8750314      5.0007229      3.0474235      18111.959    
    184000   331.99858      0.092          0.16684898     0.16841945     0.16733837    -1653.4478      799.90743      799.90743      799.90743      5.1182229e+08  1.2393836     -42650370      -42650370       988.63509     -42649381      -1646.6714     -1662.1708     -1651.5013     -1.5504557      4.352533       2.9944353      18136.166    
    185000   331.25493      0.0925         0.16630746     0.16782112     0.1668903     -1648.224       800.27369      800.27369      800.27369      5.1252567e+08  1.2376827     -42633805      -42633805       986.42062     -42632818      -1641.327      -1656.2657     -1647.0792     -2.1241017      2.984806       3.1888918      18231.283    
    186000   330.61753      0.093          0.16570325     0.16710252     0.1663186     -1641.9915      800.63995      800.63995      800.63995      5.1322969e+08  1.2359849     -42617279      -42617279       984.52255     -42616294      -1635.3639     -1649.1736     -1641.4369     -2.9391144      2.1465407      2.9697873      18334.181    
    187000   330.33469      0.0935         0.16517915     0.16644234     0.16568476    -1636.0104      801.00621      801.00621      801.00621      5.1393435e+08  1.2342902     -42600790      -42600790       983.6803      -42599807      -1630.1914     -1642.6582     -1635.1814     -3.125443       2.6529125      2.5478224      18105.292    
    188000   329.87327      0.094          0.16478912     0.16592458     0.16514697    -1631.2548      801.37247      801.37247      801.37247      5.1463966e+08  1.2325986     -42584335      -42584335       982.30626     -42583353      -1626.3421     -1637.5483     -1629.8739     -2.8242837      4.1610301      2.8170666      18249.968    
    189000   329.36683      0.0945         0.16434276     0.16541521     0.16463243    -1626.418       801.73872      801.73872      801.73872      5.1534561e+08  1.2309101     -42567919      -42567919       980.79819     -42566938      -1621.937      -1632.5212     -1624.7957     -2.7137666      5.5581703      3.5044555      18162.94     
    190000   329.34301      0.095          0.16376663     0.16484469     0.16407901    -1620.8252      802.10498      802.10498      802.10498      5.1605221e+08  1.2292247     -42551546      -42551546       980.72725     -42550566      -1616.251      -1626.8906     -1619.3339     -2.9833596      5.5229769      3.6119824      17998.129    
    191000   329.42923      0.0955         0.16313579     0.16434803     0.16354413    -1615.3563      802.47124      802.47124      802.47124      5.1675945e+08  1.2275424     -42535218      -42535218       980.984       -42534237      -1610.025      -1621.9889     -1614.0551     -3.2094584      4.6568043      3.265473       18335.137    
    192000   329.01832      0.096          0.16261614     0.16394986     0.16310403    -1610.8892      802.8375       802.8375       802.8375       5.1746734e+08  1.2258631     -42518916      -42518916       979.76037     -42517937      -1604.8966     -1618.0593     -1609.7117     -2.913501       4.7873937      3.0065022      18094.246    
    193000   328.53616      0.0965         0.16219721     0.16353611     0.16268834    -1606.7823      803.20375      803.20375      803.20375      5.1817588e+08  1.2241869     -42502633      -42502633       978.32458     -42501655      -1600.762      -1613.9759     -1605.6091     -2.1758405      5.4572371      2.9231808      18330.474    
    194000   328.61697      0.097          0.16180462     0.16310089     0.16223909    -1602.5811      803.57001      803.57001      803.57001      5.1888506e+08  1.2225138     -42486382      -42486382       978.56523     -42485403      -1596.8874     -1609.6806     -1601.1754     -1.3964492      5.4591689      2.8457087      18100.889    
    195000   328.74348      0.0975         0.16138809     0.16263775     0.16172961    -1598.0112      803.93627      803.93627      803.93627      5.1959489e+08  1.2208437     -42470166      -42470166       978.94195     -42469187      -1592.7766     -1605.1098     -1596.1471     -1.1110662      4.4861897      2.859956       18194.85     
    196000   328.4873       0.098          0.1609188      0.16214696     0.16126192    -1593.3142      804.30253      804.30253      804.30253      5.2030536e+08  1.2191766     -42453980      -42453980       978.17909     -42453001      -1588.1451     -1600.2661     -1591.5315     -1.1375171      3.6215209      3.6609814      18226.107    
    197000   328.22638      0.0985         0.16043557     0.16158725     0.1608568     -1588.5504      804.66879      804.66879      804.66879      5.2101649e+08  1.2175126     -42437824      -42437824       977.4021      -42436847      -1583.376      -1594.7421     -1587.5331     -1.4554254      3.6339458      4.235646       18263.837    
    198000   328.15711      0.099          0.15997824     0.16097462     0.16043175    -1583.6322      805.03504      805.03504      805.03504      5.2172826e+08  1.2158516     -42421703      -42421703       977.19584     -42420726      -1578.8624     -1588.696      -1583.3383     -2.0073283      4.296542       3.9635186      18283.942    
    199000   328.04521      0.0995         0.15955172     0.16045581     0.15995803    -1578.9639      805.4013       805.4013       805.4013       5.2244068e+08  1.2141936     -42405615      -42405615       976.86261     -42404638      -1574.6531     -1583.5757     -1578.6631     -2.2725544      4.7301955      3.4600501      18274.322    
    200000   327.68784      0.1            0.15908191     0.1600677      0.15939747    -1574.2975      805.76756      805.76756      805.76756      5.2315374e+08  1.2125386     -42389559      -42389559       975.79844     -42388584      -1570.0164     -1579.7454     -1573.1307     -2.5467636      4.869796       3.0608977      17689.954    
    201000   327.38052      0.1005         0.15864452     0.15979562     0.15885651    -1570.1839      806.13382      806.13382      806.13382      5.2386746e+08  1.2108867     -42373532      -42373532       974.8833      -42372557      -1565.6996     -1577.0602     -1567.7919     -2.8022745      5.0777456      2.9556278      18044.073    
    202000   327.29903      0.101          0.15829326     0.15958343     0.15847193    -1567.0652      806.50008      806.50008      806.50008      5.2458182e+08  1.2092377     -42357528      -42357528       974.64063     -42356553      -1562.2331     -1574.966      -1563.9964     -2.9511349      5.38448        3.1966528      18292.244    
    203000   327.16344      0.1015         0.15791702     0.15917006     0.15816452    -1563.4562      806.86633      806.86633      806.86633      5.2529684e+08  1.2075918     -42341544      -42341544       974.23686     -42340569      -1558.5198     -1570.8864     -1560.9625     -2.7392077      5.4636183      3.8073028      18277.842    
    204000   327.07839      0.102          0.15741356     0.15848405     0.15773639    -1558.1347      807.23259      807.23259      807.23259      5.260125e+08   1.2059488     -42325590      -42325590       973.98359     -42324616      -1553.5511     -1564.1159     -1556.7372     -1.7781574      5.3294735      3.8906782      18260.021    
    205000   327.18041      0.1025         0.15686515     0.15780788     0.15717591    -1552.2623      807.59885      807.59885      807.59885      5.2672881e+08  1.2043088     -42309681      -42309681       974.2874      -42308707      -1548.1387     -1557.4426     -1551.2056     -0.5331543      5.2534334      3.3642083      18274.64     
    206000   327.10181      0.103          0.15641533     0.15739        0.15673403    -1547.9541      807.96511      807.96511      807.96511      5.2744578e+08  1.2026717     -42293804      -42293804       974.05334     -42292830      -1543.6993     -1553.3186     -1546.8446     -0.26887655     4.9183145      2.8703037      18264.294    
    207000   326.78485      0.1035         0.15609319     0.15712497     0.15644806    -1545.0817      808.33137      808.33137      808.33137      5.2816339e+08  1.2010377     -42277943      -42277943       973.10948     -42276970      -1540.52       -1550.7029     -1544.0223     -0.91874147     4.2352418      3.1054506      18190.998    
    208000   326.79837      0.104          0.15578645     0.15682448     0.15617298    -1542.1791      808.69762      808.69762      808.69762      5.2888165e+08  1.1994066     -42262105      -42262105       973.14975     -42261132      -1537.4927     -1547.7372     -1541.3075     -1.6454981      4.1749733      3.6054864      18285.429    
    209000   326.83497      0.1045         0.15541464     0.15640072     0.15578556    -1538.2874      809.06388      809.06388      809.06388      5.2960057e+08  1.1977784     -42246297      -42246297       973.25874     -42245324      -1533.8232     -1543.5551     -1537.4839     -1.7729456      4.657486       3.5644703      18119.085    
    210000   326.53768      0.105          0.15491316     0.15587389     0.15522817    -1533.0709      809.43014      809.43014      809.43014      5.3032013e+08  1.1961532     -42230515      -42230515       972.37344     -42229543      -1528.874      -1538.3556     -1531.9829     -1.8270498      4.9179639      3.5897806      18419.901    
    211000   326.23283      0.1055         0.1543151      0.15532572     0.15459323    -1527.2113      809.7964       809.7964       809.7964       5.3104035e+08  1.1945309     -42214766      -42214766       971.46565     -42213794      -1522.9716     -1532.9457     -1525.7166     -2.2984444      4.7954603      3.7851104      18059.148    
    212000   326.27946      0.106          0.15380927     0.15489339     0.1541013     -1522.5067      810.16266      810.16266      810.16266      5.3176122e+08  1.1929116     -42199055      -42199055       971.60451     -42198083      -1517.9795     -1528.6789     -1520.8616     -2.3908573      4.636978       3.6439626      18173.005    
    213000   326.47928      0.1065         0.1534836      0.1546541      0.15381635    -1519.7107      810.52891      810.52891      810.52891      5.3248274e+08  1.1912952     -42183374      -42183374       972.19955     -42182402      -1514.7654     -1526.3173     -1518.0493     -1.6799         5.0906773      3.2735637      18261.474    
    214000   326.76013      0.107          0.15329378     0.15448071     0.15355554    -1517.6578      810.89517      810.89517      810.89517      5.3320492e+08  1.1896817     -42167708      -42167708       973.03587     -42166734      -1512.892      -1524.6061     -1515.4754     -0.93938735     6.2560455      3.2835114      18242.798    
    215000   326.94305      0.1075         0.15312586     0.15411348     0.15329376    -1515.0361      811.26143      811.26143      811.26143      5.3392774e+08  1.1880711     -42152053      -42152053       973.58058     -42151080      -1511.2348     -1520.9818     -1512.8918     -0.78164719     6.9473889      3.5708948      18271.206    
    216000   326.85906      0.108          0.15278057     0.15351554     0.15297185    -1510.8741      811.62769      811.62769      811.62769      5.3465122e+08  1.1864635     -42136423      -42136423       973.33048     -42135450      -1507.827      -1515.0805     -1509.7148     -1.0267602      6.1330913      3.2611005      17987.69     
    217000   326.44203      0.1085         0.15227332     0.15297551     0.15253575    -1505.9942      811.99395      811.99395      811.99395      5.3537535e+08  1.1848587     -42120823      -42120823       972.08861     -42119851      -1502.8208     -1509.7509     -1505.4108     -1.4444636      4.4743142      2.9331916      18552.357    
[...]
   3354000   323.05205      1.677          0.011068042    0.011163439    0.011016543   -109.37749      1960.9452      1960.9452      1960.9452      7.5404349e+09  0.084125669   -11496102      -11496102       961.99385     -11495140      -109.23308     -110.17457     -108.72483      0.18331308     0.83184844     0.56687181     17219.198    
   3355000   323.0561       1.6775         0.011061379    0.011152608    0.011007799   -109.29118      1961.3115      1961.3115      1961.3115      7.5446608e+09  0.084078549   -11489511      -11489511       962.0059      -11488549      -109.16732     -110.06768     -108.63853      0.1744233      0.82047941     0.58009087     17431.755    
   3356000   323.07401      1.678          0.011054641    0.01114233     0.010999233   -109.20702      1961.6778      1961.6778      1961.6778      7.5488883e+09  0.084031464   -11482923      -11482923       962.05924     -11481961      -109.10082     -109.96625     -108.55399      0.17181592     0.81848122     0.58263459     17448.315    
   3357000   323.12584      1.6785         0.011047624    0.011133636    0.010991862   -109.13109      1962.044       1962.044       1962.044       7.5531174e+09  0.083984413   -11476338      -11476338       962.21356     -11475376      -109.03157     -109.88044     -108.48125      0.17520684     0.81717773     0.57221945     17418.155    
   3358000   323.17931      1.679          0.011039965    0.011126149    0.010985579   -109.06059      1962.4103      1962.4103      1962.4103      7.557348e+09   0.083937398   -11469755      -11469755       962.37281     -11468792      -108.95599     -109.80655     -108.41924      0.18238949     0.81918476     0.55803553     17635.129    
   3359000   323.19382      1.6795         0.011030842    0.011119175    0.010978767   -108.98522      1962.7765      1962.7765      1962.7765      7.5615803e+09  0.083890419   -11463173      -11463173       962.416       -11462211      -108.86594     -109.73772     -108.35201      0.18599971     0.82968567     0.55004785     17539.756    
   3360000   323.16564      1.68           0.01102053     0.011111671    0.010971309   -108.90208      1963.1428      1963.1428      1963.1428      7.5658141e+09  0.083843474   -11456594      -11456594       962.33208     -11455632      -108.76417     -109.66367     -108.2784       0.18571891     0.84839079     0.55188589     17485.632    
   3361000   323.12101      1.6805         0.011011282    0.011103016    0.010962071   -108.81279      1963.509       1963.509       1963.509       7.5700495e+09  0.083796564   -11450018      -11450018       962.19918     -11449056      -108.67291     -109.57825     -108.18722      0.18992317     0.85579275     0.5616524      17290.202    
   3362000   323.08334      1.681          0.011003018    0.01109329     0.01095085    -108.7167       1963.8753      1963.8753      1963.8753      7.5742864e+09  0.083749689   -11443445      -11443445       962.08703     -11442483      -108.59134     -109.48226     -108.07648      0.19226997     0.84524017     0.56872513     17526.792    
   3363000   323.0665       1.6815         0.010994932    0.01108317     0.010941051   -108.62457      1964.2416      1964.2416      1964.2416      7.578525e+09   0.083702849   -11436875      -11436875       962.03686     -11435913      -108.51154     -109.38238     -107.97978      0.19056205     0.83480463     0.5668956      17316.176    
   3364000   323.07218      1.682          0.010986942    0.011074478    0.010934246   -108.5473       1964.6078      1964.6078      1964.6078      7.5827651e+09  0.083656044   -11430308      -11430308       962.05378     -11429346      -108.43269     -109.2966      -107.91262      0.18638057     0.84197365     0.55577744     17573.535    
   3365000   323.08824      1.6825         0.010980241    0.011068083    0.010929328   -108.48804      1964.9741      1964.9741      1964.9741      7.5870068e+09  0.083609274   -11423743      -11423743       962.10161     -11422781      -108.36655     -109.23349     -107.86408      0.18995376     0.85803271     0.54572884     17523.41     
   3366000   323.0959       1.683          0.010975704    0.011063955    0.010924772   -108.44455      1965.3403      1965.3403      1965.3403      7.5912501e+09  0.083562539   -11417179      -11417179       962.1244      -11416217      -108.32178     -109.19274     -107.81911      0.19517799     0.87288887     0.54659245     17897.576    
   3367000   323.08994      1.6835         0.010970647    0.0110599      0.010918657   -108.39445      1965.7066      1965.7066      1965.7066      7.595495e+09   0.083515839   -11410614      -11410614       962.10669     -11409652      -108.27187     -109.15272     -107.75876      0.19225368     0.88409881     0.55566583     17334.53     
   3368000   323.08354      1.684          0.010963617    0.011053189    0.010909695   -108.31977      1966.0728      1966.0728      1966.0728      7.5997414e+09  0.083469173   -11404051      -11404051       962.08761     -11403089      -108.20249     -109.08649     -107.67032      0.18767227     0.88659289     0.56227778     17488.813    
   3369000   323.08948      1.6845         0.010954879    0.011043679    0.010898363   -108.22246      1966.4391      1966.4391      1966.4391      7.6039895e+09  0.083422542   -11397491      -11397491       962.10531     -11396529      -108.11625     -108.99264     -107.55848      0.18988168     0.87579968     0.55653048     17525.709    
   3370000   323.1145       1.685          0.01094571     0.011034218    0.010887478   -108.12536      1966.8054      1966.8054      1966.8054      7.6082391e+09  0.083375946   -11390935      -11390935       962.17981     -11389972      -108.02575     -108.89926     -107.45106      0.19138399     0.85674462     0.54503216     17365.347    
   3371000   323.14592      1.6855         0.010937136    0.011027221    0.010879488   -108.04785      1967.1716      1967.1716      1967.1716      7.6124903e+09  0.083329385   -11384381      -11384381       962.27338     -11383419      -107.94114     -108.83021     -107.3722       0.18913969     0.84416376     0.54924824     17469.961    
   3372000   323.17072      1.686          0.010928706    0.01102172     0.010874112   -107.98434      1967.5379      1967.5379      1967.5379      7.6167431e+09  0.083282858   -11377830      -11377830       962.34722     -11376868      -107.85795     -108.77592     -107.31914      0.18098294     0.84225055     0.56611528     17406.256    
   3373000   323.1906       1.6865         0.010920046    0.011015425    0.010869295   -107.91929      1967.9041      1967.9041      1967.9041      7.6209975e+09  0.083236366   -11371280      -11371280       962.40641     -11370318      -107.77248     -108.71379     -107.2716       0.17443536     0.85037922     0.57192128     17470.784    
   3374000   323.20897      1.687          0.010912868    0.011008623    0.010863959   -107.85575      1968.2704      1968.2704      1968.2704      7.6252534e+09  0.083189908   -11364732      -11364732       962.46112     -11363769      -107.70164     -108.64666     -107.21894      0.17301978     0.86124165     0.56167919     17282.077    
   3375000   323.2123       1.6875         0.010907141    0.011002756    0.010858076   -107.79825      1968.6367      1968.6367      1968.6367      7.629511e+09   0.083143485   -11358185      -11358185       962.47104     -11357222      -107.64511     -108.58876     -107.16088      0.17808097     0.86070951     0.54538807     17449.981    
   3376000   323.19273      1.688          0.010900014    0.010997596    0.01085093    -107.73432      1969.0029      1969.0029      1969.0029      7.6337701e+09  0.083097097   -11351639      -11351639       962.41275     -11350676      -107.57477     -108.53784     -107.09036      0.19425644     0.84932515     0.53765801     17590.092    
   3377000   323.15932      1.6885         0.010890471    0.010990234    0.010840703   -107.64506      1969.3692      1969.3692      1969.3692      7.6380308e+09  0.083050743   -11345094      -11345094       962.31328     -11344132      -107.4806      -108.46517     -106.98942      0.21505988     0.83356198     0.54847713     17414.177    
   3378000   323.11756      1.689          0.010880749    0.010979328    0.010829114   -107.53908      1969.7354      1969.7354      1969.7354      7.6422931e+09  0.083004424   -11338554      -11338554       962.18891     -11337592      -107.38464     -108.35754     -106.87505      0.22337282     0.82010051     0.55828908     17654.002    
   3379000   323.08167      1.6895         0.01087337     0.010965829    0.01081826    -107.43469      1970.1017      1970.1017      1970.1017      7.646557e+09   0.082958139   -11332018      -11332018       962.08205     -11331056      -107.31182     -108.22432     -106.76793      0.22156468     0.8147701      0.56789611     17586.995    
   3380000   323.07901      1.69           0.010867882    0.010954382    0.010809321   -107.34957      1970.4679      1970.4679      1970.4679      7.6508224e+09  0.082911888   -11325486      -11325486       962.07413     -11324524      -107.25766     -108.11135     -106.67971      0.22026549     0.81670365     0.57096821     17561.897    
   3381000   323.10912      1.6905         0.010862098    0.010947394    0.010802465   -107.285        1970.8342      1970.8342      1970.8342      7.6550895e+09  0.082865672   -11318955      -11318955       962.16379     -11317993      -107.20057     -108.04238     -106.61204      0.22430832     0.81491339     0.5661435      17527.734    
   3382000   323.14445      1.691          0.010855318    0.010943153    0.010798582   -107.23597      1971.2005      1971.2005      1971.2005      7.6593581e+09  0.08281949    -11312426      -11312426       962.26899     -11311464      -107.13366     -108.00052     -106.57372      0.224593       0.81089966     0.5610927      17805.617    
   3383000   323.15822      1.6915         0.01084757     0.010937864    0.010796557   -107.18642      1971.5667      1971.5667      1971.5667      7.6636283e+09  0.082773343   -11305897      -11305897       962.31        -11304935      -107.05719     -107.94833     -106.55373      0.20964648     0.81394886     0.55443484     17623.699    
   3384000   323.15583      1.692          0.010838592    0.010929226    0.010792479   -107.11505      1971.933       1971.933       1971.933       7.6679002e+09  0.082727229   -11299369      -11299369       962.30289     -11298407      -106.96859     -107.86307     -106.51349      0.18369854     0.82613649     0.5485446      17653.301    
   3385000   323.15371      1.6925         0.010829386    0.010918743    0.010784932   -107.02545      1972.2992      1972.2992      1972.2992      7.6721735e+09  0.08268115    -11292844      -11292844       962.29656     -11291882      -106.87773     -107.75961     -106.439        0.16272616     0.84484494     0.54907862     17789.683    
   3386000   323.13332      1.693          0.010821365    0.010909281    0.010776377   -106.93979      1972.6655      1972.6655      1972.6655      7.6764485e+09  0.082635105   -11286322      -11286322       962.23586     -11285360      -106.79857     -107.66624     -106.35457      0.16167868     0.8644725      0.55067625     17492.809    
   3387000   323.10776      1.6935         0.010814945    0.010900644    0.010767456   -106.86091      1973.0318      1973.0318      1973.0318      7.6807251e+09  0.082589095   -11279803      -11279803       962.15973     -11278841      -106.7352      -107.58099     -106.26653      0.17166495     0.87447467     0.54827988     17768.57     
   3388000   323.10652      1.694          0.010809597    0.010893214    0.010759165   -106.7916       1973.398       1973.398       1973.398       7.6850033e+09  0.082543118   -11273286      -11273286       962.15604     -11272324      -106.68243     -107.50766     -106.1847       0.17657226     0.86851235     0.54143052     17675.228    
   3389000   323.14748      1.6945         0.010803891    0.010887053    0.010751605   -106.72769      1973.7643      1973.7643      1973.7643      7.689283e+09   0.082497176   -11266770      -11266770       962.27801     -11265808      -106.62611     -107.44686     -106.11009      0.17740972     0.85556661     0.53182554     17731.77     
   3390000   323.21045      1.695          0.01079826     0.010882254    0.010745551   -106.67346      1974.1305      1974.1305      1974.1305      7.6935644e+09  0.082451268   -11260257      -11260257       962.46552     -11259294      -106.57054     -107.3995      -106.05034      0.18050176     0.83959394     0.52461032     17950.42     
   3391000   323.25712      1.6955         0.010792078    0.010876731    0.010740258   -106.61754      1974.4968      1974.4968      1974.4968      7.6978473e+09  0.082405393   -11253743      -11253743       962.60451     -11252781      -106.50953     -107.34499     -105.9981       0.18770557     0.82460975     0.53565078     17825.124    
   3392000   323.28883      1.696          0.010784237    0.010868583    0.010732798   -106.5404       1974.863       1974.863       1974.863       7.7021318e+09  0.082359553   -11247232      -11247232       962.69892     -11246269      -106.43214     -107.26458     -105.92448      0.19658418     0.81117917     0.55899048     17538.081    
   3393000   323.31845      1.6965         0.010775173    0.010859444    0.010722935   -106.44807      1975.2293      1975.2293      1975.2293      7.7064179e+09  0.082313747   -11240723      -11240723       962.78714     -11239761      -106.34269     -107.17438     -105.82714      0.20816374     0.80183077     0.57117768     17853.751    
   3394000   323.32864      1.697          0.010766306    0.010850923    0.010713851   -106.36098      1975.5956      1975.5956      1975.5956      7.7107056e+09  0.082267975   -11234218      -11234218       962.81748     -11233256      -106.25518     -107.09029     -105.73749      0.20715398     0.80344204     0.55968591     17611.269    
   3395000   323.30664      1.6975         0.010757512    0.010842895    0.010705859   -106.27935      1975.9618      1975.9618      1975.9618      7.7149949e+09  0.082222236   -11227716      -11227716       962.75196     -11226753      -106.16839     -107.01106     -105.65861      0.19024236     0.81424807     0.54130709     17530.546    
   3396000   323.26813      1.698          0.010748789    0.010836204    0.010697826   -106.20221      1976.3281      1976.3281      1976.3281      7.7192858e+09  0.082176532   -11221216      -11221216       962.63728     -11220253      -106.0823      -106.94501     -105.57933      0.16425284     0.82419258     0.53668179     17578.72     
   3397000   323.22001      1.6985         0.010740738    0.010830524    0.010689715   -106.13037      1976.6943      1976.6943      1976.6943      7.7235782e+09  0.082130862   -11214718      -11214718       962.49399     -11213756      -106.00284     -106.88896     -105.49929      0.13955399     0.82959608     0.54606365     17526.028    
   3398000   323.16183      1.699          0.010732647    0.010823926    0.01068141    -106.05472      1977.0606      1977.0606      1977.0606      7.7278723e+09  0.082085225   -11208222      -11208222       962.32074     -11207260      -105.92299     -106.82385     -105.41732      0.12857409     0.83407948     0.55607317     17772.571    
   3399000   323.10038      1.6995         0.010724252    0.010815342    0.010673025   -105.97128      1977.4268      1977.4268      1977.4268      7.7321679e+09  0.082039622   -11201729      -11201729       962.13775     -11200767      -105.84014     -106.73913     -105.33456      0.14316049     0.83580391     0.55771494     17584.133    
   3400000   323.05427      1.7            0.010716617    0.010805057    0.010664868   -105.88549      1977.7931      1977.7931      1977.7931      7.7364652e+09  0.081994053   -11195238      -11195238       962.00046     -11194276      -105.76478     -106.63762     -105.25407      0.17205174     0.83327314     0.55002278     17352.679    
   3401000   323.03905      1.7005         0.010709802    0.010795902    0.010657438   -105.80851      1978.1594      1978.1594      1978.1594      7.740764e+09   0.081948517   -11188750      -11188750       961.95513     -11187788      -105.69753     -106.54727     -105.18074      0.19026142     0.82963653     0.54159536     17600.988    
   3402000   323.04665      1.701          0.010703087    0.010789386    0.010650915   -105.74352      1978.5256      1978.5256      1978.5256      7.7450644e+09  0.081903016   -11182264      -11182264       961.97775     -11181302      -105.63125     -106.48296     -105.11635      0.19205018     0.81913548     0.5457788      17449.01     
   3403000   323.06519      1.7015         0.010695706    0.010783738    0.010645311   -105.68223      1978.8919      1978.8919      1978.8919      7.7493664e+09  0.081857548   -11175780      -11175780       962.03297     -11174818      -105.55841     -106.42722     -105.06105      0.1895735      0.80104385     0.55255785     17709.07     
   3404000   323.08664      1.702          0.010687665    0.010776518    0.010639085   -105.61154      1979.2581      1979.2581      1979.2581      7.7536701e+09  0.081812113   -11169297      -11169297       962.09684     -11168335      -105.47905     -106.35596     -104.9996       0.18924238     0.79406868     0.54703342     17549.91     
   3405000   323.10651      1.7025         0.010678399    0.010767007    0.010630775   -105.52243      1979.6244      1979.6244      1979.6244      7.7579753e+09  0.081766713   -11162816      -11162816       962.15601     -11161854      -105.3876      -106.2621      -104.91759      0.1865342      0.80150389     0.53022898     17396.291    
   3406000   323.12336      1.703          0.010668783    0.010757573    0.010622325   -105.43196      1979.9907      1979.9907      1979.9907      7.7622821e+09  0.081721346   -11156339      -11156339       962.20619     -11155377      -105.2927      -106.16899     -104.8342       0.17944948     0.80800758     0.51771853     17802.758    
   3407000   323.13145      1.7035         0.010660324    0.010748923    0.010615069   -105.35181      1980.3569      1980.3569      1980.3569      7.7665904e+09  0.081676012   -11149865      -11149865       962.23029     -11148903      -105.20922     -106.08362     -104.76259      0.17147422     0.80501315     0.520668       17357.811    
   3408000   323.13395      1.704          0.010652408    0.010740058    0.010608272   -105.27424      1980.7232      1980.7232      1980.7232      7.7709004e+09  0.081630712   -11143394      -11143394       962.23772     -11142432      -105.13109     -105.99613     -104.6955       0.16622102     0.79704171     0.53289439     17690.624    
   3409000   323.1483       1.7045         0.010643936    0.010731283    0.01060061    -105.1923       1981.0894      1981.0894      1981.0894      7.775212e+09   0.081585445   -11136925      -11136925       962.28045     -11135963      -105.04748     -105.90953     -104.61989      0.15908256     0.80202487     0.54620723     17410.84     
   3410000   323.17711      1.705          0.01063399     0.010723103    0.010592403   -105.10567      1981.4557      1981.4557      1981.4557      7.7795252e+09  0.081540212   -11130459      -11130459       962.36624     -11129496      -104.94932     -105.8288      -104.53889      0.15656285     0.81616739     0.54932823     17435.045    
   3411000   323.20145      1.7055         0.010624784    0.010716332    0.010584487   -105.02707      1981.8219      1981.8219      1981.8219      7.7838399e+09  0.081495013   -11123996      -11123996       962.43873     -11123033      -104.85847     -105.76197     -104.46077      0.16626117     0.82522931     0.53849072     17441.149    
ERROR on proc 0: Pair distance > table outer cutoff: ijtype 2 1 dist 308.00003738238297 (src/pair_table_pgn.cpp:138)
Last command: run				${steps_tensile}
